                               Psi4 1.4a3.dev225

  ==> Input File <==

--------------------------------------------------------------------------
#psi4
#
memory 32 gb

molecule  {
0 1
  N       -0.8580750     2.1650740    -0.5094440
  C       -0.6634250    -0.2127650     0.0691530
  C        0.8657359    -0.1517871     0.0411441
  C       -1.4510140     0.9181800    -0.2423400
  C       -1.3025160    -1.4250040     0.3687340
  C        1.5441380    -1.0912920    -0.7082460
  C        1.5175140     0.8066950     0.7907500
  C       -2.8485400     0.8086890    -0.1980070
  C       -2.6918610    -1.5288690     0.3976690
  C       -3.4646370    -0.4031430     0.1053440
  C        2.9393010    -1.0716050    -0.7093040
  C        2.9130560     0.8267600     0.7846130
  C        3.6278980    -0.1122400     0.0369440
  H       -0.6848640    -2.2871190     0.6142040
  H        1.0058700    -1.8278860    -1.3015600
  H        0.9614050     1.5295600     1.3833290
  H       -3.4548610     1.6831510    -0.4309120
  H       -3.1654310    -2.4765660     0.6404150
  H       -4.5504850    -0.4615560     0.1267090
  H        3.4898150    -1.8022040    -1.2977600
  H        3.4438080     1.5707970     1.3744420
  H        4.7151610    -0.0954640     0.0345500
  H        0.0736060     2.0855870    -0.9073830
  H       -1.4416920     2.7564150    -1.0941350
units angstrom
no_reorient  #important for SAPT in psi4, default
symmetry c1  #important for SAPT in psi4, default
}

set PROPERTIES_ORIGIN ["COM"]
properties('MP2/aug-cc-pvtz', properties = ['dipole'])
--------------------------------------------------------------------------

    Molecular point group: c1
  Charge       = 0
  Multiplicity = 1
  Basis Set: AUG-CC-PVTZ
    Blend: AUG-CC-PVTZ
  Basis Set: (AUG-CC-PVTZ AUX)
    Blend: AUG-CC-PVTZ-JKFIT

    Orbital Energies [Eh]
    ---------------------

    Doubly Occupied:

       1A    -15.563861     2A    -11.278836     3A    -11.244621
       4A    -11.239471     5A    -11.239118     6A    -11.237807
       7A    -11.236772     8A    -11.235830     9A    -11.235116
      10A    -11.234600    11A    -11.233111    12A    -11.226305
      13A    -11.222343    14A     -1.223725    15A     -1.160294
      16A     -1.124751    17A     -1.047294    18A     -1.018399
      19A     -0.993852    20A     -0.975026    21A     -0.847889
      22A     -0.835806    23A     -0.811839    24A     -0.790472
      25A     -0.711963    26A     -0.685588    27A     -0.683993
      28A     -0.651922    29A     -0.628323    30A     -0.622942
      31A     -0.594271    32A     -0.591475    33A     -0.588580
      34A     -0.576947    35A     -0.536358    36A     -0.522609
      37A     -0.506908    38A     -0.504131    39A     -0.493387
      40A     -0.470848    41A     -0.448005    42A     -0.359608
      43A     -0.339911    44A     -0.319759    45A     -0.291363

  @DF-RHF Final Energy:  -515.45034584795042

   => Energetics <=

    Nuclear Repulsion Energy =            709.0206702437950526
    One-Electron Energy =               -2104.1699783723920518
    Two-Electron Energy =                 879.6989622806466969
    Total Energy =                       -515.4503458479504161
  Basis Set: (AUG-CC-PVTZ AUX)
    Blend: AUG-CC-PVTZ-RI
    Molecular point group: c1

    Geometry (in Angstrom), charge = 0, multiplicity = 1:

       Center              X                  Y                   Z               Mass
    ------------   -----------------  -----------------  -----------------  -----------------
         N           -0.859302240689     2.168852403811    -0.514405001354    14.003074004430
         C           -0.664652240689    -0.208986596189     0.064191998646    12.000000000000
         C            0.864508659311    -0.148008696189     0.036183098646    12.000000000000
         C           -1.452241240689     0.921958403811    -0.247301001354    12.000000000000
         C           -1.303743240689    -1.421225596189     0.363772998646    12.000000000000
         C            1.542910759311    -1.087513596189    -0.713207001354    12.000000000000
         C            1.516286759311     0.810473403811     0.785788998646    12.000000000000
         C           -2.849767240689     0.812467403811    -0.202968001354    12.000000000000
         C           -2.693088240689    -1.525090596189     0.392707998646    12.000000000000
         C           -3.465864240689    -0.399364596189     0.100382998646    12.000000000000
         C            2.938073759311    -1.067826596189    -0.714265001354    12.000000000000
         C            2.911828759311     0.830538403811     0.779651998646    12.000000000000
         C            3.626670759311    -0.108461596189     0.031982998646    12.000000000000
         H           -0.686091240689    -2.283340596189     0.609242998646     1.007825032230
         H            1.004642759311    -1.824107596189    -1.306521001354     1.007825032230
         H            0.960177759311     1.533338403811     1.378367998646     1.007825032230
         H           -3.456088240689     1.686929403811    -0.435873001354     1.007825032230
         H           -3.166658240689    -2.472787596189     0.635453998646     1.007825032230
         H           -4.551712240689    -0.457777596189     0.121747998646     1.007825032230
         H            3.488587759311    -1.798425596189    -1.302721001354     1.007825032230
         H            3.442580759311     1.574575403811     1.369480998646     1.007825032230
         H            4.713933759311    -0.091685596189     0.029588998646     1.007825032230
         H            0.072378759311     2.089365403811    -0.912344001354     1.007825032230
         H           -1.442919240689     2.760193403811    -1.099096001354     1.007825032230

  Basis Set: AUG-CC-PVTZ
    Blend: AUG-CC-PVTZ
  Basis Set: (AUG-CC-PVTZ AUX)
    Blend: AUG-CC-PVTZ-JKFIT
	 Reference Energy          =    -515.4503458479504161 [Eh]
	 Singles Energy            =      -0.0000000000000000 [Eh]
	 Same-Spin Energy          =      -0.5824237974648012 [Eh]
	 Opposite-Spin Energy      =      -1.8004558800798245 [Eh]
	 Correlation Energy        =      -2.3828796775446257 [Eh]
	 Total Energy              =    -517.8332255254950951 [Eh]

	 ================> DF-SCS-MP2 Energies <==================
	-----------------------------------------------------------
	 SCS Same-Spin Scale       =       0.3333333333333333 [-]
	 SCS Opposite-Spin Scale   =       1.2000000000000000 [-]
	 SCS Same-Spin Energy      =      -0.1941412658216004 [Eh]
	 SCS Opposite-Spin Energy  =      -2.1605470560957891 [Eh]
	 SCS Correlation Energy    =      -2.3546883219173895 [Eh]
	 SCS Total Energy          =    -517.8050341698677812 [Eh]
	-----------------------------------------------------------

  Dipole Moment: [D]
     X:     0.5403      Y:     0.5422      Z:    -1.1328     Total:     1.3671

*** Psi4 exiting successfully. Buy a developer a beer!
