                               Psi4 1.4a3.dev225

  ==> Input File <==

--------------------------------------------------------------------------
#psi4
#
memory 32 gb

molecule  {
0 1
  N       -0.8580750     2.1650740    -0.5094440
  C       -0.6634250    -0.2127650     0.0691530
  C        0.8157840    -0.1537790     0.0420590
  C       -1.4425814     0.9359130    -0.2461387
  C       -1.3025160    -1.4250040     0.3687340
  C        1.5441380    -1.0912920    -0.7082460
  C        1.5175140     0.8066950     0.7907500
  C       -2.8485400     0.8086890    -0.1980070
  C       -2.6918610    -1.5288690     0.3976690
  C       -3.4646370    -0.4031430     0.1053440
  C        2.9393010    -1.0716050    -0.7093040
  C        2.9130560     0.8267600     0.7846130
  C        3.6278980    -0.1122400     0.0369440
  H       -0.6848640    -2.2871190     0.6142040
  H        1.0058700    -1.8278860    -1.3015600
  H        0.9614050     1.5295600     1.3833290
  H       -3.4548610     1.6831510    -0.4309120
  H       -3.1654310    -2.4765660     0.6404150
  H       -4.5504850    -0.4615560     0.1267090
  H        3.4898150    -1.8022040    -1.2977600
  H        3.4438080     1.5707970     1.3744420
  H        4.7151610    -0.0954640     0.0345500
  H        0.0736060     2.0855870    -0.9073830
  H       -1.4416920     2.7564150    -1.0941350
units angstrom
no_reorient  #important for SAPT in psi4, default
symmetry c1  #important for SAPT in psi4, default
}

set PROPERTIES_ORIGIN ["COM"]
properties('MP2/aug-cc-pvtz', properties = ['dipole'])
--------------------------------------------------------------------------

    Molecular point group: c1
  Charge       = 0
  Multiplicity = 1
  Basis Set: AUG-CC-PVTZ
    Blend: AUG-CC-PVTZ
  Basis Set: (AUG-CC-PVTZ AUX)
    Blend: AUG-CC-PVTZ-JKFIT

    Orbital Energies [Eh]
    ---------------------

    Doubly Occupied:

       1A    -15.566837     2A    -11.281777     3A    -11.246055
       4A    -11.239054     5A    -11.238685     6A    -11.236870
       7A    -11.236576     8A    -11.236533     9A    -11.236395
      10A    -11.235395    11A    -11.235293    12A    -11.227102
      13A    -11.221987    14A     -1.231608    15A     -1.156551
      16A     -1.124825    17A     -1.050712    18A     -1.015050
      19A     -0.992618    20A     -0.972565    21A     -0.851755
      22A     -0.834591    23A     -0.811037    24A     -0.789083
      25A     -0.712055    26A     -0.688397    27A     -0.687530
      28A     -0.657095    29A     -0.625737    30A     -0.623377
      31A     -0.594730    32A     -0.590579    33A     -0.586144
      34A     -0.578740    35A     -0.537926    36A     -0.523696
      37A     -0.506072    38A     -0.500705    39A     -0.489426
      40A     -0.477192    41A     -0.450725    42A     -0.360068
      43A     -0.338661    44A     -0.317386    45A     -0.287631

  @DF-RHF Final Energy:  -515.45095999662033

   => Energetics <=

    Nuclear Repulsion Energy =            708.9710015280778634
    One-Electron Energy =               -2104.0382747312928586
    Two-Electron Energy =                 879.6163132065945547
    Total Energy =                       -515.4509599966203268
  Basis Set: (AUG-CC-PVTZ AUX)
    Blend: AUG-CC-PVTZ-RI
    Molecular point group: c1

    Geometry (in Angstrom), charge = 0, multiplicity = 1:

       Center              X                  Y                   Z               Mass
    ------------   -----------------  -----------------  -----------------  -----------------
         N           -0.856355679057     2.167735281862    -0.514200342450    14.003074004430
         C           -0.661705679057    -0.210103718138     0.064396657550    12.000000000000
         C            0.817503320943    -0.151117718138     0.037302657550    12.000000000000
         C           -1.440862079057     0.938574281862    -0.250895042450    12.000000000000
         C           -1.300796679057    -1.422342718138     0.363977657550    12.000000000000
         C            1.545857320943    -1.088630718138    -0.713002342450    12.000000000000
         C            1.519233320943     0.809356281862     0.785993657550    12.000000000000
         C           -2.846820679057     0.811350281862    -0.202763342450    12.000000000000
         C           -2.690141679057    -1.526207718138     0.392912657550    12.000000000000
         C           -3.462917679057    -0.400481718138     0.100587657550    12.000000000000
         C            2.941020320943    -1.068943718138    -0.714060342450    12.000000000000
         C            2.914775320943     0.829421281862     0.779856657550    12.000000000000
         C            3.629617320943    -0.109578718138     0.032187657550    12.000000000000
         H           -0.683144679057    -2.284457718138     0.609447657550     1.007825032230
         H            1.007589320943    -1.825224718138    -1.306316342450     1.007825032230
         H            0.963124320943     1.532221281862     1.378572657550     1.007825032230
         H           -3.453141679057     1.685812281862    -0.435668342450     1.007825032230
         H           -3.163711679057    -2.473904718138     0.635658657550     1.007825032230
         H           -4.548765679057    -0.458894718138     0.121952657550     1.007825032230
         H            3.491534320943    -1.799542718138    -1.302516342450     1.007825032230
         H            3.445527320943     1.573458281862     1.369685657550     1.007825032230
         H            4.716880320943    -0.092802718138     0.029793657550     1.007825032230
         H            0.075325320943     2.088248281862    -0.912139342450     1.007825032230
         H           -1.439972679057     2.759076281862    -1.098891342450     1.007825032230

  Basis Set: AUG-CC-PVTZ
    Blend: AUG-CC-PVTZ
  Basis Set: (AUG-CC-PVTZ AUX)
    Blend: AUG-CC-PVTZ-JKFIT
	 Reference Energy          =    -515.4509599966203268 [Eh]
	 Singles Energy            =      -0.0000000000000000 [Eh]
	 Same-Spin Energy          =      -0.5831479504147130 [Eh]
	 Opposite-Spin Energy      =      -1.8013941819841646 [Eh]
	 Correlation Energy        =      -2.3845421323988774 [Eh]
	 Total Energy              =    -517.8355021290192326 [Eh]

	 ================> DF-SCS-MP2 Energies <==================
	-----------------------------------------------------------
	 SCS Same-Spin Scale       =       0.3333333333333333 [-]
	 SCS Opposite-Spin Scale   =       1.2000000000000000 [-]
	 SCS Same-Spin Energy      =      -0.1943826501382377 [Eh]
	 SCS Opposite-Spin Energy  =      -2.1616730183809976 [Eh]
	 SCS Correlation Energy    =      -2.3560556685192351 [Eh]
	 SCS Total Energy          =    -517.8070156651396019 [Eh]
	-----------------------------------------------------------

  Dipole Moment: [D]
     X:     0.4942      Y:     0.6541      Z:    -1.1579     Total:     1.4187

*** Psi4 exiting successfully. Buy a developer a beer!
