                               Psi4 1.3.2 release

  ==> Input File <==

--------------------------------------------------------------------------
#psi4
#
memory 32 gb

molecule  {
0 1
  N       -0.8580750     2.1650740    -0.5094440
  C       -0.6637312    -0.1922240     0.0848297
  C        0.8157840    -0.1537790     0.0420590
  C       -1.4510140     0.9181800    -0.2423400
  C       -1.3025160    -1.4250040     0.3687340
  C        1.5441380    -1.0912920    -0.7082460
  C        1.5175140     0.8066950     0.7907500
  C       -2.8485400     0.8086890    -0.1980070
  C       -2.6918610    -1.5288690     0.3976690
  C       -3.4646370    -0.4031430     0.1053440
  C        2.9393010    -1.0716050    -0.7093040
  C        2.9130560     0.8267600     0.7846130
  C        3.6278980    -0.1122400     0.0369440
  H       -0.6848640    -2.2871190     0.6142040
  H        1.0058700    -1.8278860    -1.3015600
  H        0.9614050     1.5295600     1.3833290
  H       -3.4548610     1.6831510    -0.4309120
  H       -3.1654310    -2.4765660     0.6404150
  H       -4.5504850    -0.4615560     0.1267090
  H        3.4898150    -1.8022040    -1.2977600
  H        3.4438080     1.5707970     1.3744420
  H        4.7151610    -0.0954640     0.0345500
  H        0.0736060     2.0855870    -0.9073830
  H       -1.4416920     2.7564150    -1.0941350
units angstrom
no_reorient  #important for SAPT in psi4, default
symmetry c1  #important for SAPT in psi4, default
}

set PROPERTIES_ORIGIN ["COM"]
properties('MP2/aug-cc-pvtz', properties = ['dipole'])
--------------------------------------------------------------------------

    Molecular point group: c1
  Charge       = 0
  Multiplicity = 1
  Basis Set: AUG-CC-PVTZ
    Blend: AUG-CC-PVTZ
  Basis Set: (AUG-CC-PVTZ AUX)
    Blend: AUG-CC-PVTZ-JKFIT

    Orbital Energies [Eh]
    ---------------------

    Doubly Occupied:

       1A    -15.563763     2A    -11.278486     3A    -11.246523
       4A    -11.239246     5A    -11.238555     6A    -11.237929
       7A    -11.237224     8A    -11.237163     9A    -11.236811
      10A    -11.235619    11A    -11.234922    12A    -11.227678
      13A    -11.223495    14A     -1.225481    15A     -1.155915
      16A     -1.125073    17A     -1.051243    18A     -1.015106
      19A     -0.993400    20A     -0.974924    21A     -0.852823
      22A     -0.834622    23A     -0.811928    24A     -0.788682
      25A     -0.712047    26A     -0.685658    27A     -0.685152
      28A     -0.655583    29A     -0.625640    30A     -0.622769
      31A     -0.594760    32A     -0.592839    33A     -0.586368
      34A     -0.577980    35A     -0.537660    36A     -0.523227
      37A     -0.506247    38A     -0.500271    39A     -0.488855
      40A     -0.480238    41A     -0.448379    42A     -0.359812
      43A     -0.338657    44A     -0.317607    45A     -0.291213

  @DF-RHF Final Energy:  -515.45117916670881

   => Energetics <=

    Nuclear Repulsion Energy =            709.0997645247529135
    One-Electron Energy =               -2104.3067369296081779
    Two-Electron Energy =                 879.7557932381463388
    Total Energy =                       -515.4511791667088119
  Basis Set: (AUG-CC-PVTZ AUX)
    Blend: AUG-CC-PVTZ-RI
    Molecular point group: c1

    Geometry (in Angstrom), charge = 0, multiplicity = 1:

       Center              X                  Y                   Z               Mass
    ------------   -----------------  -----------------  -----------------  -----------------
         N           -0.855735499699     2.167536002369    -0.515582481995    14.003074004430
         C           -0.661391699699    -0.189761997631     0.078691218005    12.000000000000
         C            0.818123500301    -0.151316997631     0.035920518005    12.000000000000
         C           -1.448674499699     0.920642002369    -0.248478481995    12.000000000000
         C           -1.300176499699    -1.422541997631     0.362595518005    12.000000000000
         C            1.546477500301    -1.088829997631    -0.714384481995    12.000000000000
         C            1.519853500301     0.809157002369     0.784611518005    12.000000000000
         C           -2.846200499699     0.811151002369    -0.204145481995    12.000000000000
         C           -2.689521499699    -1.526406997631     0.391530518005    12.000000000000
         C           -3.462297499699    -0.400680997631     0.099205518005    12.000000000000
         C            2.941640500301    -1.069142997631    -0.715442481995    12.000000000000
         C            2.915395500301     0.829222002369     0.778474518005    12.000000000000
         C            3.630237500301    -0.109777997631     0.030805518005    12.000000000000
         H           -0.682524499699    -2.284656997631     0.608065518005     1.007825032230
         H            1.008209500301    -1.825423997631    -1.307698481995     1.007825032230
         H            0.963744500301     1.532022002369     1.377190518005     1.007825032230
         H           -3.452521499699     1.685613002369    -0.437050481995     1.007825032230
         H           -3.163091499699    -2.474103997631     0.634276518005     1.007825032230
         H           -4.548145499699    -0.459093997631     0.120570518005     1.007825032230
         H            3.492154500301    -1.799741997631    -1.303898481995     1.007825032230
         H            3.446147500301     1.573259002369     1.368303518005     1.007825032230
         H            4.717500500301    -0.093001997631     0.028411518005     1.007825032230
         H            0.075945500301     2.088049002369    -0.913521481995     1.007825032230
         H           -1.439352499699     2.758877002369    -1.100273481995     1.007825032230

  Basis Set: AUG-CC-PVTZ
    Blend: AUG-CC-PVTZ
  Basis Set: (AUG-CC-PVTZ AUX)
    Blend: AUG-CC-PVTZ-JKFIT
	 Reference Energy          =    -515.4511791667088119 [Eh]
	 Singles Energy            =      -0.0000000000000000 [Eh]
	 Same-Spin Energy          =      -0.5829694887289032 [Eh]
	 Opposite-Spin Energy      =      -1.8013526660180543 [Eh]
	 Correlation Energy        =      -2.3843221547469575 [Eh]
	 Total Energy              =    -517.8355013214558085 [Eh]

	 ================> DF-SCS-MP2 Energies <==================
	-----------------------------------------------------------
	 SCS Same-Spin Scale       =       0.3333333333333333 [-]
	 SCS Opposite-Spin Scale   =       1.2000000000000000 [-]
	 SCS Same-Spin Energy      =      -0.1943231629096344 [Eh]
	 SCS Opposite-Spin Energy  =      -2.1616231992216650 [Eh]
	 SCS Correlation Energy    =      -2.3559463621312995 [Eh]
	 SCS Total Energy          =    -517.8071255288400607 [Eh]
	-----------------------------------------------------------

  Dipole Moment: [D]
     X:     0.4331      Y:     0.5313      Z:    -1.1314     Total:     1.3228

*** Psi4 exiting successfully. Buy a developer a beer!
