                               Psi4 1.4a3.dev225

  ==> Input File <==

--------------------------------------------------------------------------
#psi4
#
memory 32 gb

molecule  {
0 1
  N       -0.8580750     2.1650740    -0.5094440
  C       -0.6634250    -0.2127650     0.0691530
  C        0.8157840    -0.1537790     0.0420590
  C       -1.4510140     0.9181800    -0.2423400
  C       -1.3025160    -1.4250040     0.3687340
  C        1.5545103    -1.1046429    -0.7189309
  C        1.5175140     0.8066950     0.7907500
  C       -2.8485400     0.8086890    -0.1980070
  C       -2.6918610    -1.5288690     0.3976690
  C       -3.4646370    -0.4031430     0.1053440
  C        2.9393010    -1.0716050    -0.7093040
  C        2.9130560     0.8267600     0.7846130
  C        3.6278980    -0.1122400     0.0369440
  H       -0.6848640    -2.2871190     0.6142040
  H        1.0058700    -1.8278860    -1.3015600
  H        0.9614050     1.5295600     1.3833290
  H       -3.4548610     1.6831510    -0.4309120
  H       -3.1654310    -2.4765660     0.6404150
  H       -4.5504850    -0.4615560     0.1267090
  H        3.4898150    -1.8022040    -1.2977600
  H        3.4438080     1.5707970     1.3744420
  H        4.7151610    -0.0954640     0.0345500
  H        0.0736060     2.0855870    -0.9073830
  H       -1.4416920     2.7564150    -1.0941350
units angstrom
no_reorient  #important for SAPT in psi4, default
symmetry c1  #important for SAPT in psi4, default
}

set PROPERTIES_ORIGIN ["COM"]
properties('MP2/aug-cc-pvtz', properties = ['dipole'])
--------------------------------------------------------------------------

    Molecular point group: c1
  Charge       = 0
  Multiplicity = 1
  Basis Set: AUG-CC-PVTZ
    Blend: AUG-CC-PVTZ
  Basis Set: (AUG-CC-PVTZ AUX)
    Blend: AUG-CC-PVTZ-JKFIT

    Orbital Energies [Eh]
    ---------------------

    Doubly Occupied:

       1A    -15.564430     2A    -11.280093     3A    -11.248588
       4A    -11.239078     5A    -11.238329     6A    -11.237180
       7A    -11.237015     8A    -11.236885     9A    -11.236557
      10A    -11.235694    11A    -11.235291    12A    -11.227133
      13A    -11.223160    14A     -1.225024    15A     -1.155091
      16A     -1.125734    17A     -1.050764    18A     -1.016711
      19A     -0.993687    20A     -0.973404    21A     -0.853109
      22A     -0.833783    23A     -0.811524    24A     -0.789099
      25A     -0.711984    26A     -0.686314    27A     -0.685402
      28A     -0.656623    29A     -0.625801    30A     -0.621633
      31A     -0.594318    32A     -0.592953    33A     -0.587256
      34A     -0.578908    35A     -0.536952    36A     -0.524333
      37A     -0.505664    38A     -0.500056    39A     -0.489237
      40A     -0.479548    41A     -0.448824    42A     -0.359799
      43A     -0.339975    44A     -0.317562    45A     -0.289682

  @DF-RHF Final Energy:  -515.45119479188452

   => Energetics <=

    Nuclear Repulsion Energy =            708.7522014823864538
    One-Electron Energy =               -2103.6064204806875750
    Two-Electron Energy =                 879.4030242064166032
    Total Energy =                       -515.4511947918845181
  Basis Set: (AUG-CC-PVTZ AUX)
    Blend: AUG-CC-PVTZ-RI
    Molecular point group: c1

    Geometry (in Angstrom), charge = 0, multiplicity = 1:

       Center              X                  Y                   Z               Mass
    ------------   -----------------  -----------------  -----------------  -----------------
         N           -0.856493336618     2.169941259014    -0.513711639299    14.003074004430
         C           -0.661843336618    -0.207897740986     0.064885360701    12.000000000000
         C            0.817365663382    -0.148911740986     0.037791360701    12.000000000000
         C           -1.449432336618     0.923047259014    -0.246607639299    12.000000000000
         C           -1.300934336618    -1.420136740986     0.364466360701    12.000000000000
         C            1.556091963382    -1.099775640986    -0.723198539299    12.000000000000
         C            1.519095663382     0.811562259014     0.786482360701    12.000000000000
         C           -2.846958336618     0.813556259014    -0.202274639299    12.000000000000
         C           -2.690279336618    -1.524001740986     0.393401360701    12.000000000000
         C           -3.463055336618    -0.398275740986     0.101076360701    12.000000000000
         C            2.940882663382    -1.066737740986    -0.713571639299    12.000000000000
         C            2.914637663382     0.831627259014     0.780345360701    12.000000000000
         C            3.629479663382    -0.107372740986     0.032676360701    12.000000000000
         H           -0.683282336618    -2.282251740986     0.609936360701     1.007825032230
         H            1.007451663382    -1.823018740986    -1.305827639299     1.007825032230
         H            0.962986663382     1.534427259014     1.379061360701     1.007825032230
         H           -3.453279336618     1.688018259014    -0.435179639299     1.007825032230
         H           -3.163849336618    -2.471698740986     0.636147360701     1.007825032230
         H           -4.548903336618    -0.456688740986     0.122441360701     1.007825032230
         H            3.491396663382    -1.797336740986    -1.302027639299     1.007825032230
         H            3.445389663382     1.575664259014     1.370174360701     1.007825032230
         H            4.716742663382    -0.090596740986     0.030282360701     1.007825032230
         H            0.075187663382     2.090454259014    -0.911650639299     1.007825032230
         H           -1.440110336618     2.761282259014    -1.098402639299     1.007825032230

  Basis Set: AUG-CC-PVTZ
    Blend: AUG-CC-PVTZ
  Basis Set: (AUG-CC-PVTZ AUX)
    Blend: AUG-CC-PVTZ-JKFIT
	 Reference Energy          =    -515.4511947918845181 [Eh]
	 Singles Energy            =      -0.0000000000000000 [Eh]
	 Same-Spin Energy          =      -0.5829659225037404 [Eh]
	 Opposite-Spin Energy      =      -1.8013101739579072 [Eh]
	 Correlation Energy        =      -2.3842760964616474 [Eh]
	 Total Energy              =    -517.8354708883462081 [Eh]

	 ================> DF-SCS-MP2 Energies <==================
	-----------------------------------------------------------
	 SCS Same-Spin Scale       =       0.3333333333333333 [-]
	 SCS Opposite-Spin Scale   =       1.2000000000000000 [-]
	 SCS Same-Spin Energy      =      -0.1943219741679134 [Eh]
	 SCS Opposite-Spin Energy  =      -2.1615722087494884 [Eh]
	 SCS Correlation Energy    =      -2.3558941829174018 [Eh]
	 SCS Total Energy          =    -517.8070889748018999 [Eh]
	-----------------------------------------------------------

  Dipole Moment: [D]
     X:     0.4439      Y:     0.5505      Z:    -1.1277     Total:     1.3311

*** Psi4 exiting successfully. Buy a developer a beer!
