                               Psi4 1.3.2 release

  ==> Input File <==

--------------------------------------------------------------------------
#psi4
#
memory 32 gb

molecule  {
0 1
  N       -0.8580750     2.1650740    -0.5094440
  C       -0.6634250    -0.2127650     0.0691530
  C        0.6159763    -0.1617467     0.0457188
  C       -1.4510140     0.9181800    -0.2423400
  C       -1.3025160    -1.4250040     0.3687340
  C        1.5441380    -1.0912920    -0.7082460
  C        1.5175140     0.8066950     0.7907500
  C       -2.8485400     0.8086890    -0.1980070
  C       -2.6918610    -1.5288690     0.3976690
  C       -3.4646370    -0.4031430     0.1053440
  C        2.9393010    -1.0716050    -0.7093040
  C        2.9130560     0.8267600     0.7846130
  C        3.6278980    -0.1122400     0.0369440
  H       -0.6848640    -2.2871190     0.6142040
  H        1.0058700    -1.8278860    -1.3015600
  H        0.9614050     1.5295600     1.3833290
  H       -3.4548610     1.6831510    -0.4309120
  H       -3.1654310    -2.4765660     0.6404150
  H       -4.5504850    -0.4615560     0.1267090
  H        3.4898150    -1.8022040    -1.2977600
  H        3.4438080     1.5707970     1.3744420
  H        4.7151610    -0.0954640     0.0345500
  H        0.0736060     2.0855870    -0.9073830
  H       -1.4416920     2.7564150    -1.0941350
units angstrom
no_reorient  #important for SAPT in psi4, default
symmetry c1  #important for SAPT in psi4, default
}

set PROPERTIES_ORIGIN ["COM"]
properties('MP2/aug-cc-pvtz', properties = ['dipole'])
--------------------------------------------------------------------------

    Molecular point group: c1
  Charge       = 0
  Multiplicity = 1
  Basis Set: AUG-CC-PVTZ
    Blend: AUG-CC-PVTZ
  Basis Set: (AUG-CC-PVTZ AUX)
    Blend: AUG-CC-PVTZ-JKFIT

    Orbital Energies [Eh]
    ---------------------

    Doubly Occupied:

       1A    -15.567800     2A    -11.286111     3A    -11.254958
       4A    -11.246487     5A    -11.245276     6A    -11.242331
       7A    -11.241624     8A    -11.237839     9A    -11.237058
      10A    -11.236132    11A    -11.230696    12A    -11.226651
      13A    -11.223927    14A     -1.233395    15A     -1.154137
      16A     -1.124918    17A     -1.075618    18A     -1.005479
      19A     -0.996580    20A     -0.963957    21A     -0.875274
      22A     -0.836148    23A     -0.804018    24A     -0.783007
      25A     -0.718124    26A     -0.692692    27A     -0.685539
      28A     -0.671307    29A     -0.623274    30A     -0.620359
      31A     -0.599565    32A     -0.596441    33A     -0.586236
      34A     -0.572478    35A     -0.541783    36A     -0.524893
      37A     -0.511792    38A     -0.501307    39A     -0.488087
      40A     -0.465210    41A     -0.447906    42A     -0.363845
      43A     -0.334873    44A     -0.314887    45A     -0.275875

  @DF-RHF Final Energy:  -515.38559708848481

   => Energetics <=

    Nuclear Repulsion Energy =            709.7426771247600072
    One-Electron Energy =               -2105.3247592549860201
    Two-Electron Energy =                 880.1964850417410844
    Total Energy =                       -515.3855970884848148
  Basis Set: (AUG-CC-PVTZ AUX)
    Blend: AUG-CC-PVTZ-RI
    Molecular point group: c1

    Geometry (in Angstrom), charge = 0, multiplicity = 1:

       Center              X                  Y                   Z               Mass
    ------------   -----------------  -----------------  -----------------  -----------------
         N           -0.841577181385     2.169559221489    -0.514729660862    14.003074004430
         C           -0.646927181385    -0.208279778511     0.063867339138    12.000000000000
         C            0.632474118615    -0.157261478511     0.040433139138    12.000000000000
         C           -1.434516181385     0.922665221489    -0.247625660862    12.000000000000
         C           -1.286018181385    -1.420518778511     0.363448339138    12.000000000000
         C            1.560635818615    -1.086806778511    -0.713531660862    12.000000000000
         C            1.534011818615     0.811180221489     0.785464339138    12.000000000000
         C           -2.832042181385     0.813174221489    -0.203292660862    12.000000000000
         C           -2.675363181385    -1.524383778511     0.392383339138    12.000000000000
         C           -3.448139181385    -0.398657778511     0.100058339138    12.000000000000
         C            2.955798818615    -1.067119778511    -0.714589660862    12.000000000000
         C            2.929553818615     0.831245221489     0.779327339138    12.000000000000
         C            3.644395818615    -0.107754778511     0.031658339138    12.000000000000
         H           -0.668366181385    -2.282633778511     0.608918339138     1.007825032230
         H            1.022367818615    -1.823400778511    -1.306845660862     1.007825032230
         H            0.977902818615     1.534045221489     1.378043339138     1.007825032230
         H           -3.438363181385     1.687636221489    -0.436197660862     1.007825032230
         H           -3.148933181385    -2.472080778511     0.635129339138     1.007825032230
         H           -4.533987181385    -0.457070778511     0.121423339138     1.007825032230
         H            3.506312818615    -1.797718778511    -1.303045660862     1.007825032230
         H            3.460305818615     1.575282221489     1.369156339138     1.007825032230
         H            4.731658818615    -0.090978778511     0.029264339138     1.007825032230
         H            0.090103818615     2.090072221489    -0.912668660862     1.007825032230
         H           -1.425194181385     2.760900221489    -1.099420660862     1.007825032230

  Basis Set: AUG-CC-PVTZ
    Blend: AUG-CC-PVTZ
  Basis Set: (AUG-CC-PVTZ AUX)
    Blend: AUG-CC-PVTZ-JKFIT
	 Reference Energy          =    -515.3855970884848148 [Eh]
	 Singles Energy            =      -0.0000000000000000 [Eh]
	 Same-Spin Energy          =      -0.5884601164217347 [Eh]
	 Opposite-Spin Energy      =      -1.8099109361639560 [Eh]
	 Correlation Energy        =      -2.3983710525856905 [Eh]
	 Total Energy              =    -517.7839681410705452 [Eh]

	 ================> DF-SCS-MP2 Energies <==================
	-----------------------------------------------------------
	 SCS Same-Spin Scale       =       0.3333333333333333 [-]
	 SCS Opposite-Spin Scale   =       1.2000000000000000 [-]
	 SCS Same-Spin Energy      =      -0.1961533721405782 [Eh]
	 SCS Opposite-Spin Energy  =      -2.1718931233967473 [Eh]
	 SCS Correlation Energy    =      -2.3680464955373255 [Eh]
	 SCS Total Energy          =    -517.7536435840221429 [Eh]
	-----------------------------------------------------------

  Dipole Moment: [D]
     X:     0.0230      Y:     0.5944      Z:    -1.1127     Total:     1.2618

*** Psi4 exiting successfully. Buy a developer a beer!
