                               Psi4 1.4a3.dev225

  ==> Input File <==

--------------------------------------------------------------------------
#psi4
#
memory 32 gb

molecule  {
0 1
  N       -0.8580750     2.1650740    -0.5094440
  C       -0.6634250    -0.2127650     0.0691530
  C        0.7958032    -0.1545758     0.0424250
  C       -1.4510140     0.9181800    -0.2423400
  C       -1.3025160    -1.4250040     0.3687340
  C        1.5441380    -1.0912920    -0.7082460
  C        1.5175140     0.8066950     0.7907500
  C       -2.8485400     0.8086890    -0.1980070
  C       -2.6918610    -1.5288690     0.3976690
  C       -3.4646370    -0.4031430     0.1053440
  C        2.9393010    -1.0716050    -0.7093040
  C        2.9130560     0.8267600     0.7846130
  C        3.6278980    -0.1122400     0.0369440
  H       -0.6848640    -2.2871190     0.6142040
  H        1.0058700    -1.8278860    -1.3015600
  H        0.9614050     1.5295600     1.3833290
  H       -3.4548610     1.6831510    -0.4309120
  H       -3.1654310    -2.4765660     0.6404150
  H       -4.5504850    -0.4615560     0.1267090
  H        3.4898150    -1.8022040    -1.2977600
  H        3.4438080     1.5707970     1.3744420
  H        4.7151610    -0.0954640     0.0345500
  H        0.0736060     2.0855870    -0.9073830
  H       -1.4416920     2.7564150    -1.0941350
units angstrom
no_reorient  #important for SAPT in psi4, default
symmetry c1  #important for SAPT in psi4, default
}

set PROPERTIES_ORIGIN ["COM"]
properties('MP2/aug-cc-pvtz', properties = ['dipole'])
--------------------------------------------------------------------------

    Molecular point group: c1
  Charge       = 0
  Multiplicity = 1
  Basis Set: AUG-CC-PVTZ
    Blend: AUG-CC-PVTZ
  Basis Set: (AUG-CC-PVTZ AUX)
    Blend: AUG-CC-PVTZ-JKFIT

    Orbital Energies [Eh]
    ---------------------

    Doubly Occupied:

       1A    -15.564754     2A    -11.280469     3A    -11.247398
       4A    -11.239173     5A    -11.238727     6A    -11.237719
       7A    -11.237365     8A    -11.237026     9A    -11.236908
      10A    -11.236355    11A    -11.234979    12A    -11.227360
      13A    -11.223361    14A     -1.225695    15A     -1.154891
      16A     -1.125945    17A     -1.053419    18A     -1.014019
      19A     -0.993988    20A     -0.973611    21A     -0.854376
      22A     -0.834477    23A     -0.810906    24A     -0.788898
      25A     -0.712373    26A     -0.686228    27A     -0.685663
      28A     -0.657447    29A     -0.624915    30A     -0.622377
      31A     -0.594641    32A     -0.593263    33A     -0.585157
      34A     -0.580040    35A     -0.537451    36A     -0.523458
      37A     -0.506265    38A     -0.499139    39A     -0.487299
      40A     -0.482503    41A     -0.449107    42A     -0.360880
      43A     -0.338312    44A     -0.317576    45A     -0.289451

  @DF-RHF Final Energy:  -515.45061384799942

   => Energetics <=

    Nuclear Repulsion Energy =            709.0920002535120830
    One-Electron Energy =               -2104.2744984393862069
    Two-Electron Energy =                 879.7318843378745896
    Total Energy =                       -515.4506138479994206
  Basis Set: (AUG-CC-PVTZ AUX)
    Blend: AUG-CC-PVTZ-RI
    Molecular point group: c1

    Geometry (in Angstrom), charge = 0, multiplicity = 1:

       Center              X                  Y                   Z               Mass
    ------------   -----------------  -----------------  -----------------  -----------------
         N           -0.854339223233     2.169050313612    -0.514495904881    14.003074004430
         C           -0.659689223233    -0.208788686388     0.064101095119    12.000000000000
         C            0.799538976767    -0.150599486388     0.037373095119    12.000000000000
         C           -1.447278223233     0.922156313612    -0.247391904881    12.000000000000
         C           -1.298780223233    -1.421027686388     0.363682095119    12.000000000000
         C            1.547873776767    -1.087315686388    -0.713297904881    12.000000000000
         C            1.521249776767     0.810671313612     0.785698095119    12.000000000000
         C           -2.844804223233     0.812665313612    -0.203058904881    12.000000000000
         C           -2.688125223233    -1.524892686388     0.392617095119    12.000000000000
         C           -3.460901223233    -0.399166686388     0.100292095119    12.000000000000
         C            2.943036776767    -1.067628686388    -0.714355904881    12.000000000000
         C            2.916791776767     0.830736313612     0.779561095119    12.000000000000
         C            3.631633776767    -0.108263686388     0.031892095119    12.000000000000
         H           -0.681128223233    -2.283142686388     0.609152095119     1.007825032230
         H            1.009605776767    -1.823909686388    -1.306611904881     1.007825032230
         H            0.965140776767     1.533536313612     1.378277095119     1.007825032230
         H           -3.451125223233     1.687127313612    -0.435963904881     1.007825032230
         H           -3.161695223233    -2.472589686388     0.635363095119     1.007825032230
         H           -4.546749223233    -0.457579686388     0.121657095119     1.007825032230
         H            3.493550776767    -1.798227686388    -1.302811904881     1.007825032230
         H            3.447543776767     1.574773313612     1.369390095119     1.007825032230
         H            4.718896776767    -0.091487686388     0.029498095119     1.007825032230
         H            0.077341776767     2.089563313612    -0.912434904881     1.007825032230
         H           -1.437956223233     2.760391313612    -1.099186904881     1.007825032230

  Basis Set: AUG-CC-PVTZ
    Blend: AUG-CC-PVTZ
  Basis Set: (AUG-CC-PVTZ AUX)
    Blend: AUG-CC-PVTZ-JKFIT
	 Reference Energy          =    -515.4506138479994206 [Eh]
	 Singles Energy            =      -0.0000000000000000 [Eh]
	 Same-Spin Energy          =      -0.5832647066927075 [Eh]
	 Opposite-Spin Energy      =      -1.8017194425403014 [Eh]
	 Correlation Energy        =      -2.3849841492330088 [Eh]
	 Total Energy              =    -517.8355979972324121 [Eh]

	 ================> DF-SCS-MP2 Energies <==================
	-----------------------------------------------------------
	 SCS Same-Spin Scale       =       0.3333333333333333 [-]
	 SCS Opposite-Spin Scale   =       1.2000000000000000 [-]
	 SCS Same-Spin Energy      =      -0.1944215688975691 [Eh]
	 SCS Opposite-Spin Energy  =      -2.1620633310483615 [Eh]
	 SCS Correlation Energy    =      -2.3564848999459307 [Eh]
	 SCS Total Energy          =    -517.8070987479453606 [Eh]
	-----------------------------------------------------------

  Dipole Moment: [D]
     X:     0.4163      Y:     0.5521      Z:    -1.1277     Total:     1.3228

*** Psi4 exiting successfully. Buy a developer a beer!
