                               Psi4 1.3.2 release

  ==> Input File <==

--------------------------------------------------------------------------
#psi4
#
memory 32 gb

molecule  {
0 1
  N       -0.9028697     2.1839418    -0.5162941
  C       -0.6634250    -0.2127650     0.0691530
  C        0.8157840    -0.1537790     0.0420590
  C       -1.4510140     0.9181800    -0.2423400
  C       -1.3025160    -1.4250040     0.3687340
  C        1.5441380    -1.0912920    -0.7082460
  C        1.5175140     0.8066950     0.7907500
  C       -2.8485400     0.8086890    -0.1980070
  C       -2.6918610    -1.5288690     0.3976690
  C       -3.4646370    -0.4031430     0.1053440
  C        2.9393010    -1.0716050    -0.7093040
  C        2.9130560     0.8267600     0.7846130
  C        3.6278980    -0.1122400     0.0369440
  H       -0.6848640    -2.2871190     0.6142040
  H        1.0058700    -1.8278860    -1.3015600
  H        0.9614050     1.5295600     1.3833290
  H       -3.4548610     1.6831510    -0.4309120
  H       -3.1654310    -2.4765660     0.6404150
  H       -4.5504850    -0.4615560     0.1267090
  H        3.4898150    -1.8022040    -1.2977600
  H        3.4438080     1.5707970     1.3744420
  H        4.7151610    -0.0954640     0.0345500
  H        0.0736060     2.0855870    -0.9073830
  H       -1.4416920     2.7564150    -1.0941350
units angstrom
no_reorient  #important for SAPT in psi4, default
symmetry c1  #important for SAPT in psi4, default
}

set PROPERTIES_ORIGIN ["COM"]
properties('MP2/aug-cc-pvtz', properties = ['dipole'])
--------------------------------------------------------------------------

    Molecular point group: c1
  Charge       = 0
  Multiplicity = 1
  Basis Set: AUG-CC-PVTZ
    Blend: AUG-CC-PVTZ
  Basis Set: (AUG-CC-PVTZ AUX)
    Blend: AUG-CC-PVTZ-JKFIT

    Orbital Energies [Eh]
    ---------------------

    Doubly Occupied:

       1A    -15.563980     2A    -11.280031     3A    -11.246981
       4A    -11.239555     5A    -11.239151     6A    -11.237437
       7A    -11.237405     8A    -11.237027     9A    -11.236408
      10A    -11.236197    11A    -11.235923    12A    -11.226002
      13A    -11.223010    14A     -1.225160    15A     -1.156969
      16A     -1.125694    17A     -1.051829    18A     -1.015586
      19A     -0.993590    20A     -0.974480    21A     -0.852076
      22A     -0.835848    23A     -0.812237    24A     -0.788865
      25A     -0.712604    26A     -0.691632    27A     -0.680851
      28A     -0.655256    29A     -0.626031    30A     -0.623249
      31A     -0.596915    32A     -0.588608    33A     -0.586578
      34A     -0.579320    35A     -0.537079    36A     -0.522439
      37A     -0.506916    38A     -0.500597    39A     -0.489848
      40A     -0.479123    41A     -0.448788    42A     -0.360715
      43A     -0.339122    44A     -0.317810    45A     -0.290445

  @DF-RHF Final Energy:  -515.44870069908541

   => Energetics <=

    Nuclear Repulsion Energy =            708.6487100170526219
    One-Electron Energy =               -2103.3840833822723653
    Two-Electron Energy =                 879.2866726661344501
    Total Energy =                       -515.4487006990854070
  Basis Set: (AUG-CC-PVTZ AUX)
    Blend: AUG-CC-PVTZ-RI
    Molecular point group: c1

    Geometry (in Angstrom), charge = 0, multiplicity = 1:

       Center              X                  Y                   Z               Mass
    ------------   -----------------  -----------------  -----------------  -----------------
         N           -0.896842268797     2.186299033969    -0.520752741164    14.003074004430
         C           -0.657397568797    -0.210407766031     0.064694358836    12.000000000000
         C            0.821811431203    -0.151421766031     0.037600358836    12.000000000000
         C           -1.444986568797     0.920537233969    -0.246798641164    12.000000000000
         C           -1.296488568797    -1.422646766031     0.364275358836    12.000000000000
         C            1.550165431203    -1.088934766031    -0.712704641164    12.000000000000
         C            1.523541431203     0.809052233969     0.786291358836    12.000000000000
         C           -2.842512568797     0.811046233969    -0.202465641164    12.000000000000
         C           -2.685833568797    -1.526511766031     0.393210358836    12.000000000000
         C           -3.458609568797    -0.400785766031     0.100885358836    12.000000000000
         C            2.945328431203    -1.069247766031    -0.713762641164    12.000000000000
         C            2.919083431203     0.829117233969     0.780154358836    12.000000000000
         C            3.633925431203    -0.109882766031     0.032485358836    12.000000000000
         H           -0.678836568797    -2.284761766031     0.609745358836     1.007825032230
         H            1.011897431203    -1.825528766031    -1.306018641164     1.007825032230
         H            0.967432431203     1.531917233969     1.378870358836     1.007825032230
         H           -3.448833568797     1.685508233969    -0.435370641164     1.007825032230
         H           -3.159403568797    -2.474208766031     0.635956358836     1.007825032230
         H           -4.544457568797    -0.459198766031     0.122250358836     1.007825032230
         H            3.495842431203    -1.799846766031    -1.302218641164     1.007825032230
         H            3.449835431203     1.573154233969     1.369983358836     1.007825032230
         H            4.721188431203    -0.093106766031     0.030091358836     1.007825032230
         H            0.079633431203     2.087944233969    -0.911841641164     1.007825032230
         H           -1.435664568797     2.758772233969    -1.098593641164     1.007825032230

  Basis Set: AUG-CC-PVTZ
    Blend: AUG-CC-PVTZ
  Basis Set: (AUG-CC-PVTZ AUX)
    Blend: AUG-CC-PVTZ-JKFIT
	 Reference Energy          =    -515.4487006990854070 [Eh]
	 Singles Energy            =      -0.0000000000000000 [Eh]
	 Same-Spin Energy          =      -0.5829375169478964 [Eh]
	 Opposite-Spin Energy      =      -1.8012663282738115 [Eh]
	 Correlation Energy        =      -2.3842038452217080 [Eh]
	 Total Energy              =    -517.8329045443070981 [Eh]

	 ================> DF-SCS-MP2 Energies <==================
	-----------------------------------------------------------
	 SCS Same-Spin Scale       =       0.3333333333333333 [-]
	 SCS Opposite-Spin Scale   =       1.2000000000000000 [-]
	 SCS Same-Spin Energy      =      -0.1943125056492988 [Eh]
	 SCS Opposite-Spin Energy  =      -2.1615195939285736 [Eh]
	 SCS Correlation Energy    =      -2.3558320995778725 [Eh]
	 SCS Total Energy          =    -517.8045327986633311 [Eh]
	-----------------------------------------------------------

  Dipole Moment: [D]
     X:     0.5065      Y:     0.5177      Z:    -1.1235     Total:     1.3367

*** Psi4 exiting successfully. Buy a developer a beer!
