                               Psi4 1.3.2 release

  ==> Input File <==

--------------------------------------------------------------------------
#psi4
#
memory 32 gb

molecule  {
0 1
  N       -0.8580750     2.1650740    -0.5094440
  C       -0.6229682    -0.1857240     0.0611349
  C        0.8157840    -0.1537790     0.0420590
  C       -1.4510140     0.9181800    -0.2423400
  C       -1.3025160    -1.4250040     0.3687340
  C        1.5441380    -1.0912920    -0.7082460
  C        1.5175140     0.8066950     0.7907500
  C       -2.8485400     0.8086890    -0.1980070
  C       -2.6918610    -1.5288690     0.3976690
  C       -3.4646370    -0.4031430     0.1053440
  C        2.9393010    -1.0716050    -0.7093040
  C        2.9130560     0.8267600     0.7846130
  C        3.6278980    -0.1122400     0.0369440
  H       -0.6848640    -2.2871190     0.6142040
  H        1.0058700    -1.8278860    -1.3015600
  H        0.9614050     1.5295600     1.3833290
  H       -3.4548610     1.6831510    -0.4309120
  H       -3.1654310    -2.4765660     0.6404150
  H       -4.5504850    -0.4615560     0.1267090
  H        3.4898150    -1.8022040    -1.2977600
  H        3.4438080     1.5707970     1.3744420
  H        4.7151610    -0.0954640     0.0345500
  H        0.0736060     2.0855870    -0.9073830
  H       -1.4416920     2.7564150    -1.0941350
units angstrom
no_reorient  #important for SAPT in psi4, default
symmetry c1  #important for SAPT in psi4, default
}

set PROPERTIES_ORIGIN ["COM"]
properties('MP2/aug-cc-pvtz', properties = ['dipole'])
--------------------------------------------------------------------------

    Molecular point group: c1
  Charge       = 0
  Multiplicity = 1
  Basis Set: AUG-CC-PVTZ
    Blend: AUG-CC-PVTZ
  Basis Set: (AUG-CC-PVTZ AUX)
    Blend: AUG-CC-PVTZ-JKFIT

    Orbital Energies [Eh]
    ---------------------

    Doubly Occupied:

       1A    -15.562728     2A    -11.280143     3A    -11.244554
       4A    -11.240891     5A    -11.239480     6A    -11.238901
       7A    -11.238069     8A    -11.237476     9A    -11.237124
      10A    -11.236643    11A    -11.235444    12A    -11.227921
      13A    -11.223688    14A     -1.224970    15A     -1.157595
      16A     -1.122099    17A     -1.055300    18A     -1.015576
      19A     -0.991828    20A     -0.972353    21A     -0.856802
      22A     -0.835324    23A     -0.810414    24A     -0.787512
      25A     -0.712908    26A     -0.685631    27A     -0.684677
      28A     -0.658226    29A     -0.626951    30A     -0.622881
      31A     -0.594799    32A     -0.592176    33A     -0.586947
      34A     -0.576451    35A     -0.536828    36A     -0.522943
      37A     -0.505623    38A     -0.500411    39A     -0.486995
      40A     -0.485785    41A     -0.446938    42A     -0.360731
      43A     -0.339038    44A     -0.315922    45A     -0.288563

  @DF-RHF Final Energy:  -515.44736734899698

   => Energetics <=

    Nuclear Repulsion Energy =            709.1627038041089008
    One-Electron Energy =               -2104.4116252453559355
    Two-Electron Energy =                 879.8015540922501714
    Total Energy =                       -515.4473673489969769
  Basis Set: (AUG-CC-PVTZ AUX)
    Blend: AUG-CC-PVTZ-RI
    Molecular point group: c1

    Geometry (in Angstrom), charge = 0, multiplicity = 1:

       Center              X                  Y                   Z               Mass
    ------------   -----------------  -----------------  -----------------  -----------------
         N           -0.858628387870     2.167074707246    -0.513900898043    14.003074004430
         C           -0.623521587870    -0.183723292754     0.056678001957    12.000000000000
         C            0.815230612130    -0.151778292754     0.037602101957    12.000000000000
         C           -1.451567387870     0.920180707246    -0.246796898043    12.000000000000
         C           -1.303069387870    -1.423003292754     0.364277101957    12.000000000000
         C            1.543584612130    -1.089291292754    -0.712702898043    12.000000000000
         C            1.516960612130     0.808695707246     0.786293101957    12.000000000000
         C           -2.849093387870     0.810689707246    -0.202463898043    12.000000000000
         C           -2.692414387870    -1.526868292754     0.393212101957    12.000000000000
         C           -3.465190387870    -0.401142292754     0.100887101957    12.000000000000
         C            2.938747612130    -1.069604292754    -0.713760898043    12.000000000000
         C            2.912502612130     0.828760707246     0.780156101957    12.000000000000
         C            3.627344612130    -0.110239292754     0.032487101957    12.000000000000
         H           -0.685417387870    -2.285118292754     0.609747101957     1.007825032230
         H            1.005316612130    -1.825885292754    -1.306016898043     1.007825032230
         H            0.960851612130     1.531560707246     1.378872101957     1.007825032230
         H           -3.455414387870     1.685151707246    -0.435368898043     1.007825032230
         H           -3.165984387870    -2.474565292754     0.635958101957     1.007825032230
         H           -4.551038387870    -0.459555292754     0.122252101957     1.007825032230
         H            3.489261612130    -1.800203292754    -1.302216898043     1.007825032230
         H            3.443254612130     1.572797707246     1.369985101957     1.007825032230
         H            4.714607612130    -0.093463292754     0.030093101957     1.007825032230
         H            0.073052612130     2.087587707246    -0.911839898043     1.007825032230
         H           -1.442245387870     2.758415707246    -1.098591898043     1.007825032230

  Basis Set: AUG-CC-PVTZ
    Blend: AUG-CC-PVTZ
  Basis Set: (AUG-CC-PVTZ AUX)
    Blend: AUG-CC-PVTZ-JKFIT
	 Reference Energy          =    -515.4473673489969769 [Eh]
	 Singles Energy            =      -0.0000000000000000 [Eh]
	 Same-Spin Energy          =      -0.5835751462886443 [Eh]
	 Opposite-Spin Energy      =      -1.8023163974458845 [Eh]
	 Correlation Energy        =      -2.3858915437345285 [Eh]
	 Total Energy              =    -517.8332588927314646 [Eh]

	 ================> DF-SCS-MP2 Energies <==================
	-----------------------------------------------------------
	 SCS Same-Spin Scale       =       0.3333333333333333 [-]
	 SCS Opposite-Spin Scale   =       1.2000000000000000 [-]
	 SCS Same-Spin Energy      =      -0.1945250487628814 [Eh]
	 SCS Opposite-Spin Energy  =      -2.1627796769350613 [Eh]
	 SCS Correlation Energy    =      -2.3573047256979427 [Eh]
	 SCS Total Energy          =    -517.8046720746949632 [Eh]
	-----------------------------------------------------------

  Dipole Moment: [D]
     X:     0.4628      Y:     0.5379      Z:    -1.1264     Total:     1.3313

*** Psi4 exiting successfully. Buy a developer a beer!
