                               Psi4 1.3.2 release

  ==> Input File <==

--------------------------------------------------------------------------
#psi4
#
memory 32 gb

molecule  {
0 1
  N       -0.8580750     2.1650740    -0.5094440
  C       -0.6634250    -0.2127650     0.0691530
  C        0.8157840    -0.1537790     0.0420590
  C       -1.4510140     0.9181800    -0.2423400
  C       -1.3025160    -1.4250040     0.3687340
  C        1.5441380    -1.0912920    -0.7082460
  C        1.5175140     0.8066950     0.7907500
  C       -2.8485400     0.8086890    -0.1980070
  C       -2.6918610    -1.5288690     0.3976690
  C       -3.4646370    -0.4031430     0.1053440
  C        2.9393010    -1.0716050    -0.7093040
  C        2.9130560     0.8267600     0.7846130
  C        3.6278980    -0.1122400     0.0369440
  H       -0.6848640    -2.2871190     0.6142040
  H        1.0058700    -1.8278860    -1.3015600
  H        0.9614050     1.5295600     1.3833290
  H       -3.4548610     1.6831510    -0.4309120
  H       -3.1654310    -2.4765660     0.6404150
  H       -4.5504850    -0.4615560     0.1267090
  H        3.4898150    -1.8022040    -1.2977600
  H        3.4438080     1.5707970     1.3744420
  H        4.7151610    -0.0954640     0.0345500
  H        0.0736060     2.0855870    -0.9073830
  H       -1.4416920     2.7564150    -1.0941350
units angstrom
no_reorient  #important for SAPT in psi4, default
symmetry c1  #important for SAPT in psi4, default
}

set PROPERTIES_ORIGIN ["COM"]
properties('MP2/aug-cc-pvtz', properties = ['dipole'])
--------------------------------------------------------------------------

    Molecular point group: c1
  Charge       = 0
  Multiplicity = 1
  Basis Set: AUG-CC-PVTZ
    Blend: AUG-CC-PVTZ
  Basis Set: (AUG-CC-PVTZ AUX)
    Blend: AUG-CC-PVTZ-JKFIT

    Orbital Energies [Eh]
    ---------------------

    Doubly Occupied:

       1A    -15.564494     2A    -11.279992     3A    -11.246552
       4A    -11.239189     5A    -11.238763     6A    -11.237104
       7A    -11.236919     8A    -11.236757     9A    -11.236713
      10A    -11.235554    11A    -11.235443    12A    -11.227057
      13A    -11.223068    14A     -1.225099    15A     -1.156231
      16A     -1.125650    17A     -1.051520    18A     -1.015184
      19A     -0.993919    20A     -0.974146    21A     -0.852367
      22A     -0.834790    23A     -0.811279    24A     -0.789388
      25A     -0.712152    26A     -0.685782    27A     -0.685445
      28A     -0.655809    29A     -0.625705    30A     -0.622554
      31A     -0.594292    32A     -0.592773    33A     -0.586284
      34A     -0.579311    35A     -0.537107    36A     -0.523222
      37A     -0.506143    38A     -0.500562    39A     -0.489275
      40A     -0.479605    41A     -0.448849    42A     -0.360477
      43A     -0.338741    44A     -0.318184    45A     -0.290155

  @DF-RHF Final Energy:  -515.45181218782238

   => Energetics <=

    Nuclear Repulsion Energy =            709.0628611454725387
    One-Electron Energy =               -2104.2301393352286141
    Two-Electron Energy =                 879.7154660019335779
    Total Energy =                       -515.4518121878223837
  Basis Set: (AUG-CC-PVTZ AUX)
    Blend: AUG-CC-PVTZ-RI
    Molecular point group: c1

    Geometry (in Angstrom), charge = 0, multiplicity = 1:

       Center              X                  Y                   Z               Mass
    ------------   -----------------  -----------------  -----------------  -----------------
         N           -0.855757230248     2.168993765927    -0.514469930417    14.003074004430
         C           -0.661107230248    -0.208845234073     0.064127069583    12.000000000000
         C            0.818101769752    -0.149859234073     0.037033069583    12.000000000000
         C           -1.448696230248     0.922099765927    -0.247365930417    12.000000000000
         C           -1.300198230248    -1.421084234073     0.363708069583    12.000000000000
         C            1.546455769752    -1.087372234073    -0.713271930417    12.000000000000
         C            1.519831769752     0.810614765927     0.785724069583    12.000000000000
         C           -2.846222230248     0.812608765927    -0.203032930417    12.000000000000
         C           -2.689543230248    -1.524949234073     0.392643069583    12.000000000000
         C           -3.462319230248    -0.399223234073     0.100318069583    12.000000000000
         C            2.941618769752    -1.067685234073    -0.714329930417    12.000000000000
         C            2.915373769752     0.830679765927     0.779587069583    12.000000000000
         C            3.630215769752    -0.108320234073     0.031918069583    12.000000000000
         H           -0.682546230248    -2.283199234073     0.609178069583     1.007825032230
         H            1.008187769752    -1.823966234073    -1.306585930417     1.007825032230
         H            0.963722769752     1.533479765927     1.378303069583     1.007825032230
         H           -3.452543230248     1.687070765927    -0.435937930417     1.007825032230
         H           -3.163113230248    -2.472646234073     0.635389069583     1.007825032230
         H           -4.548167230248    -0.457636234073     0.121683069583     1.007825032230
         H            3.492132769752    -1.798284234073    -1.302785930417     1.007825032230
         H            3.446125769752     1.574716765927     1.369416069583     1.007825032230
         H            4.717478769752    -0.091544234073     0.029524069583     1.007825032230
         H            0.075923769752     2.089506765927    -0.912408930417     1.007825032230
         H           -1.439374230248     2.760334765927    -1.099160930417     1.007825032230

  Basis Set: AUG-CC-PVTZ
    Blend: AUG-CC-PVTZ
  Basis Set: (AUG-CC-PVTZ AUX)
    Blend: AUG-CC-PVTZ-JKFIT
	 Reference Energy          =    -515.4518121878223837 [Eh]
	 Singles Energy            =      -0.0000000000000000 [Eh]
	 Same-Spin Energy          =      -0.5829599793034296 [Eh]
	 Opposite-Spin Energy      =      -1.8012499219079356 [Eh]
	 Correlation Energy        =      -2.3842099012113653 [Eh]
	 Total Energy              =    -517.8360220890338041 [Eh]

	 ================> DF-SCS-MP2 Energies <==================
	-----------------------------------------------------------
	 SCS Same-Spin Scale       =       0.3333333333333333 [-]
	 SCS Opposite-Spin Scale   =       1.2000000000000000 [-]
	 SCS Same-Spin Energy      =      -0.1943199931011432 [Eh]
	 SCS Opposite-Spin Energy  =      -2.1614999062895226 [Eh]
	 SCS Correlation Energy    =      -2.3558198993906658 [Eh]
	 SCS Total Energy          =    -517.8076320872130509 [Eh]
	-----------------------------------------------------------

  Dipole Moment: [D]
     X:     0.4524      Y:     0.5490      Z:    -1.1292     Total:     1.3346

*** Psi4 exiting successfully. Buy a developer a beer!
