                               Psi4 1.3.2 release

  ==> Input File <==

--------------------------------------------------------------------------
#psi4
#
memory 32 gb

molecule  {
0 1
  N       -0.8580750     2.1650740    -0.5094440
  C       -0.6585053    -0.0894683     0.1629225
  C        0.8157840    -0.1537790     0.0420590
  C       -1.4510140     0.9181800    -0.2423400
  C       -1.3025160    -1.4250040     0.3687340
  C        1.5441380    -1.0912920    -0.7082460
  C        1.5175140     0.8066950     0.7907500
  C       -2.8485400     0.8086890    -0.1980070
  C       -2.6918610    -1.5288690     0.3976690
  C       -3.4646370    -0.4031430     0.1053440
  C        2.9393010    -1.0716050    -0.7093040
  C        2.9130560     0.8267600     0.7846130
  C        3.6278980    -0.1122400     0.0369440
  H       -0.6848640    -2.2871190     0.6142040
  H        1.0058700    -1.8278860    -1.3015600
  H        0.9614050     1.5295600     1.3833290
  H       -3.4548610     1.6831510    -0.4309120
  H       -3.1654310    -2.4765660     0.6404150
  H       -4.5504850    -0.4615560     0.1267090
  H        3.4898150    -1.8022040    -1.2977600
  H        3.4438080     1.5707970     1.3744420
  H        4.7151610    -0.0954640     0.0345500
  H        0.0736060     2.0855870    -0.9073830
  H       -1.4416920     2.7564150    -1.0941350
units angstrom
no_reorient  #important for SAPT in psi4, default
symmetry c1  #important for SAPT in psi4, default
}

set PROPERTIES_ORIGIN ["COM"]
properties('MP2/aug-cc-pvtz', properties = ['dipole'])
--------------------------------------------------------------------------

    Molecular point group: c1
  Charge       = 0
  Multiplicity = 1
  Basis Set: AUG-CC-PVTZ
    Blend: AUG-CC-PVTZ
  Basis Set: (AUG-CC-PVTZ AUX)
    Blend: AUG-CC-PVTZ-JKFIT

    Orbital Energies [Eh]
    ---------------------

    Doubly Occupied:

       1A    -15.560306     2A    -11.271925     3A    -11.246779
       4A    -11.245233     5A    -11.239858     6A    -11.239243
       7A    -11.238588     8A    -11.237335     9A    -11.236136
      10A    -11.234987    11A    -11.232267    12A    -11.230439
      13A    -11.225387    14A     -1.227778    15A     -1.154584
      16A     -1.122105    17A     -1.050390    18A     -1.014654
      19A     -0.992586    20A     -0.976778    21A     -0.855508
      22A     -0.833127    23A     -0.815495    24A     -0.783952
      25A     -0.711211    26A     -0.686775    27A     -0.682163
      28A     -0.654963    29A     -0.625689    30A     -0.623787
      31A     -0.596253    32A     -0.593547    33A     -0.586302
      34A     -0.570368    35A     -0.540231    36A     -0.523138
      37A     -0.507234    38A     -0.498547    39A     -0.492801
      40A     -0.471598    41A     -0.446137    42A     -0.357259
      43A     -0.338244    44A     -0.314949    45A     -0.296050

  @DF-RHF Final Energy:  -515.43402686747947

   => Energetics <=

    Nuclear Repulsion Energy =            709.1636814592455949
    One-Electron Energy =               -2104.4300459375995160
    Two-Electron Energy =                 879.8323376108743332
    Total Energy =                       -515.4340268674794743
  Basis Set: (AUG-CC-PVTZ AUX)
    Blend: AUG-CC-PVTZ-RI
    Molecular point group: c1

    Geometry (in Angstrom), charge = 0, multiplicity = 1:

       Center              X                  Y                   Z               Mass
    ------------   -----------------  -----------------  -----------------  -----------------
         N           -0.856106373881     2.160243586477    -0.521124609350    14.003074004430
         C           -0.656536673881    -0.094298713523     0.151241890650    12.000000000000
         C            0.817752626119    -0.158609413523     0.030378390650    12.000000000000
         C           -1.449045373881     0.913349586477    -0.254020609350    12.000000000000
         C           -1.300547373881    -1.429834413523     0.357053390650    12.000000000000
         C            1.546106626119    -1.096122413523    -0.719926609350    12.000000000000
         C            1.519482626119     0.801864586477     0.779069390650    12.000000000000
         C           -2.846571373881     0.803858586477    -0.209687609350    12.000000000000
         C           -2.689892373881    -1.533699413523     0.385988390650    12.000000000000
         C           -3.462668373881    -0.407973413523     0.093663390650    12.000000000000
         C            2.941269626119    -1.076435413523    -0.720984609350    12.000000000000
         C            2.915024626119     0.821929586477     0.772932390650    12.000000000000
         C            3.629866626119    -0.117070413523     0.025263390650    12.000000000000
         H           -0.682895373881    -2.291949413523     0.602523390650     1.007825032230
         H            1.007838626119    -1.832716413523    -1.313240609350     1.007825032230
         H            0.963373626119     1.524729586477     1.371648390650     1.007825032230
         H           -3.452892373881     1.678320586477    -0.442592609350     1.007825032230
         H           -3.163462373881    -2.481396413523     0.628734390650     1.007825032230
         H           -4.548516373881    -0.466386413523     0.115028390650     1.007825032230
         H            3.491783626119    -1.807034413523    -1.309440609350     1.007825032230
         H            3.445776626119     1.565966586477     1.362761390650     1.007825032230
         H            4.717129626119    -0.100294413523     0.022869390650     1.007825032230
         H            0.075574626119     2.080756586477    -0.919063609350     1.007825032230
         H           -1.439723373881     2.751584586477    -1.105815609350     1.007825032230

  Basis Set: AUG-CC-PVTZ
    Blend: AUG-CC-PVTZ
  Basis Set: (AUG-CC-PVTZ AUX)
    Blend: AUG-CC-PVTZ-JKFIT
	 Reference Energy          =    -515.4340268674794743 [Eh]
	 Singles Energy            =      -0.0000000000000000 [Eh]
	 Same-Spin Energy          =      -0.5831125358058050 [Eh]
	 Opposite-Spin Energy      =      -1.8029339856976512 [Eh]
	 Correlation Energy        =      -2.3860465215034563 [Eh]
	 Total Energy              =    -517.8200733889829053 [Eh]

	 ================> DF-SCS-MP2 Energies <==================
	-----------------------------------------------------------
	 SCS Same-Spin Scale       =       0.3333333333333333 [-]
	 SCS Opposite-Spin Scale   =       1.2000000000000000 [-]
	 SCS Same-Spin Energy      =      -0.1943708452686017 [Eh]
	 SCS Opposite-Spin Energy  =      -2.1635207828371814 [Eh]
	 SCS Correlation Energy    =      -2.3578916281057829 [Eh]
	 SCS Total Energy          =    -517.7919184955852643 [Eh]
	-----------------------------------------------------------

  Dipole Moment: [D]
     X:     0.3161      Y:     0.4420      Z:    -1.1427     Total:     1.2654

*** Psi4 exiting successfully. Buy a developer a beer!
