                               Psi4 1.3.2 release

  ==> Input File <==

--------------------------------------------------------------------------
#psi4
#
memory 32 gb

molecule  {
0 1
  N       -0.8580750     2.1650740    -0.5094440
  C       -0.6635868    -0.1716712     0.1004934
  C        0.8157840    -0.1537790     0.0420590
  C       -1.4510140     0.9181800    -0.2423400
  C       -1.3025160    -1.4250040     0.3687340
  C        1.5441380    -1.0912920    -0.7082460
  C        1.5175140     0.8066950     0.7907500
  C       -2.8485400     0.8086890    -0.1980070
  C       -2.6918610    -1.5288690     0.3976690
  C       -3.4646370    -0.4031430     0.1053440
  C        2.9393010    -1.0716050    -0.7093040
  C        2.9130560     0.8267600     0.7846130
  C        3.6278980    -0.1122400     0.0369440
  H       -0.6848640    -2.2871190     0.6142040
  H        1.0058700    -1.8278860    -1.3015600
  H        0.9614050     1.5295600     1.3833290
  H       -3.4548610     1.6831510    -0.4309120
  H       -3.1654310    -2.4765660     0.6404150
  H       -4.5504850    -0.4615560     0.1267090
  H        3.4898150    -1.8022040    -1.2977600
  H        3.4438080     1.5707970     1.3744420
  H        4.7151610    -0.0954640     0.0345500
  H        0.0736060     2.0855870    -0.9073830
  H       -1.4416920     2.7564150    -1.0941350
units angstrom
no_reorient  #important for SAPT in psi4, default
symmetry c1  #important for SAPT in psi4, default
}

set PROPERTIES_ORIGIN ["COM"]
properties('MP2/aug-cc-pvtz', properties = ['dipole'])
--------------------------------------------------------------------------

    Molecular point group: c1
  Charge       = 0
  Multiplicity = 1
  Basis Set: AUG-CC-PVTZ
    Blend: AUG-CC-PVTZ
  Basis Set: (AUG-CC-PVTZ AUX)
    Blend: AUG-CC-PVTZ-JKFIT

    Orbital Energies [Eh]
    ---------------------

    Doubly Occupied:

       1A    -15.563037     2A    -11.277022     3A    -11.246521
       4A    -11.239374     5A    -11.239341     6A    -11.238324
       7A    -11.237477     8A    -11.237467     9A    -11.236741
      10A    -11.235460    11A    -11.234393    12A    -11.228279
      13A    -11.223910    14A     -1.225885    15A     -1.155615
      16A     -1.124488    17A     -1.051002    18A     -1.015023
      19A     -0.992987    20A     -0.975584    21A     -0.853312
      22A     -0.834406    23A     -0.812618    24A     -0.787869
      25A     -0.711920    26A     -0.685831    27A     -0.684574
      28A     -0.655388    29A     -0.625597    30A     -0.622989
      31A     -0.595197    32A     -0.592925    33A     -0.586407
      34A     -0.576555    35A     -0.538204    36A     -0.523222
      37A     -0.506386    38A     -0.499966    39A     -0.489108
      40A     -0.479821    41A     -0.447913    42A     -0.359200
      43A     -0.338573    44A     -0.317035    45A     -0.292256

  @DF-RHF Final Energy:  -515.44959141446861

   => Energetics <=

    Nuclear Repulsion Energy =            709.1287234426339410
    One-Electron Energy =               -2104.3662311968364520
    Two-Electron Energy =                 879.7879163397337834
    Total Energy =                       -515.4495914144686139
  Basis Set: (AUG-CC-PVTZ AUX)
    Blend: AUG-CC-PVTZ-RI
    Molecular point group: c1

    Geometry (in Angstrom), charge = 0, multiplicity = 1:

       Center              X                  Y                   Z               Mass
    ------------   -----------------  -----------------  -----------------  -----------------
         N           -0.855745747548     2.166077401383    -0.516694110983    14.003074004430
         C           -0.661257547548    -0.170667798617     0.093243289017    12.000000000000
         C            0.818113252452    -0.152775598617     0.034808889017    12.000000000000
         C           -1.448684747548     0.919183401383    -0.249590110983    12.000000000000
         C           -1.300186747548    -1.424000598617     0.361483889017    12.000000000000
         C            1.546467252452    -1.090288598617    -0.715496110983    12.000000000000
         C            1.519843252452     0.807698401383     0.783499889017    12.000000000000
         C           -2.846210747548     0.809692401383    -0.205257110983    12.000000000000
         C           -2.689531747548    -1.527865598617     0.390418889017    12.000000000000
         C           -3.462307747548    -0.402139598617     0.098093889017    12.000000000000
         C            2.941630252452    -1.070601598617    -0.716554110983    12.000000000000
         C            2.915385252452     0.827763401383     0.777362889017    12.000000000000
         C            3.630227252452    -0.111236598617     0.029693889017    12.000000000000
         H           -0.682534747548    -2.286115598617     0.606953889017     1.007825032230
         H            1.008199252452    -1.826882598617    -1.308810110983     1.007825032230
         H            0.963734252452     1.530563401383     1.376078889017     1.007825032230
         H           -3.452531747548     1.684154401383    -0.438162110983     1.007825032230
         H           -3.163101747548    -2.475562598617     0.633164889017     1.007825032230
         H           -4.548155747548    -0.460552598617     0.119458889017     1.007825032230
         H            3.492144252452    -1.801200598617    -1.305010110983     1.007825032230
         H            3.446137252452     1.571800401383     1.367191889017     1.007825032230
         H            4.717490252452    -0.094460598617     0.027299889017     1.007825032230
         H            0.075935252452     2.086590401383    -0.914633110983     1.007825032230
         H           -1.439362747548     2.757418401383    -1.101385110983     1.007825032230

  Basis Set: AUG-CC-PVTZ
    Blend: AUG-CC-PVTZ
  Basis Set: (AUG-CC-PVTZ AUX)
    Blend: AUG-CC-PVTZ-JKFIT
	 Reference Energy          =    -515.4495914144686139 [Eh]
	 Singles Energy            =      -0.0000000000000000 [Eh]
	 Same-Spin Energy          =      -0.5829829666957826 [Eh]
	 Opposite-Spin Energy      =      -1.8015267703722664 [Eh]
	 Correlation Energy        =      -2.3845097370680488 [Eh]
	 Total Energy              =    -517.8341011515366290 [Eh]

	 ================> DF-SCS-MP2 Energies <==================
	-----------------------------------------------------------
	 SCS Same-Spin Scale       =       0.3333333333333333 [-]
	 SCS Opposite-Spin Scale   =       1.2000000000000000 [-]
	 SCS Same-Spin Energy      =      -0.1943276555652609 [Eh]
	 SCS Opposite-Spin Energy  =      -2.1618321244467196 [Eh]
	 SCS Correlation Energy    =      -2.3561597800119802 [Eh]
	 SCS Total Energy          =    -517.8057511944806492 [Eh]
	-----------------------------------------------------------

  Dipole Moment: [D]
     X:     0.4124      Y:     0.5133      Z:    -1.1335     Total:     1.3109

*** Psi4 exiting successfully. Buy a developer a beer!
