                               Psi4 1.3.2 release

  ==> Input File <==

--------------------------------------------------------------------------
#psi4
#
memory 32 gb

molecule  {
0 1
  N       -0.8580750     2.1650740    -0.5094440
  C       -0.6634250    -0.2127650     0.0691530
  C        0.8157840    -0.1537790     0.0420590
  C       -1.4931772     0.8295148    -0.2233465
  C       -1.3025160    -1.4250040     0.3687340
  C        1.5441380    -1.0912920    -0.7082460
  C        1.5175140     0.8066950     0.7907500
  C       -2.8485400     0.8086890    -0.1980070
  C       -2.6918610    -1.5288690     0.3976690
  C       -3.4646370    -0.4031430     0.1053440
  C        2.9393010    -1.0716050    -0.7093040
  C        2.9130560     0.8267600     0.7846130
  C        3.6278980    -0.1122400     0.0369440
  H       -0.6848640    -2.2871190     0.6142040
  H        1.0058700    -1.8278860    -1.3015600
  H        0.9614050     1.5295600     1.3833290
  H       -3.4548610     1.6831510    -0.4309120
  H       -3.1654310    -2.4765660     0.6404150
  H       -4.5504850    -0.4615560     0.1267090
  H        3.4898150    -1.8022040    -1.2977600
  H        3.4438080     1.5707970     1.3744420
  H        4.7151610    -0.0954640     0.0345500
  H        0.0736060     2.0855870    -0.9073830
  H       -1.4416920     2.7564150    -1.0941350
units angstrom
no_reorient  #important for SAPT in psi4, default
symmetry c1  #important for SAPT in psi4, default
}

set PROPERTIES_ORIGIN ["COM"]
properties('MP2/aug-cc-pvtz', properties = ['dipole'])
--------------------------------------------------------------------------

    Molecular point group: c1
  Charge       = 0
  Multiplicity = 1
  Basis Set: AUG-CC-PVTZ
    Blend: AUG-CC-PVTZ
  Basis Set: (AUG-CC-PVTZ AUX)
    Blend: AUG-CC-PVTZ-JKFIT

    Orbital Energies [Eh]
    ---------------------

    Doubly Occupied:

       1A    -15.553512     2A    -11.272733     3A    -11.249109
       4A    -11.239973     5A    -11.239201     6A    -11.239001
       7A    -11.238497     8A    -11.238481     9A    -11.237797
      10A    -11.236171    11A    -11.235490    12A    -11.227386
      13A    -11.226747    14A     -1.204798    15A     -1.153378
      16A     -1.125572    17A     -1.055967    18A     -1.015834
      19A     -1.000083    20A     -0.981448    21A     -0.855595
      22A     -0.836204    23A     -0.813961    24A     -0.791036
      25A     -0.714055    26A     -0.682168    27A     -0.674154
      28A     -0.649464    29A     -0.625654    30A     -0.619993
      31A     -0.602423    32A     -0.589300    33A     -0.585137
      34A     -0.580457    35A     -0.536364    36A     -0.522859
      37A     -0.505254    38A     -0.499998    39A     -0.490816
      40A     -0.484783    41A     -0.436197    42A     -0.362634
      43A     -0.339147    44A     -0.322809    45A     -0.301006

  @DF-RHF Final Energy:  -515.44146366389680

   => Energetics <=

    Nuclear Repulsion Energy =            709.6109871996753782
    One-Electron Energy =               -2105.3196083032116803
    Two-Electron Energy =                 880.2671574396393908
    Total Energy =                       -515.4414636638967977
  Basis Set: (AUG-CC-PVTZ AUX)
    Blend: AUG-CC-PVTZ-RI
    Molecular point group: c1

    Geometry (in Angstrom), charge = 0, multiplicity = 1:

       Center              X                  Y                   Z               Mass
    ------------   -----------------  -----------------  -----------------  -----------------
         N           -0.852764972011     2.175286200445    -0.515817870251    14.003074004430
         C           -0.658114972011    -0.202552799555     0.062779129749    12.000000000000
         C            0.821094027989    -0.143566799555     0.035685129749    12.000000000000
         C           -1.487867172011     0.839727000445    -0.229720370251    12.000000000000
         C           -1.297205972011    -1.414791799555     0.362360129749    12.000000000000
         C            1.549448027989    -1.081079799555    -0.714619870251    12.000000000000
         C            1.522824027989     0.816907200445     0.784376129749    12.000000000000
         C           -2.843229972011     0.818901200445    -0.204380870251    12.000000000000
         C           -2.686550972011    -1.518656799555     0.391295129749    12.000000000000
         C           -3.459326972011    -0.392930799555     0.098970129749    12.000000000000
         C            2.944611027989    -1.061392799555    -0.715677870251    12.000000000000
         C            2.918366027989     0.836972200445     0.778239129749    12.000000000000
         C            3.633208027989    -0.102027799555     0.030570129749    12.000000000000
         H           -0.679553972011    -2.276906799555     0.607830129749     1.007825032230
         H            1.011180027989    -1.817673799555    -1.307933870251     1.007825032230
         H            0.966715027989     1.539772200445     1.376955129749     1.007825032230
         H           -3.449550972011     1.693363200445    -0.437285870251     1.007825032230
         H           -3.160120972011    -2.466353799555     0.634041129749     1.007825032230
         H           -4.545174972011    -0.451343799555     0.120335129749     1.007825032230
         H            3.495125027989    -1.791991799555    -1.304133870251     1.007825032230
         H            3.449118027989     1.581009200445     1.368068129749     1.007825032230
         H            4.720471027989    -0.085251799555     0.028176129749     1.007825032230
         H            0.078916027989     2.095799200445    -0.913756870251     1.007825032230
         H           -1.436381972011     2.766627200445    -1.100508870251     1.007825032230

  Basis Set: AUG-CC-PVTZ
    Blend: AUG-CC-PVTZ
  Basis Set: (AUG-CC-PVTZ AUX)
    Blend: AUG-CC-PVTZ-JKFIT
	 Reference Energy          =    -515.4414636638967977 [Eh]
	 Singles Energy            =      -0.0000000000000000 [Eh]
	 Same-Spin Energy          =      -0.5825085423962129 [Eh]
	 Opposite-Spin Energy      =      -1.8013971060051577 [Eh]
	 Correlation Energy        =      -2.3839056484013703 [Eh]
	 Total Energy              =    -517.8253693122982213 [Eh]

	 ================> DF-SCS-MP2 Energies <==================
	-----------------------------------------------------------
	 SCS Same-Spin Scale       =       0.3333333333333333 [-]
	 SCS Opposite-Spin Scale   =       1.2000000000000000 [-]
	 SCS Same-Spin Energy      =      -0.1941695141320710 [Eh]
	 SCS Opposite-Spin Energy  =      -2.1616765272061893 [Eh]
	 SCS Correlation Energy    =      -2.3558460413382605 [Eh]
	 SCS Total Energy          =    -517.7973097052350795 [Eh]
	-----------------------------------------------------------

  Dipole Moment: [D]
     X:     0.2644      Y:     0.0637      Z:    -0.9940     Total:     1.0305

*** Psi4 exiting successfully. Buy a developer a beer!
