                               Psi4 1.3.2 release

  ==> Input File <==

--------------------------------------------------------------------------
#psi4
#
memory 32 gb

molecule  {
0 1
  N       -0.8580750     2.1650740    -0.5094440
  C       -0.6634250    -0.2127650     0.0691530
  C        0.8157840    -0.1537790     0.0420590
  C       -1.3694287     0.8758633    -0.2768093
  C       -1.3025160    -1.4250040     0.3687340
  C        1.5441380    -1.0912920    -0.7082460
  C        1.5175140     0.8066950     0.7907500
  C       -2.8485400     0.8086890    -0.1980070
  C       -2.6918610    -1.5288690     0.3976690
  C       -3.4646370    -0.4031430     0.1053440
  C        2.9393010    -1.0716050    -0.7093040
  C        2.9130560     0.8267600     0.7846130
  C        3.6278980    -0.1122400     0.0369440
  H       -0.6848640    -2.2871190     0.6142040
  H        1.0058700    -1.8278860    -1.3015600
  H        0.9614050     1.5295600     1.3833290
  H       -3.4548610     1.6831510    -0.4309120
  H       -3.1654310    -2.4765660     0.6404150
  H       -4.5504850    -0.4615560     0.1267090
  H        3.4898150    -1.8022040    -1.2977600
  H        3.4438080     1.5707970     1.3744420
  H        4.7151610    -0.0954640     0.0345500
  H        0.0736060     2.0855870    -0.9073830
  H       -1.4416920     2.7564150    -1.0941350
units angstrom
no_reorient  #important for SAPT in psi4, default
symmetry c1  #important for SAPT in psi4, default
}

set PROPERTIES_ORIGIN ["COM"]
properties('MP2/aug-cc-pvtz', properties = ['dipole'])
--------------------------------------------------------------------------

    Molecular point group: c1
  Charge       = 0
  Multiplicity = 1
  Basis Set: AUG-CC-PVTZ
    Blend: AUG-CC-PVTZ
  Basis Set: (AUG-CC-PVTZ AUX)
    Blend: AUG-CC-PVTZ-JKFIT

    Orbital Energies [Eh]
    ---------------------

    Doubly Occupied:

       1A    -15.565567     2A    -11.279184     3A    -11.245101
       4A    -11.238854     5A    -11.238446     6A    -11.237275
       7A    -11.236620     8A    -11.236342     9A    -11.236130
      10A    -11.234990    11A    -11.234926    12A    -11.227744
      13A    -11.224075    14A     -1.226809    15A     -1.156425
      16A     -1.126059    17A     -1.053058    18A     -1.014834
      19A     -0.986992    20A     -0.978815    21A     -0.849470
      22A     -0.837007    23A     -0.815674    24A     -0.784586
      25A     -0.712053    26A     -0.687345    27A     -0.682425
      28A     -0.657562    29A     -0.627463    30A     -0.625453
      31A     -0.599626    32A     -0.586570    33A     -0.582836
      34A     -0.577456    35A     -0.537198    36A     -0.519645
      37A     -0.510308    38A     -0.500217    39A     -0.491314
      40A     -0.472518    41A     -0.449501    42A     -0.361006
      43A     -0.338387    44A     -0.316001    45A     -0.293180

  @DF-RHF Final Energy:  -515.44117775304619

   => Energetics <=

    Nuclear Repulsion Energy =            709.7282299448853564
    One-Electron Energy =               -2105.5527194789228815
    Two-Electron Energy =                 880.3833117809914484
    Total Energy =                       -515.4411777530461904
  Basis Set: (AUG-CC-PVTZ AUX)
    Blend: AUG-CC-PVTZ-RI
    Molecular point group: c1

    Geometry (in Angstrom), charge = 0, multiplicity = 1:

       Center              X                  Y                   Z               Mass
    ------------   -----------------  -----------------  -----------------  -----------------
         N           -0.861547215020     2.171996917826    -0.512023696572    14.003074004430
         C           -0.666897215020    -0.205842082174     0.066573303428    12.000000000000
         C            0.812311784980    -0.146856082174     0.039479303428    12.000000000000
         C           -1.372900915020     0.882786217826    -0.279388996572    12.000000000000
         C           -1.305988215020    -1.418081082174     0.366154303428    12.000000000000
         C            1.540665784980    -1.084369082174    -0.710825696572    12.000000000000
         C            1.514041784980     0.813617917826     0.788170303428    12.000000000000
         C           -2.852012215020     0.815611917826    -0.200586696572    12.000000000000
         C           -2.695333215020    -1.521946082174     0.395089303428    12.000000000000
         C           -3.468109215020    -0.396220082174     0.102764303428    12.000000000000
         C            2.935828784980    -1.064682082174    -0.711883696572    12.000000000000
         C            2.909583784980     0.833682917826     0.782033303428    12.000000000000
         C            3.624425784980    -0.105317082174     0.034364303428    12.000000000000
         H           -0.688336215020    -2.280196082174     0.611624303428     1.007825032230
         H            1.002397784980    -1.820963082174    -1.304139696572     1.007825032230
         H            0.957932784980     1.536482917826     1.380749303428     1.007825032230
         H           -3.458333215020     1.690073917826    -0.433491696572     1.007825032230
         H           -3.168903215020    -2.469643082174     0.637835303428     1.007825032230
         H           -4.553957215020    -0.454633082174     0.124129303428     1.007825032230
         H            3.486342784980    -1.795281082174    -1.300339696572     1.007825032230
         H            3.440335784980     1.577719917826     1.371862303428     1.007825032230
         H            4.711688784980    -0.088541082174     0.031970303428     1.007825032230
         H            0.070133784980     2.092509917826    -0.909962696572     1.007825032230
         H           -1.445164215020     2.763337917826    -1.096714696572     1.007825032230

  Basis Set: AUG-CC-PVTZ
    Blend: AUG-CC-PVTZ
  Basis Set: (AUG-CC-PVTZ AUX)
    Blend: AUG-CC-PVTZ-JKFIT
	 Reference Energy          =    -515.4411777530461904 [Eh]
	 Singles Energy            =      -0.0000000000000000 [Eh]
	 Same-Spin Energy          =      -0.5827119031352195 [Eh]
	 Opposite-Spin Energy      =      -1.8020012794978135 [Eh]
	 Correlation Energy        =      -2.3847131826330328 [Eh]
	 Total Energy              =    -517.8258909356792401 [Eh]

	 ================> DF-SCS-MP2 Energies <==================
	-----------------------------------------------------------
	 SCS Same-Spin Scale       =       0.3333333333333333 [-]
	 SCS Opposite-Spin Scale   =       1.2000000000000000 [-]
	 SCS Same-Spin Energy      =      -0.1942373010450731 [Eh]
	 SCS Opposite-Spin Energy  =      -2.1624015353973762 [Eh]
	 SCS Correlation Energy    =      -2.3566388364424493 [Eh]
	 SCS Total Energy          =    -517.7978165894886615 [Eh]
	-----------------------------------------------------------

  Dipole Moment: [D]
     X:     0.4043      Y:     0.5615      Z:    -1.1344     Total:     1.3288

*** Psi4 exiting successfully. Buy a developer a beer!
