                               Psi4 1.3.2 release

  ==> Input File <==

--------------------------------------------------------------------------
#psi4
#
memory 32 gb

molecule  {
0 1
  N       -0.8580750     2.1650740    -0.5094440
  C       -0.6576972    -0.2946870     0.0064114
  C        0.8157840    -0.1537790     0.0420590
  C       -1.4510140     0.9181800    -0.2423400
  C       -1.3025160    -1.4250040     0.3687340
  C        1.5441380    -1.0912920    -0.7082460
  C        1.5175140     0.8066950     0.7907500
  C       -2.8485400     0.8086890    -0.1980070
  C       -2.6918610    -1.5288690     0.3976690
  C       -3.4646370    -0.4031430     0.1053440
  C        2.9393010    -1.0716050    -0.7093040
  C        2.9130560     0.8267600     0.7846130
  C        3.6278980    -0.1122400     0.0369440
  H       -0.6848640    -2.2871190     0.6142040
  H        1.0058700    -1.8278860    -1.3015600
  H        0.9614050     1.5295600     1.3833290
  H       -3.4548610     1.6831510    -0.4309120
  H       -3.1654310    -2.4765660     0.6404150
  H       -4.5504850    -0.4615560     0.1267090
  H        3.4898150    -1.8022040    -1.2977600
  H        3.4438080     1.5707970     1.3744420
  H        4.7151610    -0.0954640     0.0345500
  H        0.0736060     2.0855870    -0.9073830
  H       -1.4416920     2.7564150    -1.0941350
units angstrom
no_reorient  #important for SAPT in psi4, default
symmetry c1  #important for SAPT in psi4, default
}

set PROPERTIES_ORIGIN ["COM"]
properties('MP2/aug-cc-pvtz', properties = ['dipole'])
--------------------------------------------------------------------------

    Molecular point group: c1
  Charge       = 0
  Multiplicity = 1
  Basis Set: AUG-CC-PVTZ
    Blend: AUG-CC-PVTZ
  Basis Set: (AUG-CC-PVTZ AUX)
    Blend: AUG-CC-PVTZ-JKFIT

    Orbital Energies [Eh]
    ---------------------

    Doubly Occupied:

       1A    -15.567339     2A    -11.286106     3A    -11.246922
       4A    -11.239966     5A    -11.238676     6A    -11.237567
       7A    -11.237424     8A    -11.237183     9A    -11.236560
      10A    -11.235465    11A    -11.230589    12A    -11.224446
      13A    -11.221294    14A     -1.223739    15A     -1.157631
      16A     -1.127831    17A     -1.052962    18A     -1.015452
      19A     -0.996711    20A     -0.970275    21A     -0.850998
      22A     -0.834913    23A     -0.809504    24A     -0.790641
      25A     -0.712330    26A     -0.687970    27A     -0.685016
      28A     -0.656909    29A     -0.626138    30A     -0.621812
      31A     -0.593388    32A     -0.591994    33A     -0.585445
      34A     -0.583019    35A     -0.534857    36A     -0.523075
      37A     -0.506129    38A     -0.501598    39A     -0.493343
      40A     -0.471059    41A     -0.450671    42A     -0.363608
      43A     -0.339072    44A     -0.320401    45A     -0.285964

  @DF-RHF Final Energy:  -515.44481200841346

   => Energetics <=

    Nuclear Repulsion Energy =            708.8361610546429574
    One-Electron Energy =               -2103.7539595944817847
    Two-Electron Energy =                 879.4729865314252493
    Total Energy =                       -515.4448120084134644
  Basis Set: (AUG-CC-PVTZ AUX)
    Blend: AUG-CC-PVTZ-RI
    Molecular point group: c1

    Geometry (in Angstrom), charge = 0, multiplicity = 1:

       Center              X                  Y                   Z               Mass
    ------------   -----------------  -----------------  -----------------  -----------------
         N           -0.856163723510     2.174807645787    -0.510017254400    14.003074004430
         C           -0.655785923510    -0.284953354213     0.005838145600    12.000000000000
         C            0.817695276490    -0.144045354213     0.041485745600    12.000000000000
         C           -1.449102723510     0.927913645787    -0.242913254400    12.000000000000
         C           -1.300604723510    -1.415270354213     0.368160745600    12.000000000000
         C            1.546049276490    -1.081558354213    -0.708819254400    12.000000000000
         C            1.519425276490     0.816428645787     0.790176745600    12.000000000000
         C           -2.846628723510     0.818422645787    -0.198580254400    12.000000000000
         C           -2.689949723510    -1.519135354213     0.397095745600    12.000000000000
         C           -3.462725723510    -0.393409354213     0.104770745600    12.000000000000
         C            2.941212276490    -1.061871354213    -0.709877254400    12.000000000000
         C            2.914967276490     0.836493645787     0.784039745600    12.000000000000
         C            3.629809276490    -0.102506354213     0.036370745600    12.000000000000
         H           -0.682952723510    -2.277385354213     0.613630745600     1.007825032230
         H            1.007781276490    -1.818152354213    -1.302133254400     1.007825032230
         H            0.963316276490     1.539293645787     1.382755745600     1.007825032230
         H           -3.452949723510     1.692884645787    -0.431485254400     1.007825032230
         H           -3.163519723510    -2.466832354213     0.639841745600     1.007825032230
         H           -4.548573723510    -0.451822354213     0.126135745600     1.007825032230
         H            3.491726276490    -1.792470354213    -1.298333254400     1.007825032230
         H            3.445719276490     1.580530645787     1.373868745600     1.007825032230
         H            4.717072276490    -0.085730354213     0.033976745600     1.007825032230
         H            0.075517276490     2.095320645787    -0.907956254400     1.007825032230
         H           -1.439780723510     2.766148645787    -1.094708254400     1.007825032230

  Basis Set: AUG-CC-PVTZ
    Blend: AUG-CC-PVTZ
  Basis Set: (AUG-CC-PVTZ AUX)
    Blend: AUG-CC-PVTZ-JKFIT
	 Reference Energy          =    -515.4448120084134644 [Eh]
	 Singles Energy            =      -0.0000000000000000 [Eh]
	 Same-Spin Energy          =      -0.5829643830098893 [Eh]
	 Opposite-Spin Energy      =      -1.8015216141370720 [Eh]
	 Correlation Energy        =      -2.3844859971469612 [Eh]
	 Total Energy              =    -517.8292980055604176 [Eh]

	 ================> DF-SCS-MP2 Energies <==================
	-----------------------------------------------------------
	 SCS Same-Spin Scale       =       0.3333333333333333 [-]
	 SCS Opposite-Spin Scale   =       1.2000000000000000 [-]
	 SCS Same-Spin Energy      =      -0.1943214610032964 [Eh]
	 SCS Opposite-Spin Energy  =      -2.1618259369644863 [Eh]
	 SCS Correlation Energy    =      -2.3561473979677827 [Eh]
	 SCS Total Energy          =    -517.8009594063812528 [Eh]
	-----------------------------------------------------------

  Dipole Moment: [D]
     X:     0.5134      Y:     0.6141      Z:    -1.1198     Total:     1.3765

*** Psi4 exiting successfully. Buy a developer a beer!
