                               Psi4 1.3.2 release

  ==> Input File <==

--------------------------------------------------------------------------
#psi4
#
memory 32 gb

molecule  {
0 1
  N       -0.8580750     2.1650740    -0.5094440
  C       -0.6634250    -0.2127650     0.0691530
  C        0.8157840    -0.1537790     0.0420590
  C       -1.4709742     0.9297171    -0.2339196
  C       -1.3025160    -1.4250040     0.3687340
  C        1.5441380    -1.0912920    -0.7082460
  C        1.5175140     0.8066950     0.7907500
  C       -2.8485400     0.8086890    -0.1980070
  C       -2.6918610    -1.5288690     0.3976690
  C       -3.4646370    -0.4031430     0.1053440
  C        2.9393010    -1.0716050    -0.7093040
  C        2.9130560     0.8267600     0.7846130
  C        3.6278980    -0.1122400     0.0369440
  H       -0.6848640    -2.2871190     0.6142040
  H        1.0058700    -1.8278860    -1.3015600
  H        0.9614050     1.5295600     1.3833290
  H       -3.4548610     1.6831510    -0.4309120
  H       -3.1654310    -2.4765660     0.6404150
  H       -4.5504850    -0.4615560     0.1267090
  H        3.4898150    -1.8022040    -1.2977600
  H        3.4438080     1.5707970     1.3744420
  H        4.7151610    -0.0954640     0.0345500
  H        0.0736060     2.0855870    -0.9073830
  H       -1.4416920     2.7564150    -1.0941350
units angstrom
no_reorient  #important for SAPT in psi4, default
symmetry c1  #important for SAPT in psi4, default
}

set PROPERTIES_ORIGIN ["COM"]
properties('MP2/aug-cc-pvtz', properties = ['dipole'])
--------------------------------------------------------------------------

    Molecular point group: c1
  Charge       = 0
  Multiplicity = 1
  Basis Set: AUG-CC-PVTZ
    Blend: AUG-CC-PVTZ
  Basis Set: (AUG-CC-PVTZ AUX)
    Blend: AUG-CC-PVTZ-JKFIT

    Orbital Energies [Eh]
    ---------------------

    Doubly Occupied:

       1A    -15.564233     2A    -11.279949     3A    -11.246906
       4A    -11.239272     5A    -11.238842     6A    -11.238179
       7A    -11.237222     8A    -11.237091     9A    -11.236849
      10A    -11.235827    11A    -11.235572    12A    -11.224790
      13A    -11.223007    14A     -1.224724    15A     -1.156222
      16A     -1.125658    17A     -1.051388    18A     -1.015271
      19A     -0.996037    20A     -0.972866    21A     -0.853287
      22A     -0.834173    23A     -0.809807    24A     -0.790377
      25A     -0.712236    26A     -0.686720    27A     -0.684865
      28A     -0.655699    29A     -0.625849    30A     -0.621720
      31A     -0.596306    32A     -0.591680    33A     -0.586106
      34A     -0.579375    35A     -0.537258    36A     -0.524033
      37A     -0.505380    38A     -0.500565    39A     -0.488764
      40A     -0.479998    41A     -0.448553    42A     -0.360567
      43A     -0.338828    44A     -0.319199    45A     -0.289177

  @DF-RHF Final Energy:  -515.45129505925308

   => Energetics <=

    Nuclear Repulsion Energy =            708.8969943612629550
    One-Electron Energy =               -2103.8957326389349873
    Two-Electron Energy =                 879.5474432184190618
    Total Energy =                       -515.4512950592530842
  Basis Set: (AUG-CC-PVTZ AUX)
    Blend: AUG-CC-PVTZ-RI
    Molecular point group: c1

    Geometry (in Angstrom), charge = 0, multiplicity = 1:

       Center              X                  Y                   Z               Mass
    ------------   -----------------  -----------------  -----------------  -----------------
         N           -0.854340685183     2.168174995471    -0.515067513410    14.003074004430
         C           -0.659690685183    -0.209664004529     0.063529486590    12.000000000000
         C            0.819518314817    -0.150678004529     0.036435486590    12.000000000000
         C           -1.467239885183     0.932818095471    -0.239543113410    12.000000000000
         C           -1.298781685183    -1.421903004529     0.363110486590    12.000000000000
         C            1.547872314817    -1.088191004529    -0.713869513410    12.000000000000
         C            1.521248314817     0.809795995471     0.785126486590    12.000000000000
         C           -2.844805685183     0.811789995471    -0.203630513410    12.000000000000
         C           -2.688126685183    -1.525768004529     0.392045486590    12.000000000000
         C           -3.460902685183    -0.400042004529     0.099720486590    12.000000000000
         C            2.943035314817    -1.068504004529    -0.714927513410    12.000000000000
         C            2.916790314817     0.829860995471     0.778989486590    12.000000000000
         C            3.631632314817    -0.109139004529     0.031320486590    12.000000000000
         H           -0.681129685183    -2.284018004529     0.608580486590     1.007825032230
         H            1.009604314817    -1.824785004529    -1.307183513410     1.007825032230
         H            0.965139314817     1.532660995471     1.377705486590     1.007825032230
         H           -3.451126685183     1.686251995471    -0.436535513410     1.007825032230
         H           -3.161696685183    -2.473465004529     0.634791486590     1.007825032230
         H           -4.546750685183    -0.458455004529     0.121085486590     1.007825032230
         H            3.493549314817    -1.799103004529    -1.303383513410     1.007825032230
         H            3.447542314817     1.573897995471     1.368818486590     1.007825032230
         H            4.718895314817    -0.092363004529     0.028926486590     1.007825032230
         H            0.077340314817     2.088687995471    -0.913006513410     1.007825032230
         H           -1.437957685183     2.759515995471    -1.099758513410     1.007825032230

  Basis Set: AUG-CC-PVTZ
    Blend: AUG-CC-PVTZ
  Basis Set: (AUG-CC-PVTZ AUX)
    Blend: AUG-CC-PVTZ-JKFIT
	 Reference Energy          =    -515.4512950592530842 [Eh]
	 Singles Energy            =      -0.0000000000000000 [Eh]
	 Same-Spin Energy          =      -0.5829710286146892 [Eh]
	 Opposite-Spin Energy      =      -1.8012286361291563 [Eh]
	 Correlation Energy        =      -2.3841996647438455 [Eh]
	 Total Energy              =    -517.8354947239969306 [Eh]

	 ================> DF-SCS-MP2 Energies <==================
	-----------------------------------------------------------
	 SCS Same-Spin Scale       =       0.3333333333333333 [-]
	 SCS Opposite-Spin Scale   =       1.2000000000000000 [-]
	 SCS Same-Spin Energy      =      -0.1943236762048964 [Eh]
	 SCS Opposite-Spin Energy  =      -2.1614743633549875 [Eh]
	 SCS Correlation Energy    =      -2.3557980395598839 [Eh]
	 SCS Total Energy          =    -517.8070930988129703 [Eh]
	-----------------------------------------------------------

  Dipole Moment: [D]
     X:     0.4627      Y:     0.5432      Z:    -1.1271     Total:     1.3339

*** Psi4 exiting successfully. Buy a developer a beer!
