                               Psi4 1.3.2 release

  ==> Input File <==

--------------------------------------------------------------------------
#psi4
#
memory 32 gb

molecule  {
0 1
  N       -0.8140027     2.1446871    -0.5022685
  C       -0.6634250    -0.2127650     0.0691530
  C        0.8157840    -0.1537790     0.0420590
  C       -1.4510140     0.9181800    -0.2423400
  C       -1.3025160    -1.4250040     0.3687340
  C        1.5441380    -1.0912920    -0.7082460
  C        1.5175140     0.8066950     0.7907500
  C       -2.8485400     0.8086890    -0.1980070
  C       -2.6918610    -1.5288690     0.3976690
  C       -3.4646370    -0.4031430     0.1053440
  C        2.9393010    -1.0716050    -0.7093040
  C        2.9130560     0.8267600     0.7846130
  C        3.6278980    -0.1122400     0.0369440
  H       -0.6848640    -2.2871190     0.6142040
  H        1.0058700    -1.8278860    -1.3015600
  H        0.9614050     1.5295600     1.3833290
  H       -3.4548610     1.6831510    -0.4309120
  H       -3.1654310    -2.4765660     0.6404150
  H       -4.5504850    -0.4615560     0.1267090
  H        3.4898150    -1.8022040    -1.2977600
  H        3.4438080     1.5707970     1.3744420
  H        4.7151610    -0.0954640     0.0345500
  H        0.0736060     2.0855870    -0.9073830
  H       -1.4416920     2.7564150    -1.0941350
units angstrom
no_reorient  #important for SAPT in psi4, default
symmetry c1  #important for SAPT in psi4, default
}

set PROPERTIES_ORIGIN ["COM"]
properties('MP2/aug-cc-pvtz', properties = ['dipole'])
--------------------------------------------------------------------------

    Molecular point group: c1
  Charge       = 0
  Multiplicity = 1
  Basis Set: AUG-CC-PVTZ
    Blend: AUG-CC-PVTZ
  Basis Set: (AUG-CC-PVTZ AUX)
    Blend: AUG-CC-PVTZ-JKFIT

    Orbital Energies [Eh]
    ---------------------

    Doubly Occupied:

       1A    -15.564942     2A    -11.280332     3A    -11.246155
       4A    -11.238842     5A    -11.238386     6A    -11.237481
       7A    -11.236811     8A    -11.236440     9A    -11.236303
      10A    -11.235007    11A    -11.234896    12A    -11.228259
      13A    -11.223255    14A     -1.225852    15A     -1.155617
      16A     -1.125952    17A     -1.051254    18A     -1.014807
      19A     -0.994583    20A     -0.974259    21A     -0.852716
      22A     -0.834073    23A     -0.810918    24A     -0.790301
      25A     -0.713353    26A     -0.690721    27A     -0.679338
      28A     -0.656184    29A     -0.626371    30A     -0.621243
      31A     -0.596928    32A     -0.589673    33A     -0.585527
      34A     -0.578595    35A     -0.537218    36A     -0.523945
      37A     -0.505307    38A     -0.500550    39A     -0.488723
      40A     -0.479820    41A     -0.449058    42A     -0.360292
      43A     -0.338370    44A     -0.318657    45A     -0.289976

  @DF-RHF Final Energy:  -515.44822096256223

   => Energetics <=

    Nuclear Repulsion Energy =            709.5206423847290580
    One-Electron Energy =               -2105.1431422672899316
    Two-Electron Energy =                 880.1742789199987556
    Total Energy =                       -515.4482209625622318
  Basis Set: (AUG-CC-PVTZ AUX)
    Blend: AUG-CC-PVTZ-RI
    Molecular point group: c1

    Geometry (in Angstrom), charge = 0, multiplicity = 1:

       Center              X                  Y                   Z               Mass
    ------------   -----------------  -----------------  -----------------  -----------------
         N           -0.815334766330     2.150295201758    -0.507888667586    14.003074004430
         C           -0.664757066330    -0.207156898242     0.063532832414    12.000000000000
         C            0.814451933670    -0.148170898242     0.036438832414    12.000000000000
         C           -1.452346066330     0.923788101758    -0.247960167586    12.000000000000
         C           -1.303848066330    -1.419395898242     0.363113832414    12.000000000000
         C            1.542805933670    -1.085683898242    -0.713866167586    12.000000000000
         C            1.516181933670     0.812303101758     0.785129832414    12.000000000000
         C           -2.849872066330     0.814297101758    -0.203627167586    12.000000000000
         C           -2.693193066330    -1.523260898242     0.392048832414    12.000000000000
         C           -3.465969066330    -0.397534898242     0.099723832414    12.000000000000
         C            2.937968933670    -1.065996898242    -0.714924167586    12.000000000000
         C            2.911723933670     0.832368101758     0.778992832414    12.000000000000
         C            3.626565933670    -0.106631898242     0.031323832414    12.000000000000
         H           -0.686196066330    -2.281510898242     0.608583832414     1.007825032230
         H            1.004537933670    -1.822277898242    -1.307180167586     1.007825032230
         H            0.960072933670     1.535168101758     1.377708832414     1.007825032230
         H           -3.456193066330     1.688759101758    -0.436532167586     1.007825032230
         H           -3.166763066330    -2.470957898242     0.634794832414     1.007825032230
         H           -4.551817066330    -0.455947898242     0.121088832414     1.007825032230
         H            3.488482933670    -1.796595898242    -1.303380167586     1.007825032230
         H            3.442475933670     1.576405101758     1.368821832414     1.007825032230
         H            4.713828933670    -0.089855898242     0.028929832414     1.007825032230
         H            0.072273933670     2.091195101758    -0.913003167586     1.007825032230
         H           -1.443024066330     2.762023101758    -1.099755167586     1.007825032230

  Basis Set: AUG-CC-PVTZ
    Blend: AUG-CC-PVTZ
  Basis Set: (AUG-CC-PVTZ AUX)
    Blend: AUG-CC-PVTZ-JKFIT
	 Reference Energy          =    -515.4482209625622318 [Eh]
	 Singles Energy            =      -0.0000000000000000 [Eh]
	 Same-Spin Energy          =      -0.5830817040845739 [Eh]
	 Opposite-Spin Energy      =      -1.8015729584899558 [Eh]
	 Correlation Energy        =      -2.3846546625745297 [Eh]
	 Total Energy              =    -517.8328756251368077 [Eh]

	 ================> DF-SCS-MP2 Energies <==================
	-----------------------------------------------------------
	 SCS Same-Spin Scale       =       0.3333333333333333 [-]
	 SCS Opposite-Spin Scale   =       1.2000000000000000 [-]
	 SCS Same-Spin Energy      =      -0.1943605680281913 [Eh]
	 SCS Opposite-Spin Energy  =      -2.1618875501879469 [Eh]
	 SCS Correlation Energy    =      -2.3562481182161381 [Eh]
	 SCS Total Energy          =    -517.8044690807784036 [Eh]
	-----------------------------------------------------------

  Dipole Moment: [D]
     X:     0.3964      Y:     0.5689      Z:    -1.1313     Total:     1.3269

*** Psi4 exiting successfully. Buy a developer a beer!
