                               Psi4 1.3.2 release

  ==> Input File <==

--------------------------------------------------------------------------
#psi4
#
memory 32 gb

molecule  {
-1 1
  O        1.8996640     1.2894670    -0.0585490
  O        2.6973380    -0.8133440     0.2844750
  C       -2.1007360    -0.3533330    -0.4966910
  C       -3.0468618     0.1792962     0.5845451
  C       -0.7068410     0.1811810    -0.3555730
  C        0.3877500    -0.5533880    -0.1062960
  C        1.7796670     0.0321010     0.0519970
  H       -2.0934728    -1.4478431    -0.4279299
  H       -2.4999350    -0.0921100    -1.4864390
  H       -3.0846480     1.2965650     0.5261450
  H       -4.0584310    -0.1803650     0.4515950
  H       -2.6909580    -0.0729930     1.5749670
  H       -0.5778430     1.2611610    -0.4426850
  H        0.3073520    -1.6376590    -0.0083210
units angstrom
no_reorient  #important for SAPT in psi4, default
symmetry c1  #important for SAPT in psi4, default
}

set PROPERTIES_ORIGIN ["COM"]
properties('MP2/aug-cc-pvtz', properties = ['dipole'])
--------------------------------------------------------------------------

    Molecular point group: c1
  Charge       = -1
  Multiplicity = 1
  Basis Set: AUG-CC-PVTZ
    Blend: AUG-CC-PVTZ
  Basis Set: (AUG-CC-PVTZ AUX)
    Blend: AUG-CC-PVTZ-JKFIT

    Orbital Energies [Eh]
    ---------------------

    Doubly Occupied:

       1A    -20.295490     2A    -20.291763     3A    -11.142125
       4A    -11.115595     5A    -11.114024     6A    -11.085656
       7A    -11.070309     8A     -1.161944     9A     -1.061157
      10A     -0.954131    11A     -0.862673    12A     -0.743642
      13A     -0.632962    14A     -0.548883    15A     -0.497412
      16A     -0.484613    17A     -0.445674    18A     -0.419647
      19A     -0.409418    20A     -0.379770    21A     -0.377196
      22A     -0.358149    23A     -0.348546    24A     -0.211401
      25A     -0.209119    26A     -0.205007    27A     -0.191294

  @DF-RHF Final Energy:  -343.28495282305869

   => Energetics <=

    Nuclear Repulsion Energy =            270.8063734406458707
    One-Electron Energy =               -1014.9474527103436685
    Two-Electron Energy =                 400.8561264466391094
    Total Energy =                       -343.2849528230586884
  Basis Set: (AUG-CC-PVTZ AUX)
    Blend: AUG-CC-PVTZ-RI
    Molecular point group: c1

    Geometry (in Angstrom), charge = -1, multiplicity = 1:

       Center              X                  Y                   Z               Mass
    ------------   -----------------  -----------------  -----------------  -----------------
         O            1.753553615160     1.283754867843    -0.057925546150    15.994914619570
         O            2.551227615160    -0.819056132157     0.285098453850    15.994914619570
         C           -2.246846384840    -0.359045132157    -0.496067546150    12.000000000000
         C           -3.192972184840     0.173584067843     0.585168553850    12.000000000000
         C           -0.852951384840     0.175468867843    -0.354949546150    12.000000000000
         C            0.241639615160    -0.559100132157    -0.105672546150    12.000000000000
         C            1.633556615160     0.026388867843     0.052620453850    12.000000000000
         H           -2.239583184840    -1.453555232157    -0.427306446150     1.007825032230
         H           -2.646045384840    -0.097822132157    -1.485815546150     1.007825032230
         H           -3.230758384840     1.290852867843     0.526768453850     1.007825032230
         H           -4.204541384840    -0.186077132157     0.452218453850     1.007825032230
         H           -2.837068384840    -0.078705132157     1.575590453850     1.007825032230
         H           -0.723953384840     1.255448867843    -0.442061546150     1.007825032230
         H            0.161241615160    -1.643371132157    -0.007697546150     1.007825032230

  Basis Set: AUG-CC-PVTZ
    Blend: AUG-CC-PVTZ
  Basis Set: (AUG-CC-PVTZ AUX)
    Blend: AUG-CC-PVTZ-JKFIT
	 Reference Energy          =    -343.2849528230586884 [Eh]
	 Singles Energy            =      -0.0000000000000000 [Eh]
	 Same-Spin Energy          =      -0.3481409950763652 [Eh]
	 Opposite-Spin Energy      =      -1.1056004784761908 [Eh]
	 Correlation Energy        =      -1.4537414735525560 [Eh]
	 Total Energy              =    -344.7386942966112429 [Eh]

	 ================> DF-SCS-MP2 Energies <==================
	-----------------------------------------------------------
	 SCS Same-Spin Scale       =       0.3333333333333333 [-]
	 SCS Opposite-Spin Scale   =       1.2000000000000000 [-]
	 SCS Same-Spin Energy      =      -0.1160469983587884 [Eh]
	 SCS Opposite-Spin Energy  =      -1.3267205741714290 [Eh]
	 SCS Correlation Energy    =      -1.4427675725302174 [Eh]
	 SCS Total Energy          =    -344.7277203955889036 [Eh]
	-----------------------------------------------------------

  Dipole Moment: [D]
     X:    -9.5099      Y:    -1.1855      Z:    -0.5701     Total:     9.6004

*** Psi4 exiting successfully. Buy a developer a beer!
