                               Psi4 1.3.2 release

  ==> Input File <==

--------------------------------------------------------------------------
#psi4
#
memory 32 gb

molecule  {
-1 1
  O        1.8996640     1.2894670    -0.0585490
  O        2.6973380    -0.8133440     0.2844750
  C       -2.1007360    -0.3533330    -0.4966910
  C       -3.0314598     0.2113498     0.5816438
  C       -0.7106392     0.1881852    -0.3451927
  C        0.3877500    -0.5533880    -0.1062960
  C        1.7796670     0.0321010     0.0519970
  H       -2.0810980    -1.4485100    -0.4425170
  H       -2.4999350    -0.0921100    -1.4864390
  H       -3.0846480     1.2965650     0.5261450
  H       -4.0584310    -0.1803650     0.4515950
  H       -2.6909580    -0.0729930     1.5749670
  H       -0.5778430     1.2611610    -0.4426850
  H        0.3073520    -1.6376590    -0.0083210
units angstrom
no_reorient  #important for SAPT in psi4, default
symmetry c1  #important for SAPT in psi4, default
}

set PROPERTIES_ORIGIN ["COM"]
properties('MP2/aug-cc-pvtz', properties = ['dipole'])
--------------------------------------------------------------------------

    Molecular point group: c1
  Charge       = -1
  Multiplicity = 1
  Basis Set: AUG-CC-PVTZ
    Blend: AUG-CC-PVTZ
  Basis Set: (AUG-CC-PVTZ AUX)
    Blend: AUG-CC-PVTZ-JKFIT

    Orbital Energies [Eh]
    ---------------------

    Doubly Occupied:

       1A    -20.295269     2A    -20.291544     3A    -11.141853
       4A    -11.115608     5A    -11.114049     6A    -11.085546
       7A    -11.070615     8A     -1.161727     9A     -1.060954
      10A     -0.954329    11A     -0.861167    12A     -0.743392
      13A     -0.634058    14A     -0.549003    15A     -0.495165
      16A     -0.485227    17A     -0.445940    18A     -0.417678
      19A     -0.409999    20A     -0.384258    21A     -0.374452
      22A     -0.357858    23A     -0.350479    24A     -0.211071
      25A     -0.208928    26A     -0.203378    27A     -0.191110

  @DF-RHF Final Energy:  -343.28521633972980

   => Energetics <=

    Nuclear Repulsion Energy =            270.8816278064082894
    One-Electron Energy =               -1015.1043756981385968
    Two-Electron Energy =                 400.9375315520004506
    Total Energy =                       -343.2852163397298000
  Basis Set: (AUG-CC-PVTZ AUX)
    Blend: AUG-CC-PVTZ-RI
    Molecular point group: c1

    Geometry (in Angstrom), charge = -1, multiplicity = 1:

       Center              X                  Y                   Z               Mass
    ------------   -----------------  -----------------  -----------------  -----------------
         O            1.752021808011     1.279029507143    -0.058683252801    15.994914619570
         O            2.549695808011    -0.823781492857     0.284340747199    15.994914619570
         C           -2.248378191989    -0.363770492857    -0.496825252801    12.000000000000
         C           -3.179101991989     0.200912307143     0.581509547199    12.000000000000
         C           -0.858281391989     0.177747707143    -0.345326952801    12.000000000000
         C            0.240107808011    -0.563825492857    -0.106430252801    12.000000000000
         C            1.632024808011     0.021663507143     0.051862747199    12.000000000000
         H           -2.228740191989    -1.458947492857    -0.442651252801     1.007825032230
         H           -2.647577191989    -0.102547492857    -1.486573252801     1.007825032230
         H           -3.232290191989     1.286127507143     0.526010747199     1.007825032230
         H           -4.206073191989    -0.190802492857     0.451460747199     1.007825032230
         H           -2.838600191989    -0.083430492857     1.574832747199     1.007825032230
         H           -0.725485191989     1.250723507143    -0.442819252801     1.007825032230
         H            0.159709808011    -1.648096492857    -0.008455252801     1.007825032230

  Basis Set: AUG-CC-PVTZ
    Blend: AUG-CC-PVTZ
  Basis Set: (AUG-CC-PVTZ AUX)
    Blend: AUG-CC-PVTZ-JKFIT
	 Reference Energy          =    -343.2852163397298000 [Eh]
	 Singles Energy            =      -0.0000000000000000 [Eh]
	 Same-Spin Energy          =      -0.3481896143917282 [Eh]
	 Opposite-Spin Energy      =      -1.1056992287917242 [Eh]
	 Correlation Energy        =      -1.4538888431834525 [Eh]
	 Total Energy              =    -344.7391051829132493 [Eh]

	 ================> DF-SCS-MP2 Energies <==================
	-----------------------------------------------------------
	 SCS Same-Spin Scale       =       0.3333333333333333 [-]
	 SCS Opposite-Spin Scale   =       1.2000000000000000 [-]
	 SCS Same-Spin Energy      =      -0.1160632047972427 [Eh]
	 SCS Opposite-Spin Energy  =      -1.3268390745500691 [Eh]
	 SCS Correlation Energy    =      -1.4429022793473119 [Eh]
	 SCS Total Energy          =    -344.7281186190771223 [Eh]
	-----------------------------------------------------------

  Dipole Moment: [D]
     X:    -9.4982      Y:    -1.1427      Z:    -0.5857     Total:     9.5846

*** Psi4 exiting successfully. Buy a developer a beer!
