                               Psi4 1.3.2 release

  ==> Input File <==

--------------------------------------------------------------------------
#psi4
#
memory 32 gb

molecule  {
-1 1
  O        1.8996640     1.2894670    -0.0585490
  O        2.6973380    -0.8133440     0.2844750
  C       -2.1007360    -0.3533330    -0.4966910
  C       -3.0415820     0.2042600     0.5765370
  C       -0.7068410     0.1811810    -0.3555730
  C        0.3877500    -0.5533880    -0.1062960
  C        1.9630170     0.1092244     0.0728481
  H       -2.0810980    -1.4485100    -0.4425170
  H       -2.4999350    -0.0921100    -1.4864390
  H       -3.0846480     1.2965650     0.5261450
  H       -4.0584310    -0.1803650     0.4515950
  H       -2.6909580    -0.0729930     1.5749670
  H       -0.5778430     1.2611610    -0.4426850
  H        0.3073520    -1.6376590    -0.0083210
units angstrom
no_reorient  #important for SAPT in psi4, default
symmetry c1  #important for SAPT in psi4, default
}

set PROPERTIES_ORIGIN ["COM"]
properties('MP2/aug-cc-pvtz', properties = ['dipole'])
--------------------------------------------------------------------------

    Molecular point group: c1
  Charge       = -1
  Multiplicity = 1
  Basis Set: AUG-CC-PVTZ
    Blend: AUG-CC-PVTZ
  Basis Set: (AUG-CC-PVTZ AUX)
    Blend: AUG-CC-PVTZ-JKFIT

    Orbital Energies [Eh]
    ---------------------

    Doubly Occupied:

       1A    -20.313540     2A    -20.312790     3A    -11.154346
       4A    -11.103560     5A    -11.097971     6A    -11.058541
       7A    -11.043015     8A     -1.217576     9A     -1.136241
      10A     -0.935635    11A     -0.835028    12A     -0.717872
      13A     -0.598168    14A     -0.526999    15A     -0.491304
      16A     -0.468337    17A     -0.457348    18A     -0.437406
      19A     -0.403394    20A     -0.395492    21A     -0.388548
      22A     -0.370725    23A     -0.337260    24A     -0.248535
      25A     -0.228915    26A     -0.185053    27A     -0.169663

  @DF-RHF Final Energy:  -343.26725951154231

   => Energetics <=

    Nuclear Repulsion Energy =            270.7575881096510102
    One-Electron Energy =               -1014.7831705239212852
    Two-Electron Energy =                 400.7583229027279685
    Total Energy =                       -343.2672595115423064
  Basis Set: (AUG-CC-PVTZ AUX)
    Blend: AUG-CC-PVTZ-RI
    Molecular point group: c1

    Geometry (in Angstrom), charge = -1, multiplicity = 1:

       Center              X                  Y                   Z               Mass
    ------------   -----------------  -----------------  -----------------  -----------------
         O            1.730573774456     1.271393020490    -0.059333141811    15.994914619570
         O            2.528247774456    -0.831417979510     0.283690858189    15.994914619570
         C           -2.269826225544    -0.371406979510    -0.497475141811    12.000000000000
         C           -3.210672225544     0.186186020490     0.575752858189    12.000000000000
         C           -0.875931225544     0.163107020490    -0.356357141811    12.000000000000
         C            0.218659774456    -0.571461979510    -0.107080141811    12.000000000000
         C            1.793926774456     0.091150420490     0.072063958189    12.000000000000
         H           -2.250188225544    -1.466583979510    -0.443301141811     1.007825032230
         H           -2.669025225544    -0.110183979510    -1.487223141811     1.007825032230
         H           -3.253738225544     1.278491020490     0.525360858189     1.007825032230
         H           -4.227521225544    -0.198438979510     0.450810858189     1.007825032230
         H           -2.860048225544    -0.091066979510     1.574182858189     1.007825032230
         H           -0.746933225544     1.243087020490    -0.443469141811     1.007825032230
         H            0.138261774456    -1.655732979510    -0.009105141811     1.007825032230

  Basis Set: AUG-CC-PVTZ
    Blend: AUG-CC-PVTZ
  Basis Set: (AUG-CC-PVTZ AUX)
    Blend: AUG-CC-PVTZ-JKFIT
	 Reference Energy          =    -343.2672595115423064 [Eh]
	 Singles Energy            =      -0.0000000000000000 [Eh]
	 Same-Spin Energy          =      -0.3466244064701526 [Eh]
	 Opposite-Spin Energy      =      -1.1009368060244054 [Eh]
	 Correlation Energy        =      -1.4475612124945578 [Eh]
	 Total Energy              =    -344.7148207240368833 [Eh]

	 ================> DF-SCS-MP2 Energies <==================
	-----------------------------------------------------------
	 SCS Same-Spin Scale       =       0.3333333333333333 [-]
	 SCS Opposite-Spin Scale   =       1.2000000000000000 [-]
	 SCS Same-Spin Energy      =      -0.1155414688233842 [Eh]
	 SCS Opposite-Spin Energy  =      -1.3211241672292864 [Eh]
	 SCS Correlation Energy    =      -1.4366656360526706 [Eh]
	 SCS Total Energy          =    -344.7039251475949868 [Eh]
	-----------------------------------------------------------

  Dipole Moment: [D]
     X:    -7.6719      Y:    -0.6377      Z:    -0.3955     Total:     7.7085

*** Psi4 exiting successfully. Buy a developer a beer!
