                               Psi4 1.3.2 release

  ==> Input File <==

--------------------------------------------------------------------------
#psi4
#
memory 32 gb

molecule  {
-1 1
  O        1.8996640     1.2894670    -0.0585490
  O        2.6973380    -0.8133440     0.2844750
  C       -2.1007360    -0.3533330    -0.4966910
  C       -3.0415820     0.2042600     0.5765370
  C       -0.7997970     0.1455353    -0.3649839
  C        0.3877500    -0.5533880    -0.1062960
  C        1.7796670     0.0321010     0.0519970
  H       -2.0810980    -1.4485100    -0.4425170
  H       -2.4999350    -0.0921100    -1.4864390
  H       -3.0846480     1.2965650     0.5261450
  H       -4.0584310    -0.1803650     0.4515950
  H       -2.6909580    -0.0729930     1.5749670
  H       -0.5778430     1.2611610    -0.4426850
  H        0.3073520    -1.6376590    -0.0083210
units angstrom
no_reorient  #important for SAPT in psi4, default
symmetry c1  #important for SAPT in psi4, default
}

set PROPERTIES_ORIGIN ["COM"]
properties('MP2/aug-cc-pvtz', properties = ['dipole'])
--------------------------------------------------------------------------

    Molecular point group: c1
  Charge       = -1
  Multiplicity = 1
  Basis Set: AUG-CC-PVTZ
    Blend: AUG-CC-PVTZ
  Basis Set: (AUG-CC-PVTZ AUX)
    Blend: AUG-CC-PVTZ-JKFIT

    Orbital Energies [Eh]
    ---------------------

    Doubly Occupied:

       1A    -20.297084     2A    -20.293202     3A    -11.145155
       4A    -11.117217     5A    -11.110862     6A    -11.092420
       7A    -11.079532     8A     -1.163094     9A     -1.062364
      10A     -0.969978    11A     -0.851802    12A     -0.754090
      13A     -0.630360    14A     -0.548955    15A     -0.502567
      16A     -0.486351    17A     -0.447475    18A     -0.418028
      19A     -0.413361    20A     -0.389967    21A     -0.384190
      22A     -0.358147    23A     -0.334866    24A     -0.214511
      25A     -0.209982    26A     -0.193215    27A     -0.188939

  @DF-RHF Final Energy:  -343.26818118224048

   => Energetics <=

    Nuclear Repulsion Energy =            270.7497479096285247
    One-Electron Energy =               -1014.7204276961560936
    Two-Electron Energy =                 400.7024986042871433
    Total Energy =                       -343.2681811822404825
  Basis Set: (AUG-CC-PVTZ AUX)
    Blend: AUG-CC-PVTZ-RI
    Molecular point group: c1

    Geometry (in Angstrom), charge = -1, multiplicity = 1:

       Center              X                  Y                   Z               Mass
    ------------   -----------------  -----------------  -----------------  -----------------
         O            1.764050327954     1.285055846520    -0.055666672527    15.994914619570
         O            2.561724327954    -0.817755153480     0.287357327473    15.994914619570
         C           -2.236349672046    -0.357744153480    -0.493808672527    12.000000000000
         C           -3.177195672046     0.199848846520     0.579419327473    12.000000000000
         C           -0.935410672046     0.141124146520    -0.362101572527    12.000000000000
         C            0.252136327954    -0.557799153480    -0.103413672527    12.000000000000
         C            1.644053327954     0.027689846520     0.054879327473    12.000000000000
         H           -2.216711672046    -1.452921153480    -0.439634672527     1.007825032230
         H           -2.635548672046    -0.096521153480    -1.483556672527     1.007825032230
         H           -3.220261672046     1.292153846520     0.529027327473     1.007825032230
         H           -4.194044672046    -0.184776153480     0.454477327473     1.007825032230
         H           -2.826571672046    -0.077404153480     1.577849327473     1.007825032230
         H           -0.713456672046     1.256749846520    -0.439802672527     1.007825032230
         H            0.171738327954    -1.642070153480    -0.005438672527     1.007825032230

  Basis Set: AUG-CC-PVTZ
    Blend: AUG-CC-PVTZ
  Basis Set: (AUG-CC-PVTZ AUX)
    Blend: AUG-CC-PVTZ-JKFIT
	 Reference Energy          =    -343.2681811822404825 [Eh]
	 Singles Energy            =      -0.0000000000000000 [Eh]
	 Same-Spin Energy          =      -0.3503187434410265 [Eh]
	 Opposite-Spin Energy      =      -1.1089762121830533 [Eh]
	 Correlation Energy        =      -1.4592949556240797 [Eh]
	 Total Energy              =    -344.7274761378645849 [Eh]

	 ================> DF-SCS-MP2 Energies <==================
	-----------------------------------------------------------
	 SCS Same-Spin Scale       =       0.3333333333333333 [-]
	 SCS Opposite-Spin Scale   =       1.2000000000000000 [-]
	 SCS Same-Spin Energy      =      -0.1167729144803422 [Eh]
	 SCS Opposite-Spin Energy  =      -1.3307714546196638 [Eh]
	 SCS Correlation Energy    =      -1.4475443691000061 [Eh]
	 SCS Total Energy          =    -344.7157255513404834 [Eh]
	-----------------------------------------------------------

  Dipole Moment: [D]
     X:    -9.5418      Y:    -1.1864      Z:    -0.5836     Total:     9.6330

*** Psi4 exiting successfully. Buy a developer a beer!
