                               Psi4 1.3.2 release

  ==> Input File <==

--------------------------------------------------------------------------
#psi4
#
memory 32 gb

molecule  {
-1 1
  O        1.8996640     1.2894670    -0.0585490
  O        2.6973380    -0.8133440     0.2844750
  C       -2.1007360    -0.3533330    -0.4966910
  C       -3.0415820     0.2042600     0.5765370
  C       -0.7322370     0.1418377    -0.3555960
  C        0.3877500    -0.5533880    -0.1062960
  C        1.7796670     0.0321010     0.0519970
  H       -2.0810980    -1.4485100    -0.4425170
  H       -2.4999350    -0.0921100    -1.4864390
  H       -3.0846480     1.2965650     0.5261450
  H       -4.0584310    -0.1803650     0.4515950
  H       -2.6909580    -0.0729930     1.5749670
  H       -0.5778430     1.2611610    -0.4426850
  H        0.2698764    -1.6347763    -0.0145807
units angstrom
no_reorient  #important for SAPT in psi4, default
symmetry c1  #important for SAPT in psi4, default
}

set PROPERTIES_ORIGIN ["COM"]
properties('MP2/aug-cc-pvtz', properties = ['dipole'])
--------------------------------------------------------------------------

    Molecular point group: c1
  Charge       = -1
  Multiplicity = 1
  Basis Set: AUG-CC-PVTZ
    Blend: AUG-CC-PVTZ
  Basis Set: (AUG-CC-PVTZ AUX)
    Blend: AUG-CC-PVTZ-JKFIT

    Orbital Energies [Eh]
    ---------------------

    Doubly Occupied:

       1A    -20.296145     2A    -20.292915     3A    -11.144319
       4A    -11.116640     5A    -11.113248     6A    -11.086305
       7A    -11.070391     8A     -1.162654     9A     -1.061866
      10A     -0.960301    11A     -0.862446    12A     -0.748605
      13A     -0.627897    14A     -0.550688    15A     -0.498689
      16A     -0.485115    17A     -0.446422    18A     -0.418230
      19A     -0.410906    20A     -0.385439    21A     -0.380665
      22A     -0.358621    23A     -0.337572    24A     -0.213293
      25A     -0.210016    26A     -0.204230    27A     -0.191855

  @DF-RHF Final Energy:  -343.28202603554428

   => Energetics <=

    Nuclear Repulsion Energy =            271.0138518303271553
    One-Electron Energy =               -1015.3208083880663253
    Two-Electron Energy =                 401.0249305221948362
    Total Energy =                       -343.2820260355442770
  Basis Set: (AUG-CC-PVTZ AUX)
    Blend: AUG-CC-PVTZ-RI
    Molecular point group: c1

    Geometry (in Angstrom), charge = -1, multiplicity = 1:

       Center              X                  Y                   Z               Mass
    ------------   -----------------  -----------------  -----------------  -----------------
         O            1.756246256683     1.285474505800    -0.056740391971    15.994914619570
         O            2.553920256683    -0.817336494200     0.286283608029    15.994914619570
         C           -2.244153743317    -0.357325494200    -0.494882391971    12.000000000000
         C           -3.184999743317     0.200267505800     0.578345608029    12.000000000000
         C           -0.875654743317     0.137845205800    -0.353787391971    12.000000000000
         C            0.244332256683    -0.557380494200    -0.104487391971    12.000000000000
         C            1.636249256683     0.028108505800     0.053805608029    12.000000000000
         H           -2.224515743317    -1.452502494200    -0.440708391971     1.007825032230
         H           -2.643352743317    -0.096102494200    -1.484630391971     1.007825032230
         H           -3.228065743317     1.292572505800     0.527953608029     1.007825032230
         H           -4.201848743317    -0.184357494200     0.453403608029     1.007825032230
         H           -2.834375743317    -0.076985494200     1.576775608029     1.007825032230
         H           -0.721260743317     1.257168505800    -0.440876391971     1.007825032230
         H            0.126458656683    -1.638768794200    -0.012772091971     1.007825032230

  Basis Set: AUG-CC-PVTZ
    Blend: AUG-CC-PVTZ
  Basis Set: (AUG-CC-PVTZ AUX)
    Blend: AUG-CC-PVTZ-JKFIT
	 Reference Energy          =    -343.2820260355442770 [Eh]
	 Singles Energy            =      -0.0000000000000000 [Eh]
	 Same-Spin Energy          =      -0.3487469464856842 [Eh]
	 Opposite-Spin Energy      =      -1.1063361562074614 [Eh]
	 Correlation Energy        =      -1.4550831026931457 [Eh]
	 Total Energy              =    -344.7371091382374289 [Eh]

	 ================> DF-SCS-MP2 Energies <==================
	-----------------------------------------------------------
	 SCS Same-Spin Scale       =       0.3333333333333333 [-]
	 SCS Opposite-Spin Scale   =       1.2000000000000000 [-]
	 SCS Same-Spin Energy      =      -0.1162489821618947 [Eh]
	 SCS Opposite-Spin Energy  =      -1.3276033874489537 [Eh]
	 SCS Correlation Energy    =      -1.4438523696108483 [Eh]
	 SCS Total Energy          =    -344.7258784051551288 [Eh]
	-----------------------------------------------------------

  Dipole Moment: [D]
     X:    -9.5297      Y:    -1.1728      Z:    -0.5757     Total:     9.6188

*** Psi4 exiting successfully. Buy a developer a beer!
