                               Psi4 1.3.2 release

  ==> Input File <==

--------------------------------------------------------------------------
#psi4
#
memory 32 gb

molecule  {
-1 1
  O        1.8996640     1.2894670    -0.0585490
  O        2.6973380    -0.8133440     0.2844750
  C       -2.1007360    -0.3533330    -0.4966910
  C       -3.0415820     0.2042600     0.5765370
  C       -0.7068410     0.1811810    -0.3555730
  C        0.3877500    -0.5533880    -0.1062960
  C        1.7484692     0.1041815     0.0397606
  H       -2.0810980    -1.4485100    -0.4425170
  H       -2.4999350    -0.0921100    -1.4864390
  H       -3.0846480     1.2965650     0.5261450
  H       -4.0584310    -0.1803650     0.4515950
  H       -2.6909580    -0.0729930     1.5749670
  H       -0.5778430     1.2611610    -0.4426850
  H        0.2511676    -1.6328264    -0.0176132
units angstrom
no_reorient  #important for SAPT in psi4, default
symmetry c1  #important for SAPT in psi4, default
}

set PROPERTIES_ORIGIN ["COM"]
properties('MP2/aug-cc-pvtz', properties = ['dipole'])
--------------------------------------------------------------------------

    Molecular point group: c1
  Charge       = -1
  Multiplicity = 1
  Basis Set: AUG-CC-PVTZ
    Blend: AUG-CC-PVTZ
  Basis Set: (AUG-CC-PVTZ AUX)
    Blend: AUG-CC-PVTZ-JKFIT

    Orbital Energies [Eh]
    ---------------------

    Doubly Occupied:

       1A    -20.310556     2A    -20.277470     3A    -11.142305
       4A    -11.116510     5A    -11.114581     6A    -11.084824
       7A    -11.071061     8A     -1.187675     9A     -1.039450
      10A     -0.955682    11A     -0.864795    12A     -0.744316
      13A     -0.629266    14A     -0.554651    15A     -0.496543
      16A     -0.486372    17A     -0.454689    18A     -0.416781
      19A     -0.410300    20A     -0.384391    21A     -0.374621
      22A     -0.366633    23A     -0.352575    24A     -0.215231
      25A     -0.208472    26A     -0.196903    27A     -0.183769

  @DF-RHF Final Energy:  -343.27535125502470

   => Energetics <=

    Nuclear Repulsion Energy =            271.1095892955160593
    One-Electron Energy =               -1015.4890358999518867
    Two-Electron Energy =                 401.1040953494110681
    Total Energy =                       -343.2753512550247024
  Basis Set: (AUG-CC-PVTZ AUX)
    Blend: AUG-CC-PVTZ-RI
    Molecular point group: c1

    Geometry (in Angstrom), charge = -1, multiplicity = 1:

       Center              X                  Y                   Z               Mass
    ------------   -----------------  -----------------  -----------------  -----------------
         O            1.757139559225     1.271954831858    -0.055229789448    15.994914619570
         O            2.554813559225    -0.830856168142     0.287794210552    15.994914619570
         C           -2.243260440775    -0.370845168142    -0.493371789448    12.000000000000
         C           -3.184106440775     0.186747831858     0.579856210552    12.000000000000
         C           -0.849365440775     0.163668831858    -0.352253789448    12.000000000000
         C            0.245225559225    -0.570900168142    -0.102976789448    12.000000000000
         C            1.605944759225     0.086669331858     0.043079810552    12.000000000000
         H           -2.223622440775    -1.466022168142    -0.439197789448     1.007825032230
         H           -2.642459440775    -0.109622168142    -1.483119789448     1.007825032230
         H           -3.227172440775     1.279052831858     0.529464210552     1.007825032230
         H           -4.200955440775    -0.197877168142     0.454914210552     1.007825032230
         H           -2.833482440775    -0.090505168142     1.578286210552     1.007825032230
         H           -0.720367440775     1.243648831858    -0.439365789448     1.007825032230
         H            0.108643159225    -1.650338568142    -0.014293989448     1.007825032230

  Basis Set: AUG-CC-PVTZ
    Blend: AUG-CC-PVTZ
  Basis Set: (AUG-CC-PVTZ AUX)
    Blend: AUG-CC-PVTZ-JKFIT
	 Reference Energy          =    -343.2753512550247024 [Eh]
	 Singles Energy            =      -0.0000000000000000 [Eh]
	 Same-Spin Energy          =      -0.3484398161022524 [Eh]
	 Opposite-Spin Energy      =      -1.1060070790912437 [Eh]
	 Correlation Energy        =      -1.4544468951934961 [Eh]
	 Total Energy              =    -344.7297981502181869 [Eh]

	 ================> DF-SCS-MP2 Energies <==================
	-----------------------------------------------------------
	 SCS Same-Spin Scale       =       0.3333333333333333 [-]
	 SCS Opposite-Spin Scale   =       1.2000000000000000 [-]
	 SCS Same-Spin Energy      =      -0.1161466053674175 [Eh]
	 SCS Opposite-Spin Energy  =      -1.3272084949094924 [Eh]
	 SCS Correlation Energy    =      -1.4433551002769098 [Eh]
	 SCS Total Energy          =    -344.7187063553016060 [Eh]
	-----------------------------------------------------------

  Dipole Moment: [D]
     X:    -9.8276      Y:    -0.4078      Z:    -0.7062     Total:     9.8614

*** Psi4 exiting successfully. Buy a developer a beer!
