                               Psi4 1.4a3.dev225

  ==> Input File <==

--------------------------------------------------------------------------
#psi4
#
memory 32 gb

molecule  {
-1 1
  O        1.8994270     1.2905180    -0.0615170
  O        2.6993700    -0.8109500     0.2832770
  C       -2.1001690    -0.3616000    -0.4913260
  C       -3.0433460     0.2119310     0.5709670
  C       -0.7080250     0.1770830    -0.3546910
  C        0.3885780    -0.5541740    -0.1016650
  C        1.7943446     0.0197108     0.0555199
  H       -2.0812530    -1.4558260    -0.4203270
  H       -2.4968010    -0.1155520    -1.4857470
  H       -3.0817280     1.3037570     0.5071420
  H       -4.0608920    -0.1705790     0.4451360
  H       -2.6986290    -0.0550030     1.5741980
  H       -0.5806440     1.2564400    -0.4499950
  H        0.3081890    -1.6372690     0.0045550
units angstrom
no_reorient  #important for SAPT in psi4, default
symmetry c1  #important for SAPT in psi4, default
}

set PROPERTIES_ORIGIN ["COM"]
properties('MP2/aug-cc-pvtz', properties = ['dipole'])
--------------------------------------------------------------------------

    Molecular point group: c1
  Charge       = -1
  Multiplicity = 1
  Basis Set: AUG-CC-PVTZ
    Blend: AUG-CC-PVTZ
  Basis Set: (AUG-CC-PVTZ AUX)
    Blend: AUG-CC-PVTZ-JKFIT

    Orbital Energies [Eh]
    ---------------------

    Doubly Occupied:

       1A    -20.299820     2A    -20.288020     3A    -11.142068
       4A    -11.115178     5A    -11.113292     6A    -11.084496
       7A    -11.069353     8A     -1.165918     9A     -1.062379
      10A     -0.953477    11A     -0.860770    12A     -0.742523
      13A     -0.632255    14A     -0.547394    15A     -0.494476
      16A     -0.485052    17A     -0.446687    18A     -0.418975
      19A     -0.408526    20A     -0.383075    21A     -0.376956
      22A     -0.359731    23A     -0.348149    24A     -0.213248
      25A     -0.206744    26A     -0.204948    27A     -0.191254

  @DF-RHF Final Energy:  -343.28593700009782

   => Energetics <=

    Nuclear Repulsion Energy =            270.8022127911662551
    One-Electron Energy =               -1014.9467749390709059
    Two-Electron Energy =                 400.8586251478068903
    Total Energy =                       -343.2859370000978174
  Basis Set: (AUG-CC-PVTZ AUX)
    Blend: AUG-CC-PVTZ-RI
    Molecular point group: c1

    Geometry (in Angstrom), charge = -1, multiplicity = 1:

       Center              X                  Y                   Z               Mass
    ------------   -----------------  -----------------  -----------------  -----------------
         O            1.750734043251     1.283398101955    -0.060194587221    15.994914619570
         O            2.550677043251    -0.818069898045     0.284599412779    15.994914619570
         C           -2.248861956749    -0.368719898045    -0.490003587221    12.000000000000
         C           -3.192038956749     0.204811101955     0.572289412779    12.000000000000
         C           -0.856717956749     0.169963101955    -0.353368587221    12.000000000000
         C            0.239885043251    -0.561293898045    -0.100342587221    12.000000000000
         C            1.645651643251     0.012590901955     0.056842312779    12.000000000000
         H           -2.229945956749    -1.462945898045    -0.419004587221     1.007825032230
         H           -2.645493956749    -0.122671898045    -1.484424587221     1.007825032230
         H           -3.230420956749     1.296637101955     0.508464412779     1.007825032230
         H           -4.209584956749    -0.177698898045     0.446458412779     1.007825032230
         H           -2.847321956749    -0.062122898045     1.575520412779     1.007825032230
         H           -0.729336956749     1.249320101955    -0.448672587221     1.007825032230
         H            0.159496043251    -1.644388898045     0.005877412779     1.007825032230

  Basis Set: AUG-CC-PVTZ
    Blend: AUG-CC-PVTZ
  Basis Set: (AUG-CC-PVTZ AUX)
    Blend: AUG-CC-PVTZ-JKFIT
	 Reference Energy          =    -343.2859370000978174 [Eh]
	 Singles Energy            =      -0.0000000000000000 [Eh]
	 Same-Spin Energy          =      -0.3479467286770019 [Eh]
	 Opposite-Spin Energy      =      -1.1051826939912808 [Eh]
	 Correlation Energy        =      -1.4531294226682827 [Eh]
	 Total Energy              =    -344.7390664227660864 [Eh]

	 ================> DF-SCS-MP2 Energies <==================
	-----------------------------------------------------------
	 SCS Same-Spin Scale       =       0.3333333333333333 [-]
	 SCS Opposite-Spin Scale   =       1.2000000000000000 [-]
	 SCS Same-Spin Energy      =      -0.1159822428923340 [Eh]
	 SCS Opposite-Spin Energy  =      -1.3262192327895368 [Eh]
	 SCS Correlation Energy    =      -1.4422014756818708 [Eh]
	 SCS Total Energy          =    -344.7281384757797014 [Eh]
	-----------------------------------------------------------

  Dipole Moment: [D]
     X:    -9.3931      Y:    -1.3151      Z:    -0.5355     Total:     9.4999

*** Psi4 exiting successfully. Buy a developer a beer!
