                               Psi4 1.4a3.dev225

  ==> Input File <==

--------------------------------------------------------------------------
#psi4
#
memory 32 gb

molecule  {
-1 1
  O        1.8994270     1.2905180    -0.0615170
  O        2.6993700    -0.8109500     0.2832770
  C       -2.1001690    -0.3616000    -0.4913260
  C       -3.0433460     0.2119310     0.5709670
  C       -0.7080250     0.1770830    -0.3546910
  C        0.3885780    -0.5541740    -0.1016650
  C        1.7615253     0.0252712     0.0498510
  H       -2.0812530    -1.4558260    -0.4203270
  H       -2.4968010    -0.1155520    -1.4857470
  H       -3.0817280     1.3037570     0.5071420
  H       -4.0608920    -0.1705790     0.4451360
  H       -2.6986290    -0.0550030     1.5741980
  H       -0.5806440     1.2564400    -0.4499950
  H        0.3081890    -1.6372690     0.0045550
units angstrom
no_reorient  #important for SAPT in psi4, default
symmetry c1  #important for SAPT in psi4, default
}

set PROPERTIES_ORIGIN ["COM"]
properties('MP2/aug-cc-pvtz', properties = ['dipole'])
--------------------------------------------------------------------------

    Molecular point group: c1
  Charge       = -1
  Multiplicity = 1
  Basis Set: AUG-CC-PVTZ
    Blend: AUG-CC-PVTZ
  Basis Set: (AUG-CC-PVTZ AUX)
    Blend: AUG-CC-PVTZ-JKFIT

    Orbital Energies [Eh]
    ---------------------

    Doubly Occupied:

       1A    -20.294555     2A    -20.290337     3A    -11.141822
       4A    -11.116873     5A    -11.115348     6A    -11.088073
       7A    -11.071348     8A     -1.156203     9A     -1.053802
      10A     -0.956190    11A     -0.865270    12A     -0.746703
      13A     -0.637113    14A     -0.551904    15A     -0.495755
      16A     -0.487843    17A     -0.444474    18A     -0.420086
      19A     -0.409924    20A     -0.382838    21A     -0.373228
      22A     -0.354676    23A     -0.349741    24A     -0.213506
      25A     -0.205733    26A     -0.205446    27A     -0.188022

  @DF-RHF Final Energy:  -343.28322798889502

   => Energetics <=

    Nuclear Repulsion Energy =            270.8436296003137045
    One-Electron Energy =               -1015.0200894272754795
    Two-Electron Energy =                 400.8932318380666970
    Total Energy =                       -343.2832279888950211
  Basis Set: (AUG-CC-PVTZ AUX)
    Blend: AUG-CC-PVTZ-RI
    Molecular point group: c1

    Geometry (in Angstrom), charge = -1, multiplicity = 1:

       Center              X                  Y                   Z               Mass
    ------------   -----------------  -----------------  -----------------  -----------------
         O            1.754710348696     1.282724417605    -0.059507757278    15.994914619570
         O            2.554653348696    -0.818743582395     0.285286242722    15.994914619570
         C           -2.244885651304    -0.369393582395    -0.489316757278    12.000000000000
         C           -3.188062651304     0.204137417605     0.572976242722    12.000000000000
         C           -0.852741651304     0.169289417605    -0.352681757278    12.000000000000
         C            0.243861348696    -0.561967582395    -0.099655757278    12.000000000000
         C            1.616808648696     0.017477617605     0.051860242722    12.000000000000
         H           -2.225969651304    -1.463619582395    -0.418317757278     1.007825032230
         H           -2.641517651304    -0.123345582395    -1.483737757278     1.007825032230
         H           -3.226444651304     1.295963417605     0.509151242722     1.007825032230
         H           -4.205608651304    -0.178372582395     0.447145242722     1.007825032230
         H           -2.843345651304    -0.062796582395     1.576207242722     1.007825032230
         H           -0.725360651304     1.248646417605    -0.447985757278     1.007825032230
         H            0.163472348696    -1.645062582395     0.006564242722     1.007825032230

  Basis Set: AUG-CC-PVTZ
    Blend: AUG-CC-PVTZ
  Basis Set: (AUG-CC-PVTZ AUX)
    Blend: AUG-CC-PVTZ-JKFIT
	 Reference Energy          =    -343.2832279888950211 [Eh]
	 Singles Energy            =      -0.0000000000000000 [Eh]
	 Same-Spin Energy          =      -0.3485906476531618 [Eh]
	 Opposite-Spin Energy      =      -1.1065495480617766 [Eh]
	 Correlation Energy        =      -1.4551401957149384 [Eh]
	 Total Energy              =    -344.7383681846099535 [Eh]

	 ================> DF-SCS-MP2 Energies <==================
	-----------------------------------------------------------
	 SCS Same-Spin Scale       =       0.3333333333333333 [-]
	 SCS Opposite-Spin Scale   =       1.2000000000000000 [-]
	 SCS Same-Spin Energy      =      -0.1161968825510539 [Eh]
	 SCS Opposite-Spin Energy  =      -1.3278594576741318 [Eh]
	 SCS Correlation Energy    =      -1.4440563402251858 [Eh]
	 SCS Total Energy          =    -344.7272843291202093 [Eh]
	-----------------------------------------------------------

  Dipole Moment: [D]
     X:    -9.6558      Y:    -1.2054      Z:    -0.5820     Total:     9.7481

*** Psi4 exiting successfully. Buy a developer a beer!
