                               Psi4 1.3.2 release

  ==> Input File <==

--------------------------------------------------------------------------
#psi4
#
memory 32 gb

molecule  {
-1 1
  O        1.8996640     1.2894670    -0.0585490
  O        2.6973380    -0.8133440     0.2844750
  C       -2.1007360    -0.3533330    -0.4966910
  C       -3.0415820     0.2042600     0.5765370
  C       -0.7068410     0.1811810    -0.3555730
  C        0.3877500    -0.5533880    -0.1062960
  C        1.7796670     0.0321010     0.0519970
  H       -2.0810980    -1.4485100    -0.4425170
  H       -2.4999350    -0.0921100    -1.4864390
  H       -3.0846480     1.2965650     0.5261450
  H       -4.0584310    -0.1803650     0.4515950
  H       -2.6909580    -0.0729930     1.5749670
  H       -0.5541984     1.4591155    -0.4586522
  H        0.3073520    -1.6376590    -0.0083210
units angstrom
no_reorient  #important for SAPT in psi4, default
symmetry c1  #important for SAPT in psi4, default
}

set PROPERTIES_ORIGIN ["COM"]
properties('MP2/aug-cc-pvtz', properties = ['dipole'])
--------------------------------------------------------------------------

    Molecular point group: c1
  Charge       = -1
  Multiplicity = 1
  Basis Set: AUG-CC-PVTZ
    Blend: AUG-CC-PVTZ
  Basis Set: (AUG-CC-PVTZ AUX)
    Blend: AUG-CC-PVTZ-JKFIT

    Orbital Energies [Eh]
    ---------------------

    Doubly Occupied:

       1A    -20.295922     2A    -20.291709     3A    -11.142737
       4A    -11.116408     5A    -11.115423     6A    -11.106447
       7A    -11.072220     8A     -1.162184     9A     -1.061369
      10A     -0.952653    11A     -0.860722    12A     -0.744645
      13A     -0.619428    14A     -0.538902    15A     -0.495299
      16A     -0.484106    17A     -0.443519    18A     -0.414908
      19A     -0.409018    20A     -0.383490    21A     -0.376948
      22A     -0.358439    23A     -0.325235    24A     -0.211933
      25A     -0.209022    26A     -0.206392    27A     -0.191468

  @DF-RHF Final Energy:  -343.26399124966366

   => Energetics <=

    Nuclear Repulsion Energy =            270.0654887454147115
    One-Electron Energy =               -1013.4778694012367168
    Two-Electron Energy =                 400.1483894061584010
    Total Energy =                       -343.2639912496636612
  Basis Set: (AUG-CC-PVTZ AUX)
    Blend: AUG-CC-PVTZ-RI
    Molecular point group: c1

    Geometry (in Angstrom), charge = -1, multiplicity = 1:

       Center              X                  Y                   Z               Mass
    ------------   -----------------  -----------------  -----------------  -----------------
         O            1.752547413424     1.278722822084    -0.056644400256    15.994914619570
         O            2.550221413424    -0.824088177916     0.286379599744    15.994914619570
         C           -2.247852586576    -0.364077177916    -0.494786400256    12.000000000000
         C           -3.188698586576     0.193515822084     0.578441599744    12.000000000000
         C           -0.853957586576     0.170436822084    -0.353668400256    12.000000000000
         C            0.240633413424    -0.564132177916    -0.104391400256    12.000000000000
         C            1.632550413424     0.021356822084     0.053901599744    12.000000000000
         H           -2.228214586576    -1.459254177916    -0.440612400256     1.007825032230
         H           -2.647051586576    -0.102854177916    -1.484534400256     1.007825032230
         H           -3.231764586576     1.285820822084     0.528049599744     1.007825032230
         H           -4.205547586576    -0.191109177916     0.453499599744     1.007825032230
         H           -2.838074586576    -0.083737177916     1.576871599744     1.007825032230
         H           -0.701314986576     1.448371322084    -0.456747600256     1.007825032230
         H            0.160235413424    -1.648403177916    -0.006416400256     1.007825032230

  Basis Set: AUG-CC-PVTZ
    Blend: AUG-CC-PVTZ
  Basis Set: (AUG-CC-PVTZ AUX)
    Blend: AUG-CC-PVTZ-JKFIT
	 Reference Energy          =    -343.2639912496636612 [Eh]
	 Singles Energy            =      -0.0000000000000000 [Eh]
	 Same-Spin Energy          =      -0.3488759601024338 [Eh]
	 Opposite-Spin Energy      =      -1.1077782852754972 [Eh]
	 Correlation Energy        =      -1.4566542453779310 [Eh]
	 Total Energy              =    -344.7206454950415946 [Eh]

	 ================> DF-SCS-MP2 Energies <==================
	-----------------------------------------------------------
	 SCS Same-Spin Scale       =       0.3333333333333333 [-]
	 SCS Opposite-Spin Scale   =       1.2000000000000000 [-]
	 SCS Same-Spin Energy      =      -0.1162919867008113 [Eh]
	 SCS Opposite-Spin Energy  =      -1.3293339423305965 [Eh]
	 SCS Correlation Energy    =      -1.4456259290314077 [Eh]
	 SCS Total Energy          =    -344.7096171786950549 [Eh]
	-----------------------------------------------------------

  Dipole Moment: [D]
     X:    -9.4587      Y:    -1.2302      Z:    -0.5637     Total:     9.5550

*** Psi4 exiting successfully. Buy a developer a beer!
