                               Psi4 1.3.2 release

  ==> Input File <==

--------------------------------------------------------------------------
#psi4
#
memory 32 gb

molecule  {
-1 1
  O        1.8996640     1.2894670    -0.0585490
  O        2.6973380    -0.8133440     0.2844750
  C       -2.0962019    -0.3654742    -0.4948828
  C       -3.0415820     0.2042600     0.5765370
  C       -0.7068410     0.1811810    -0.3555730
  C        0.3877500    -0.5533880    -0.1062960
  C        1.7796670     0.0321010     0.0519970
  H       -2.0810980    -1.4485100    -0.4425170
  H       -2.4999350    -0.0921100    -1.4864390
  H       -3.0846480     1.2965650     0.5261450
  H       -4.0584310    -0.1803650     0.4515950
  H       -2.6909580    -0.0729930     1.5749670
  H       -0.5684827     1.2601138    -0.4412867
  H        0.3073520    -1.6376590    -0.0083210
units angstrom
no_reorient  #important for SAPT in psi4, default
symmetry c1  #important for SAPT in psi4, default
}

set PROPERTIES_ORIGIN ["COM"]
properties('MP2/aug-cc-pvtz', properties = ['dipole'])
--------------------------------------------------------------------------

    Molecular point group: c1
  Charge       = -1
  Multiplicity = 1
  Basis Set: AUG-CC-PVTZ
    Blend: AUG-CC-PVTZ
  Basis Set: (AUG-CC-PVTZ AUX)
    Blend: AUG-CC-PVTZ-JKFIT

    Orbital Energies [Eh]
    ---------------------

    Doubly Occupied:

       1A    -20.295294     2A    -20.291690     3A    -11.141892
       4A    -11.115904     5A    -11.113999     6A    -11.085224
       7A    -11.069572     8A     -1.161807     9A     -1.061037
      10A     -0.953725    11A     -0.861890    12A     -0.743920
      13A     -0.633383    14A     -0.548873    15A     -0.493705
      16A     -0.486514    17A     -0.446007    18A     -0.418402
      19A     -0.407266    20A     -0.384545    21A     -0.375354
      22A     -0.357850    23A     -0.350614    24A     -0.211122
      25A     -0.209049    26A     -0.204236    27A     -0.191215

  @DF-RHF Final Energy:  -343.28564224164597

   => Energetics <=

    Nuclear Repulsion Energy =            270.8468917096257655
    One-Electron Energy =               -1015.0368869613779452
    Two-Electron Energy =                 400.9043530101062061
    Total Energy =                       -343.2856422416459736
  Basis Set: (AUG-CC-PVTZ AUX)
    Blend: AUG-CC-PVTZ-RI
    Molecular point group: c1

    Geometry (in Angstrom), charge = -1, multiplicity = 1:

       Center              X                  Y                   Z               Mass
    ------------   -----------------  -----------------  -----------------  -----------------
         O            1.752143422464     1.282218755018    -0.057040179368    15.994914619570
         O            2.549817422464    -0.820592244982     0.285983820632    15.994914619570
         C           -2.243722477536    -0.372722444982    -0.493373979368    12.000000000000
         C           -3.189102577536     0.197011755018     0.578045820632    12.000000000000
         C           -0.854361577536     0.173932755018    -0.354064179368    12.000000000000
         C            0.240229422464    -0.560636244982    -0.104787179368    12.000000000000
         C            1.632146422464     0.024852755018     0.053505820632    12.000000000000
         H           -2.228618577536    -1.455758244982    -0.441008179368     1.007825032230
         H           -2.647455577536    -0.099358244982    -1.484930179368     1.007825032230
         H           -3.232168577536     1.289316755018     0.527653820632     1.007825032230
         H           -4.205951577536    -0.187613244982     0.453103820632     1.007825032230
         H           -2.838478577536    -0.080241244982     1.576475820632     1.007825032230
         H           -0.716003277536     1.252865555018    -0.439777879368     1.007825032230
         H            0.159831422464    -1.644907244982    -0.006812179368     1.007825032230

  Basis Set: AUG-CC-PVTZ
    Blend: AUG-CC-PVTZ
  Basis Set: (AUG-CC-PVTZ AUX)
    Blend: AUG-CC-PVTZ-JKFIT
	 Reference Energy          =    -343.2856422416459736 [Eh]
	 Singles Energy            =      -0.0000000000000000 [Eh]
	 Same-Spin Energy          =      -0.3481289096239838 [Eh]
	 Opposite-Spin Energy      =      -1.1055180407050136 [Eh]
	 Correlation Energy        =      -1.4536469503289973 [Eh]
	 Total Energy              =    -344.7392891919749900 [Eh]

	 ================> DF-SCS-MP2 Energies <==================
	-----------------------------------------------------------
	 SCS Same-Spin Scale       =       0.3333333333333333 [-]
	 SCS Opposite-Spin Scale   =       1.2000000000000000 [-]
	 SCS Same-Spin Energy      =      -0.1160429698746613 [Eh]
	 SCS Opposite-Spin Energy  =      -1.3266216488460163 [Eh]
	 SCS Correlation Energy    =      -1.4426646187206775 [Eh]
	 SCS Total Energy          =    -344.7283068603666720 [Eh]
	-----------------------------------------------------------

  Dipole Moment: [D]
     X:    -9.5046      Y:    -1.1677      Z:    -0.5771     Total:     9.5935

*** Psi4 exiting successfully. Buy a developer a beer!
