                               Psi4 1.3.2 release

  ==> Input File <==

--------------------------------------------------------------------------
#psi4
#
memory 32 gb

molecule  {
-1 1
  O        1.8996640     1.2894670    -0.0585490
  O        2.6973380    -0.8133440     0.2844750
  C       -2.1007360    -0.3533330    -0.4966910
  C       -3.0415820     0.2042600     0.5765370
  C       -0.7068410     0.1811810    -0.3555730
  C        0.3877500    -0.5533880    -0.1062960
  C        1.7702028    -0.0670676     0.0607158
  H       -2.0810980    -1.4485100    -0.4425170
  H       -2.4999350    -0.0921100    -1.4864390
  H       -3.0846480     1.2965650     0.5261450
  H       -4.0584310    -0.1803650     0.4515950
  H       -2.6909580    -0.0729930     1.5749670
  H       -0.5778430     1.2611610    -0.4426850
  H        0.3073520    -1.6376590    -0.0083210
units angstrom
no_reorient  #important for SAPT in psi4, default
symmetry c1  #important for SAPT in psi4, default
}

set PROPERTIES_ORIGIN ["COM"]
properties('MP2/aug-cc-pvtz', properties = ['dipole'])
--------------------------------------------------------------------------

    Molecular point group: c1
  Charge       = -1
  Multiplicity = 1
  Basis Set: AUG-CC-PVTZ
    Blend: AUG-CC-PVTZ
  Basis Set: (AUG-CC-PVTZ AUX)
    Blend: AUG-CC-PVTZ-JKFIT

    Orbital Energies [Eh]
    ---------------------

    Doubly Occupied:

       1A    -20.313494     2A    -20.269012     3A    -11.140329
       4A    -11.117575     5A    -11.116569     6A    -11.091499
       7A    -11.072099     8A     -1.179842     9A     -1.022820
      10A     -0.956474    11A     -0.866502    12A     -0.750043
      13A     -0.645333    14A     -0.552963    15A     -0.497547
      16A     -0.487422    17A     -0.450750    18A     -0.422507
      19A     -0.411553    20A     -0.383418    21A     -0.372687
      22A     -0.360279    23A     -0.346882    24A     -0.214677
      25A     -0.211547    26A     -0.189594    27A     -0.174742

  @DF-RHF Final Energy:  -343.26880365131740

   => Energetics <=

    Nuclear Repulsion Energy =            270.7901033721058752
    One-Electron Energy =               -1014.8814977072720467
    Two-Electron Energy =                 400.8225906838487163
    Total Energy =                       -343.2688036513173984
  Basis Set: (AUG-CC-PVTZ AUX)
    Blend: AUG-CC-PVTZ-RI
    Molecular point group: c1

    Geometry (in Angstrom), charge = -1, multiplicity = 1:

       Center              X                  Y                   Z               Mass
    ------------   -----------------  -----------------  -----------------  -----------------
         O            1.753934667384     1.292752124415    -0.057863222265    15.994914619570
         O            2.551608667384    -0.810058875585     0.285160777735    15.994914619570
         C           -2.246465332616    -0.350047875585    -0.496005222265    12.000000000000
         C           -3.187311332616     0.207545124415     0.577222777735    12.000000000000
         C           -0.852570332616     0.184466124415    -0.354887222265    12.000000000000
         C            0.242020667384    -0.550102875585    -0.105610222265    12.000000000000
         C            1.624473467384    -0.063782475585     0.061401577735    12.000000000000
         H           -2.226827332616    -1.445224875585    -0.441831222265     1.007825032230
         H           -2.645664332616    -0.088824875585    -1.485753222265     1.007825032230
         H           -3.230377332616     1.299850124415     0.526830777735     1.007825032230
         H           -4.204160332616    -0.177079875585     0.452280777735     1.007825032230
         H           -2.836687332616    -0.069707875585     1.575652777735     1.007825032230
         H           -0.723572332616     1.264446124415    -0.441999222265     1.007825032230
         H            0.161622667384    -1.634373875585    -0.007635222265     1.007825032230

  Basis Set: AUG-CC-PVTZ
    Blend: AUG-CC-PVTZ
  Basis Set: (AUG-CC-PVTZ AUX)
    Blend: AUG-CC-PVTZ-JKFIT
	 Reference Energy          =    -343.2688036513173984 [Eh]
	 Singles Energy            =      -0.0000000000000000 [Eh]
	 Same-Spin Energy          =      -0.3489285628371622 [Eh]
	 Opposite-Spin Energy      =      -1.1076381554977566 [Eh]
	 Correlation Energy        =      -1.4565667183349187 [Eh]
	 Total Energy              =    -344.7253703696522962 [Eh]

	 ================> DF-SCS-MP2 Energies <==================
	-----------------------------------------------------------
	 SCS Same-Spin Scale       =       0.3333333333333333 [-]
	 SCS Opposite-Spin Scale   =       1.2000000000000000 [-]
	 SCS Same-Spin Energy      =      -0.1163095209457207 [Eh]
	 SCS Opposite-Spin Energy  =      -1.3291657865973079 [Eh]
	 SCS Correlation Energy    =      -1.4454753075430287 [Eh]
	 SCS Total Energy          =    -344.7142789588604046 [Eh]
	-----------------------------------------------------------

  Dipole Moment: [D]
     X:    -9.5224      Y:    -2.0429      Z:    -0.4777     Total:     9.7508

*** Psi4 exiting successfully. Buy a developer a beer!
