                               Psi4 1.4a3.dev225

  ==> Input File <==

--------------------------------------------------------------------------
#psi4
#
memory 32 gb

molecule  {
-1 1
  O        1.8994270     1.2905180    -0.0615170
  O        2.6993700    -0.8109500     0.2832770
  C       -2.1001690    -0.3616000    -0.4913260
  C       -3.0433460     0.2119310     0.5709670
  C       -0.6894503     0.1842704    -0.3528679
  C        0.3885780    -0.5541740    -0.1016650
  C        1.7798570     0.0330080     0.0518740
  H       -2.0812530    -1.4558260    -0.4203270
  H       -2.4968010    -0.1155520    -1.4857470
  H       -3.0817280     1.3037570     0.5071420
  H       -4.0608920    -0.1705790     0.4451360
  H       -2.6986290    -0.0550030     1.5741980
  H       -0.5806440     1.2564400    -0.4499950
  H        0.3081890    -1.6372690     0.0045550
units angstrom
no_reorient  #important for SAPT in psi4, default
symmetry c1  #important for SAPT in psi4, default
}

set PROPERTIES_ORIGIN ["COM"]
properties('MP2/aug-cc-pvtz', properties = ['dipole'])
--------------------------------------------------------------------------

    Molecular point group: c1
  Charge       = -1
  Multiplicity = 1
  Basis Set: AUG-CC-PVTZ
    Blend: AUG-CC-PVTZ
  Basis Set: (AUG-CC-PVTZ AUX)
    Blend: AUG-CC-PVTZ-JKFIT

    Orbital Energies [Eh]
    ---------------------

    Doubly Occupied:

       1A    -20.295021     2A    -20.291335     3A    -11.141442
       4A    -11.115543     5A    -11.114354     6A    -11.084308
       7A    -11.068280     8A     -1.161461     9A     -1.060590
      10A     -0.952106    11A     -0.864616    12A     -0.741814
      13A     -0.633732    14A     -0.549391    15A     -0.493692
      16A     -0.485825    17A     -0.446038    18A     -0.420196
      19A     -0.407953    20A     -0.382556    21A     -0.374382
      22A     -0.357920    23A     -0.348973    24A     -0.210582
      25A     -0.208775    26A     -0.207445    27A     -0.190947

  @DF-RHF Final Energy:  -343.28603123417605

   => Energetics <=

    Nuclear Repulsion Energy =            270.8776158055152337
    One-Electron Energy =               -1015.1087441710296844
    Two-Electron Energy =                 400.9450971313384002
    Total Energy =                       -343.2860312341760505
  Basis Set: (AUG-CC-PVTZ AUX)
    Blend: AUG-CC-PVTZ-RI
    Molecular point group: c1

    Geometry (in Angstrom), charge = -1, multiplicity = 1:

       Center              X                  Y                   Z               Mass
    ------------   -----------------  -----------------  -----------------  -----------------
         O            1.750238860295     1.280916238341    -0.059973741268    15.994914619570
         O            2.550181860295    -0.820551761659     0.284820258732    15.994914619570
         C           -2.249357139705    -0.371201761659    -0.489782741268    12.000000000000
         C           -3.192534139705     0.202329238341     0.572510258732    12.000000000000
         C           -0.838638439705     0.174668638341    -0.351324641268    12.000000000000
         C            0.239389860295    -0.563775761659    -0.100121741268    12.000000000000
         C            1.630668860295     0.023406238341     0.053417258732    12.000000000000
         H           -2.230441139705    -1.465427761659    -0.418783741268     1.007825032230
         H           -2.645989139705    -0.125153761659    -1.484203741268     1.007825032230
         H           -3.230916139705     1.294155238341     0.508685258732     1.007825032230
         H           -4.210080139705    -0.180180761659     0.446679258732     1.007825032230
         H           -2.847817139705    -0.064604761659     1.575741258732     1.007825032230
         H           -0.729832139705     1.246838238341    -0.448451741268     1.007825032230
         H            0.159000860295    -1.646870761659     0.006098258732     1.007825032230

  Basis Set: AUG-CC-PVTZ
    Blend: AUG-CC-PVTZ
  Basis Set: (AUG-CC-PVTZ AUX)
    Blend: AUG-CC-PVTZ-JKFIT
	 Reference Energy          =    -343.2860312341760505 [Eh]
	 Singles Energy            =      -0.0000000000000000 [Eh]
	 Same-Spin Energy          =      -0.3478549937632077 [Eh]
	 Opposite-Spin Energy      =      -1.1051335584543018 [Eh]
	 Correlation Energy        =      -1.4529885522175094 [Eh]
	 Total Energy              =    -344.7390197863935555 [Eh]

	 ================> DF-SCS-MP2 Energies <==================
	-----------------------------------------------------------
	 SCS Same-Spin Scale       =       0.3333333333333333 [-]
	 SCS Opposite-Spin Scale   =       1.2000000000000000 [-]
	 SCS Same-Spin Energy      =      -0.1159516645877359 [Eh]
	 SCS Opposite-Spin Energy  =      -1.3261602701451622 [Eh]
	 SCS Correlation Energy    =      -1.4421119347328981 [Eh]
	 SCS Total Energy          =    -344.7281431689089573 [Eh]
	-----------------------------------------------------------

  Dipole Moment: [D]
     X:    -9.5078      Y:    -1.1577      Z:    -0.5679     Total:     9.5948

*** Psi4 exiting successfully. Buy a developer a beer!
