                               Psi4 1.3.2 release

  ==> Input File <==

--------------------------------------------------------------------------
#psi4
#
memory 32 gb

molecule  {
-1 1
  O        1.8996640     1.2894670    -0.0585490
  O        2.6973380    -0.8133440     0.2844750
  C       -2.1007360    -0.3533330    -0.4966910
  C       -3.0415820     0.2042600     0.5765370
  C       -0.7133212     0.1714304    -0.3555763
  C        0.3877500    -0.5533880    -0.1062960
  C        1.7844926     0.0199296     0.0540289
  H       -2.0810980    -1.4485100    -0.4425170
  H       -2.4999350    -0.0921100    -1.4864390
  H       -3.0846480     1.2965650     0.5261450
  H       -4.0584310    -0.1803650     0.4515950
  H       -2.6909580    -0.0729930     1.5749670
  H       -0.5778430     1.2611610    -0.4426850
  H        0.3073520    -1.6376590    -0.0083210
units angstrom
no_reorient  #important for SAPT in psi4, default
symmetry c1  #important for SAPT in psi4, default
}

set PROPERTIES_ORIGIN ["COM"]
properties('MP2/aug-cc-pvtz', properties = ['dipole'])
--------------------------------------------------------------------------

    Molecular point group: c1
  Charge       = -1
  Multiplicity = 1
  Basis Set: AUG-CC-PVTZ
    Blend: AUG-CC-PVTZ
  Basis Set: (AUG-CC-PVTZ AUX)
    Blend: AUG-CC-PVTZ-JKFIT

    Orbital Energies [Eh]
    ---------------------

    Doubly Occupied:

       1A    -20.298538     2A    -20.288787     3A    -11.142315
       4A    -11.115872     5A    -11.113733     6A    -11.085727
       7A    -11.069963     8A     -1.163020     9A     -1.060382
      10A     -0.955471    11A     -0.861977    12A     -0.744941
      13A     -0.632315    14A     -0.548588    15A     -0.495545
      16A     -0.485703    17A     -0.445979    18A     -0.419071
      19A     -0.409414    20A     -0.383032    21A     -0.377667
      22A     -0.358286    23A     -0.345981    24A     -0.213052
      25A     -0.207374    26A     -0.205034    27A     -0.190619

  @DF-RHF Final Energy:  -343.28509689925909

   => Energetics <=

    Nuclear Repulsion Energy =            270.8673219992062400
    One-Electron Energy =               -1015.0680674866309801
    Two-Electron Energy =                 400.9156485881655954
    Total Energy =                       -343.2850968992590879
  Basis Set: (AUG-CC-PVTZ AUX)
    Blend: AUG-CC-PVTZ-RI
    Molecular point group: c1

    Geometry (in Angstrom), charge = -1, multiplicity = 1:

       Center              X                  Y                   Z               Mass
    ------------   -----------------  -----------------  -----------------  -----------------
         O            1.752988475509     1.283393116875    -0.057052654134    15.994914619570
         O            2.550662475509    -0.819417883125     0.285971345866    15.994914619570
         C           -2.247411524491    -0.359406883125    -0.495194654134    12.000000000000
         C           -3.188257524491     0.198186116875     0.578033345866    12.000000000000
         C           -0.859996724491     0.165356516875    -0.354079954134    12.000000000000
         C            0.241074475509    -0.559461883125    -0.104799654134    12.000000000000
         C            1.637817075509     0.013855716875     0.055525245866    12.000000000000
         H           -2.227773524491    -1.454583883125    -0.441020654134     1.007825032230
         H           -2.646610524491    -0.098183883125    -1.484942654134     1.007825032230
         H           -3.231323524491     1.290491116875     0.527641345866     1.007825032230
         H           -4.205106524491    -0.186438883125     0.453091345866     1.007825032230
         H           -2.837633524491    -0.079066883125     1.576463345866     1.007825032230
         H           -0.724518524491     1.255087116875    -0.441188654134     1.007825032230
         H            0.160676475509    -1.643732883125    -0.006824654134     1.007825032230

  Basis Set: AUG-CC-PVTZ
    Blend: AUG-CC-PVTZ
  Basis Set: (AUG-CC-PVTZ AUX)
    Blend: AUG-CC-PVTZ-JKFIT
	 Reference Energy          =    -343.2850968992590879 [Eh]
	 Singles Energy            =      -0.0000000000000000 [Eh]
	 Same-Spin Energy          =      -0.3482364017821400 [Eh]
	 Opposite-Spin Energy      =      -1.1056764909187209 [Eh]
	 Correlation Energy        =      -1.4539128927008609 [Eh]
	 Total Energy              =    -344.7390097919599725 [Eh]

	 ================> DF-SCS-MP2 Energies <==================
	-----------------------------------------------------------
	 SCS Same-Spin Scale       =       0.3333333333333333 [-]
	 SCS Opposite-Spin Scale   =       1.2000000000000000 [-]
	 SCS Same-Spin Energy      =      -0.1160788005940467 [Eh]
	 SCS Opposite-Spin Energy  =      -1.3268117891024651 [Eh]
	 SCS Correlation Energy    =      -1.4428905896965118 [Eh]
	 SCS Total Energy          =    -344.7279874889555913 [Eh]
	-----------------------------------------------------------

  Dipole Moment: [D]
     X:    -9.4688      Y:    -1.2823      Z:    -0.5579     Total:     9.5715

*** Psi4 exiting successfully. Buy a developer a beer!
