                               Psi4 1.3.2 release

  ==> Input File <==

--------------------------------------------------------------------------
#psi4
#
memory 32 gb

molecule  {
-1 1
  O        1.8996640     1.2894670    -0.0585490
  O        2.6973380    -0.8133440     0.2844750
  C       -2.1007360    -0.3533330    -0.4966910
  C       -3.0415820     0.2042600     0.5765370
  C       -0.7068410     0.1811810    -0.3555730
  C        0.3877500    -0.5533880    -0.1062960
  C        1.7983508    -0.0168566     0.0599156
  H       -2.0810980    -1.4485100    -0.4425170
  H       -2.4999350    -0.0921100    -1.4864390
  H       -3.0846480     1.2965650     0.5261450
  H       -4.0584310    -0.1803650     0.4515950
  H       -2.6909580    -0.0729930     1.5749670
  H       -0.5778430     1.2611610    -0.4426850
  H        0.3449402    -1.6392302    -0.0022738
units angstrom
no_reorient  #important for SAPT in psi4, default
symmetry c1  #important for SAPT in psi4, default
}

set PROPERTIES_ORIGIN ["COM"]
properties('MP2/aug-cc-pvtz', properties = ['dipole'])
--------------------------------------------------------------------------

    Molecular point group: c1
  Charge       = -1
  Multiplicity = 1
  Basis Set: AUG-CC-PVTZ
    Blend: AUG-CC-PVTZ
  Basis Set: (AUG-CC-PVTZ AUX)
    Blend: AUG-CC-PVTZ-JKFIT

    Orbital Energies [Eh]
    ---------------------

    Doubly Occupied:

       1A    -20.307351     2A    -20.279035     3A    -11.140668
       4A    -11.115367     5A    -11.113695     6A    -11.086083
       7A    -11.069733     8A     -1.175222     9A     -1.049821
      10A     -0.953340    11A     -0.860929    12A     -0.743801
      13A     -0.635995    14A     -0.546328    15A     -0.494857
      16A     -0.485202    17A     -0.448725    18A     -0.420600
      19A     -0.408882    20A     -0.381978    21A     -0.376901
      22A     -0.361447    23A     -0.347389    24A     -0.214990
      25A     -0.207826    26A     -0.199580    27A     -0.185664

  @DF-RHF Final Energy:  -343.28127032900460

   => Energetics <=

    Nuclear Repulsion Energy =            270.7897348627122938
    One-Electron Energy =               -1014.9191933214463006
    Two-Electron Energy =                 400.8481881297294080
    Total Energy =                       -343.2812703290045988
  Basis Set: (AUG-CC-PVTZ AUX)
    Blend: AUG-CC-PVTZ-RI
    Molecular point group: c1

    Geometry (in Angstrom), charge = -1, multiplicity = 1:

       Center              X                  Y                   Z               Mass
    ------------   -----------------  -----------------  -----------------  -----------------
         O            1.750141847665     1.286684671185    -0.057827805087    15.994914619570
         O            2.547815847665    -0.816126328815     0.285196194913    15.994914619570
         C           -2.250258152335    -0.356115328815    -0.495969805087    12.000000000000
         C           -3.191104152335     0.201477671185     0.577258194913    12.000000000000
         C           -0.856363152335     0.178398671185    -0.354851805087    12.000000000000
         C            0.238227847665    -0.556170328815    -0.105574805087    12.000000000000
         C            1.648828647665    -0.019638928815     0.060636794913    12.000000000000
         H           -2.230620152335    -1.451292328815    -0.441795805087     1.007825032230
         H           -2.649457152335    -0.094892328815    -1.485717805087     1.007825032230
         H           -3.234170152335     1.293782671185     0.526866194913     1.007825032230
         H           -4.207953152335    -0.183147328815     0.452316194913     1.007825032230
         H           -2.840480152335    -0.075775328815     1.575688194913     1.007825032230
         H           -0.727365152335     1.258378671185    -0.441963805087     1.007825032230
         H            0.195418047665    -1.642012528815    -0.001552605087     1.007825032230

  Basis Set: AUG-CC-PVTZ
    Blend: AUG-CC-PVTZ
  Basis Set: (AUG-CC-PVTZ AUX)
    Blend: AUG-CC-PVTZ-JKFIT
	 Reference Energy          =    -343.2812703290045988 [Eh]
	 Singles Energy            =      -0.0000000000000000 [Eh]
	 Same-Spin Energy          =      -0.3480061446563476 [Eh]
	 Opposite-Spin Energy      =      -1.1054517956714265 [Eh]
	 Correlation Energy        =      -1.4534579403277741 [Eh]
	 Total Energy              =    -344.7347282693323791 [Eh]

	 ================> DF-SCS-MP2 Energies <==================
	-----------------------------------------------------------
	 SCS Same-Spin Scale       =       0.3333333333333333 [-]
	 SCS Opposite-Spin Scale   =       1.2000000000000000 [-]
	 SCS Same-Spin Energy      =      -0.1160020482187825 [Eh]
	 SCS Opposite-Spin Energy  =      -1.3265421548057117 [Eh]
	 SCS Correlation Energy    =      -1.4425442030244942 [Eh]
	 SCS Total Energy          =    -344.7238145320291096 [Eh]
	-----------------------------------------------------------

  Dipole Moment: [D]
     X:    -9.3262      Y:    -1.6530      Z:    -0.4975     Total:     9.4847

*** Psi4 exiting successfully. Buy a developer a beer!
