                               Psi4 1.3.2 release

  ==> Input File <==

--------------------------------------------------------------------------
#psi4
#
memory 32 gb

molecule  {
-1 1
  O        1.8996640     1.2894670    -0.0585490
  O        2.6513570    -0.8612621     0.2822190
  C       -2.1007360    -0.3533330    -0.4966910
  C       -3.0415820     0.2042600     0.5765370
  C       -0.7068410     0.1811810    -0.3555730
  C        0.4189211    -0.6254510    -0.0938897
  C        1.7796670     0.0321010     0.0519970
  H       -2.0810980    -1.4485100    -0.4425170
  H       -2.4999350    -0.0921100    -1.4864390
  H       -3.0846480     1.2965650     0.5261450
  H       -4.0584310    -0.1803650     0.4515950
  H       -2.6909580    -0.0729930     1.5749670
  H       -0.5778430     1.2611610    -0.4426850
  H        0.3073520    -1.6376590    -0.0083210
units angstrom
no_reorient  #important for SAPT in psi4, default
symmetry c1  #important for SAPT in psi4, default
}

set PROPERTIES_ORIGIN ["COM"]
properties('MP2/aug-cc-pvtz', properties = ['dipole'])
--------------------------------------------------------------------------

    Molecular point group: c1
  Charge       = -1
  Multiplicity = 1
  Basis Set: AUG-CC-PVTZ
    Blend: AUG-CC-PVTZ
  Basis Set: (AUG-CC-PVTZ AUX)
    Blend: AUG-CC-PVTZ-JKFIT

    Orbital Energies [Eh]
    ---------------------

    Doubly Occupied:

       1A    -20.296730     2A    -20.295292     3A    -11.143512
       4A    -11.114349     5A    -11.112037     6A    -11.092519
       7A    -11.070751     8A     -1.162489     9A     -1.066685
      10A     -0.948814    11A     -0.850965    12A     -0.743080
      13A     -0.633111    14A     -0.550305    15A     -0.497406
      16A     -0.484476    17A     -0.444640    18A     -0.419594
      19A     -0.407423    20A     -0.387144    21A     -0.369731
      22A     -0.358999    23A     -0.357354    24A     -0.215568
      25A     -0.205853    26A     -0.195361    27A     -0.187474

  @DF-RHF Final Energy:  -343.27263757186495

   => Energetics <=

    Nuclear Repulsion Energy =            270.3262428438276856
    One-Electron Energy =               -1013.9744351838417060
    Two-Electron Energy =                 400.3755547681490725
    Total Energy =                       -343.2726375718649479
  Basis Set: (AUG-CC-PVTZ AUX)
    Blend: AUG-CC-PVTZ-RI
    Molecular point group: c1

    Geometry (in Angstrom), charge = -1, multiplicity = 1:

       Center              X                  Y                   Z               Mass
    ------------   -----------------  -----------------  -----------------  -----------------
         O            1.756436959866     1.297206468199    -0.057945664642    15.994914619570
         O            2.508129959866    -0.853522631801     0.282822335358    15.994914619570
         C           -2.243963040134    -0.345593531801    -0.496087664642    12.000000000000
         C           -3.184809040134     0.211999468199     0.577140335358    12.000000000000
         C           -0.850068040134     0.188920468199    -0.354969664642    12.000000000000
         C            0.275694059866    -0.617711531801    -0.093286364642    12.000000000000
         C            1.636439959866     0.039840468199     0.052600335358    12.000000000000
         H           -2.224325040134    -1.440770531801    -0.441913664642     1.007825032230
         H           -2.643162040134    -0.084370531801    -1.485835664642     1.007825032230
         H           -3.227875040134     1.304304468199     0.526748335358     1.007825032230
         H           -4.201658040134    -0.172625531801     0.452198335358     1.007825032230
         H           -2.834185040134    -0.065253531801     1.575570335358     1.007825032230
         H           -0.721070040134     1.268900468199    -0.442081664642     1.007825032230
         H            0.164124959866    -1.629919531801    -0.007717664642     1.007825032230

  Basis Set: AUG-CC-PVTZ
    Blend: AUG-CC-PVTZ
  Basis Set: (AUG-CC-PVTZ AUX)
    Blend: AUG-CC-PVTZ-JKFIT
	 Reference Energy          =    -343.2726375718649479 [Eh]
	 Singles Energy            =      -0.0000000000000000 [Eh]
	 Same-Spin Energy          =      -0.3489739321199373 [Eh]
	 Opposite-Spin Energy      =      -1.1075922279333790 [Eh]
	 Correlation Energy        =      -1.4565661600533164 [Eh]
	 Total Energy              =    -344.7292037319182896 [Eh]

	 ================> DF-SCS-MP2 Energies <==================
	-----------------------------------------------------------
	 SCS Same-Spin Scale       =       0.3333333333333333 [-]
	 SCS Opposite-Spin Scale   =       1.2000000000000000 [-]
	 SCS Same-Spin Energy      =      -0.1163246440399791 [Eh]
	 SCS Opposite-Spin Energy  =      -1.3291106735200546 [Eh]
	 SCS Correlation Energy    =      -1.4454353175600336 [Eh]
	 SCS Total Energy          =    -344.7180728894250024 [Eh]
	-----------------------------------------------------------

  Dipole Moment: [D]
     X:    -9.3030      Y:    -1.1555      Z:    -0.5578     Total:     9.3911

*** Psi4 exiting successfully. Buy a developer a beer!
