                               Psi4 1.4a3.dev225

  ==> Input File <==

--------------------------------------------------------------------------
#psi4
#
memory 32 gb

molecule  {
-1 1
  O        1.8994270     1.2905180    -0.0615170
  O        2.6993700    -0.8109500     0.2832770
  C       -2.1001690    -0.3616000    -0.4913260
  C       -3.0433460     0.2119310     0.5709670
  C       -0.7080250     0.1770830    -0.3546910
  C        0.3885780    -0.5541740    -0.1016650
  C        1.7798570     0.0330080     0.0518740
  H       -2.0812530    -1.4558260    -0.4203270
  H       -2.4968010    -0.1155520    -1.4857470
  H       -3.0817280     1.3037570     0.5071420
  H       -4.0608920    -0.1705790     0.4451360
  H       -2.6986290    -0.0550030     1.5741980
  H       -0.5806440     1.2564400    -0.4499950
  H        0.3214078    -1.6222662     0.0049800
units angstrom
no_reorient  #important for SAPT in psi4, default
symmetry c1  #important for SAPT in psi4, default
}

set PROPERTIES_ORIGIN ["COM"]
properties('MP2/aug-cc-pvtz', properties = ['dipole'])
--------------------------------------------------------------------------

    Molecular point group: c1
  Charge       = -1
  Multiplicity = 1
  Basis Set: AUG-CC-PVTZ
    Blend: AUG-CC-PVTZ
  Basis Set: (AUG-CC-PVTZ AUX)
    Blend: AUG-CC-PVTZ-JKFIT

    Orbital Energies [Eh]
    ---------------------

    Doubly Occupied:

       1A    -20.295289     2A    -20.291252     3A    -11.141519
       4A    -11.115775     5A    -11.113970     6A    -11.085518
       7A    -11.068155     8A     -1.161480     9A     -1.060621
      10A     -0.954479    11A     -0.862719    12A     -0.744206
      13A     -0.634189    14A     -0.549148    15A     -0.494920
      16A     -0.487611    17A     -0.445862    18A     -0.419708
      19A     -0.409016    20A     -0.383194    21A     -0.375747
      22A     -0.357668    23A     -0.349946    24A     -0.211099
      25A     -0.208648    26A     -0.204444    27A     -0.190923

  @DF-RHF Final Energy:  -343.28580026670994

   => Energetics <=

    Nuclear Repulsion Energy =            270.9111205977407622
    One-Electron Energy =               -1015.1596281111762892
    Two-Electron Energy =                 400.9627072467255289
    Total Energy =                       -343.2858002667099413
  Basis Set: (AUG-CC-PVTZ AUX)
    Blend: AUG-CC-PVTZ-RI
    Molecular point group: c1

    Geometry (in Angstrom), charge = -1, multiplicity = 1:

       Center              X                  Y                   Z               Mass
    ------------   -----------------  -----------------  -----------------  -----------------
         O            1.752354817682     1.281634385513    -0.059757183542    15.994914619570
         O            2.552297817682    -0.819833614487     0.285036816458    15.994914619570
         C           -2.247241182318    -0.370483614487    -0.489566183542    12.000000000000
         C           -3.190418182318     0.203047385513     0.572726816458    12.000000000000
         C           -0.855097182318     0.168199385513    -0.352931183542    12.000000000000
         C            0.241505817682    -0.563057614487    -0.099905183542    12.000000000000
         C            1.632784817682     0.024124385513     0.053633816458    12.000000000000
         H           -2.228325182318    -1.464709614487    -0.418567183542     1.007825032230
         H           -2.643873182318    -0.124435614487    -1.483987183542     1.007825032230
         H           -3.228800182318     1.294873385513     0.508901816458     1.007825032230
         H           -4.207964182318    -0.179462614487     0.446895816458     1.007825032230
         H           -2.845701182318    -0.063886614487     1.575957816458     1.007825032230
         H           -0.727716182318     1.247556385513    -0.448235183542     1.007825032230
         H            0.174335617682    -1.631149814487     0.006739816458     1.007825032230

  Basis Set: AUG-CC-PVTZ
    Blend: AUG-CC-PVTZ
  Basis Set: (AUG-CC-PVTZ AUX)
    Blend: AUG-CC-PVTZ-JKFIT
	 Reference Energy          =    -343.2858002667099413 [Eh]
	 Singles Energy            =      -0.0000000000000000 [Eh]
	 Same-Spin Energy          =      -0.3481146962054578 [Eh]
	 Opposite-Spin Energy      =      -1.1054799201514567 [Eh]
	 Correlation Energy        =      -1.4535946163569144 [Eh]
	 Total Energy              =    -344.7393948830668364 [Eh]

	 ================> DF-SCS-MP2 Energies <==================
	-----------------------------------------------------------
	 SCS Same-Spin Scale       =       0.3333333333333333 [-]
	 SCS Opposite-Spin Scale   =       1.2000000000000000 [-]
	 SCS Same-Spin Energy      =      -0.1160382320684859 [Eh]
	 SCS Opposite-Spin Energy  =      -1.3265759041817480 [Eh]
	 SCS Correlation Energy    =      -1.4426141362502338 [Eh]
	 SCS Total Energy          =    -344.7284144029601975 [Eh]
	-----------------------------------------------------------

  Dipole Moment: [D]
     X:    -9.5246      Y:    -1.1793      Z:    -0.5685     Total:     9.6142

*** Psi4 exiting successfully. Buy a developer a beer!
