                               Psi4 1.3.2 release

  ==> Input File <==

--------------------------------------------------------------------------
#psi4
#
memory 32 gb

molecule  {
-1 1
  O        1.8996640     1.2894670    -0.0585490
  O        2.6973380    -0.8133440     0.2844750
  C       -2.1007360    -0.3533330    -0.4966910
  C       -3.0415820     0.2042600     0.5765370
  C       -0.7068410     0.1811810    -0.3555730
  C        0.3877500    -0.5533880    -0.1062960
  C        1.6879920    -0.0064607     0.0415714
  H       -2.0810980    -1.4485100    -0.4425170
  H       -2.4999350    -0.0921100    -1.4864390
  H       -3.0846480     1.2965650     0.5261450
  H       -4.0584310    -0.1803650     0.4515950
  H       -2.6909580    -0.0729930     1.5749670
  H       -0.5778430     1.2611610    -0.4426850
  H        0.3073520    -1.6376590    -0.0083210
units angstrom
no_reorient  #important for SAPT in psi4, default
symmetry c1  #important for SAPT in psi4, default
}

set PROPERTIES_ORIGIN ["COM"]
properties('MP2/aug-cc-pvtz', properties = ['dipole'])
--------------------------------------------------------------------------

    Molecular point group: c1
  Charge       = -1
  Multiplicity = 1
  Basis Set: AUG-CC-PVTZ
    Blend: AUG-CC-PVTZ
  Basis Set: (AUG-CC-PVTZ AUX)
    Blend: AUG-CC-PVTZ-JKFIT

    Orbital Energies [Eh]
    ---------------------

    Doubly Occupied:

       1A    -20.292329     2A    -20.286076     3A    -11.141630
       4A    -11.121249     5A    -11.120591     6A    -11.098230
       7A    -11.073884     8A     -1.134655     9A     -1.026996
      10A     -0.962909    11A     -0.877504    12A     -0.759059
      13A     -0.652776    14A     -0.562910    15A     -0.499662
      16A     -0.494362    17A     -0.438751    18A     -0.425631
      19A     -0.413380    20A     -0.385496    21A     -0.364077
      22A     -0.345597    23A     -0.344417    24A     -0.220174
      25A     -0.207728    26A     -0.191979    27A     -0.176440

  @DF-RHF Final Energy:  -343.26368280807259

   => Energetics <=

    Nuclear Repulsion Energy =            270.9188082727416145
    One-Electron Energy =               -1015.1279945473720545
    Two-Electron Energy =                 400.9455034665577955
    Total Energy =                       -343.2636828080725877
  Basis Set: (AUG-CC-PVTZ AUX)
    Blend: AUG-CC-PVTZ-RI
    Molecular point group: c1

    Geometry (in Angstrom), charge = -1, multiplicity = 1:

       Center              X                  Y                   Z               Mass
    ------------   -----------------  -----------------  -----------------  -----------------
         O            1.763895125153     1.285409141888    -0.055543733978    15.994914619570
         O            2.561569125153    -0.817401858112     0.287480266022    15.994914619570
         C           -2.236504874847    -0.357390858112    -0.493685733978    12.000000000000
         C           -3.177350874847     0.200202141888     0.579542266022    12.000000000000
         C           -0.842609874847     0.177123141888    -0.352567733978    12.000000000000
         C            0.251981125153    -0.557445858112    -0.103290733978    12.000000000000
         C            1.552223125153    -0.010518558112     0.044576666022    12.000000000000
         H           -2.216866874847    -1.452567858112    -0.439511733978     1.007825032230
         H           -2.635703874847    -0.096167858112    -1.483433733978     1.007825032230
         H           -3.220416874847     1.292507141888     0.529150266022     1.007825032230
         H           -4.194199874847    -0.184422858112     0.454600266022     1.007825032230
         H           -2.826726874847    -0.077050858112     1.577972266022     1.007825032230
         H           -0.713611874847     1.257103141888    -0.439679733978     1.007825032230
         H            0.171583125153    -1.641716858112    -0.005315733978     1.007825032230

  Basis Set: AUG-CC-PVTZ
    Blend: AUG-CC-PVTZ
  Basis Set: (AUG-CC-PVTZ AUX)
    Blend: AUG-CC-PVTZ-JKFIT
	 Reference Energy          =    -343.2636828080725877 [Eh]
	 Singles Energy            =      -0.0000000000000000 [Eh]
	 Same-Spin Energy          =      -0.3508277109622447 [Eh]
	 Opposite-Spin Energy      =      -1.1112372645355340 [Eh]
	 Correlation Energy        =      -1.4620649754977788 [Eh]
	 Total Energy              =    -344.7257477835703412 [Eh]

	 ================> DF-SCS-MP2 Energies <==================
	-----------------------------------------------------------
	 SCS Same-Spin Scale       =       0.3333333333333333 [-]
	 SCS Opposite-Spin Scale   =       1.2000000000000000 [-]
	 SCS Same-Spin Energy      =      -0.1169425703207482 [Eh]
	 SCS Opposite-Spin Energy  =      -1.3334847174426407 [Eh]
	 SCS Correlation Energy    =      -1.4504272877633890 [Eh]
	 SCS Total Energy          =    -344.7141100958359630 [Eh]
	-----------------------------------------------------------

  Dipole Moment: [D]
     X:   -10.1212      Y:    -1.3403      Z:    -0.6366     Total:    10.2293

*** Psi4 exiting successfully. Buy a developer a beer!
