                               Psi4 1.3.2 release

  ==> Input File <==

--------------------------------------------------------------------------
#psi4
#
memory 32 gb

molecule  {
-1 1
  O        1.8996640     1.2894670    -0.0585490
  O        2.6973380    -0.8133440     0.2844750
  C       -2.1007360    -0.3533330    -0.4966910
  C       -3.1007837     0.1608484     0.5441939
  C       -0.6862904     0.1383197    -0.4180528
  C        0.3877500    -0.5533880    -0.1062960
  C        1.7796670     0.0321010     0.0519970
  H       -2.0810980    -1.4485100    -0.4425170
  H       -2.4999350    -0.0921100    -1.4864390
  H       -3.0846480     1.2965650     0.5261450
  H       -4.0584310    -0.1803650     0.4515950
  H       -2.6909580    -0.0729930     1.5749670
  H       -0.5778430     1.2611610    -0.4426850
  H        0.3073520    -1.6376590    -0.0083210
units angstrom
no_reorient  #important for SAPT in psi4, default
symmetry c1  #important for SAPT in psi4, default
}

set PROPERTIES_ORIGIN ["COM"]
properties('MP2/aug-cc-pvtz', properties = ['dipole'])
--------------------------------------------------------------------------

    Molecular point group: c1
  Charge       = -1
  Multiplicity = 1
  Basis Set: AUG-CC-PVTZ
    Blend: AUG-CC-PVTZ
  Basis Set: (AUG-CC-PVTZ AUX)
    Blend: AUG-CC-PVTZ-JKFIT

    Orbital Energies [Eh]
    ---------------------

    Doubly Occupied:

       1A    -20.296387     2A    -20.292703     3A    -11.143400
       4A    -11.118215     5A    -11.114365     6A    -11.085735
       7A    -11.067972     8A     -1.162836     9A     -1.061982
      10A     -0.954561    11A     -0.869747    12A     -0.747845
      13A     -0.627279    14A     -0.549079    15A     -0.501955
      16A     -0.483476    17A     -0.448688    18A     -0.429040
      19A     -0.402377    20A     -0.380408    21A     -0.373090
      22A     -0.358519    23A     -0.336431    24A     -0.214474
      25A     -0.210642    26A     -0.209764    27A     -0.191976

  @DF-RHF Final Energy:  -343.27487158229235

   => Energetics <=

    Nuclear Repulsion Energy =            270.6530920376938525
    One-Electron Energy =               -1014.5900321865530032
    Two-Electron Energy =                 400.6620685665667452
    Total Energy =                       -343.2748715822923486
  Basis Set: (AUG-CC-PVTZ AUX)
    Blend: AUG-CC-PVTZ-RI
    Molecular point group: c1

    Geometry (in Angstrom), charge = -1, multiplicity = 1:

       Center              X                  Y                   Z               Mass
    ------------   -----------------  -----------------  -----------------  -----------------
         O            1.757470880204     1.291189713208    -0.045318365262    15.994914619570
         O            2.555144880204    -0.811621286792     0.297705634738    15.994914619570
         C           -2.242929119796    -0.351610286792    -0.483460365262    12.000000000000
         C           -3.242976819796     0.162571113208     0.557424534738    12.000000000000
         C           -0.828483519796     0.140042413208    -0.404822165262    12.000000000000
         C            0.245556880204    -0.551665286792    -0.093065365262    12.000000000000
         C            1.637473880204     0.033823713208     0.065227634738    12.000000000000
         H           -2.223291119796    -1.446787286792    -0.429286365262     1.007825032230
         H           -2.642128119796    -0.090387286792    -1.473208365262     1.007825032230
         H           -3.226841119796     1.298287713208     0.539375634738     1.007825032230
         H           -4.200624119796    -0.178642286792     0.464825634738     1.007825032230
         H           -2.833151119796    -0.071270286792     1.588197634738     1.007825032230
         H           -0.720036119796     1.262883713208    -0.429454365262     1.007825032230
         H            0.165158880204    -1.635936286792     0.004909634738     1.007825032230

  Basis Set: AUG-CC-PVTZ
    Blend: AUG-CC-PVTZ
  Basis Set: (AUG-CC-PVTZ AUX)
    Blend: AUG-CC-PVTZ-JKFIT
	 Reference Energy          =    -343.2748715822923486 [Eh]
	 Singles Energy            =      -0.0000000000000000 [Eh]
	 Same-Spin Energy          =      -0.3482425505339718 [Eh]
	 Opposite-Spin Energy      =      -1.1057263865837914 [Eh]
	 Correlation Energy        =      -1.4539689371177631 [Eh]
	 Total Energy              =    -344.7288405194100847 [Eh]

	 ================> DF-SCS-MP2 Energies <==================
	-----------------------------------------------------------
	 SCS Same-Spin Scale       =       0.3333333333333333 [-]
	 SCS Opposite-Spin Scale   =       1.2000000000000000 [-]
	 SCS Same-Spin Energy      =      -0.1160808501779906 [Eh]
	 SCS Opposite-Spin Energy  =      -1.3268716639005496 [Eh]
	 SCS Correlation Energy    =      -1.4429525140785402 [Eh]
	 SCS Total Energy          =    -344.7178240963708618 [Eh]
	-----------------------------------------------------------

  Dipole Moment: [D]
     X:    -9.5317      Y:    -1.2275      Z:    -0.5465     Total:     9.6259

*** Psi4 exiting successfully. Buy a developer a beer!
