                               Psi4 1.3.2 release

  ==> Input File <==

--------------------------------------------------------------------------
#psi4
#
memory 32 gb

molecule  {
-1 1
  O        1.8996640     1.2894670    -0.0585490
  O        2.6973380    -0.8133440     0.2844750
  C       -2.1007360    -0.3533330    -0.4966910
  C       -3.0516325     0.1971277     0.5713485
  C       -0.7031489     0.1741361    -0.3659641
  C        0.3877500    -0.5533880    -0.1062960
  C        1.7796670     0.0321010     0.0519970
  H       -2.0810980    -1.4485100    -0.4425170
  H       -2.4999350    -0.0921100    -1.4864390
  H       -3.0846480     1.2965650     0.5261450
  H       -4.0584310    -0.1803650     0.4515950
  H       -2.6909580    -0.0729930     1.5749670
  H       -0.5778430     1.2611610    -0.4426850
  H        0.3073520    -1.6376590    -0.0083210
units angstrom
no_reorient  #important for SAPT in psi4, default
symmetry c1  #important for SAPT in psi4, default
}

set PROPERTIES_ORIGIN ["COM"]
properties('MP2/aug-cc-pvtz', properties = ['dipole'])
--------------------------------------------------------------------------

    Molecular point group: c1
  Charge       = -1
  Multiplicity = 1
  Basis Set: AUG-CC-PVTZ
    Blend: AUG-CC-PVTZ
  Basis Set: (AUG-CC-PVTZ AUX)
    Blend: AUG-CC-PVTZ-JKFIT

    Orbital Energies [Eh]
    ---------------------

    Doubly Occupied:

       1A    -20.295470     2A    -20.291768     3A    -11.142172
       4A    -11.116002     5A    -11.113975     6A    -11.085322
       7A    -11.069495     8A     -1.161937     9A     -1.061143
      10A     -0.954187    11A     -0.863565    12A     -0.744300
      13A     -0.631905    14A     -0.548932    15A     -0.494743
      16A     -0.486386    17A     -0.446037    18A     -0.420881
      19A     -0.407733    20A     -0.381698    21A     -0.377010
      22A     -0.358105    23A     -0.347026    24A     -0.211483
      25A     -0.209106    26A     -0.205915    27A     -0.191288

  @DF-RHF Final Energy:  -343.28559788746225

   => Energetics <=

    Nuclear Repulsion Energy =            270.8231379395494400
    One-Electron Energy =               -1014.9823018347069592
    Two-Electron Energy =                 400.8735660076952172
    Total Energy =                       -343.2855978874622451
  Basis Set: (AUG-CC-PVTZ AUX)
    Blend: AUG-CC-PVTZ-RI
    Molecular point group: c1

    Geometry (in Angstrom), charge = -1, multiplicity = 1:

       Center              X                  Y                   Z               Mass
    ------------   -----------------  -----------------  -----------------  -----------------
         O            1.753558376316     1.282454776008    -0.054919288049    15.994914619570
         O            2.551232376316    -0.820356223992     0.288104711951    15.994914619570
         C           -2.246841623684    -0.360345223992    -0.493061288049    12.000000000000
         C           -3.197738123684     0.190115476008     0.574978211951    12.000000000000
         C           -0.849254523684     0.167123876008    -0.362334388049    12.000000000000
         C            0.241644376316    -0.560400223992    -0.102666288049    12.000000000000
         C            1.633561376316     0.025088776008     0.055626711951    12.000000000000
         H           -2.227203623684    -1.455522223992    -0.438887288049     1.007825032230
         H           -2.646040623684    -0.099122223992    -1.482809288049     1.007825032230
         H           -3.230753623684     1.289552776008     0.529774711951     1.007825032230
         H           -4.204536623684    -0.187377223992     0.455224711951     1.007825032230
         H           -2.837063623684    -0.080005223992     1.578596711951     1.007825032230
         H           -0.723948623684     1.254148776008    -0.439055288049     1.007825032230
         H            0.161246376316    -1.644671223992    -0.004691288049     1.007825032230

  Basis Set: AUG-CC-PVTZ
    Blend: AUG-CC-PVTZ
  Basis Set: (AUG-CC-PVTZ AUX)
    Blend: AUG-CC-PVTZ-JKFIT
	 Reference Energy          =    -343.2855978874622451 [Eh]
	 Singles Energy            =      -0.0000000000000000 [Eh]
	 Same-Spin Energy          =      -0.3481128091352519 [Eh]
	 Opposite-Spin Energy      =      -1.1054719018564771 [Eh]
	 Correlation Energy        =      -1.4535847109917290 [Eh]
	 Total Energy              =    -344.7391825984539651 [Eh]

	 ================> DF-SCS-MP2 Energies <==================
	-----------------------------------------------------------
	 SCS Same-Spin Scale       =       0.3333333333333333 [-]
	 SCS Opposite-Spin Scale   =       1.2000000000000000 [-]
	 SCS Same-Spin Energy      =      -0.1160376030450840 [Eh]
	 SCS Opposite-Spin Energy  =      -1.3265662822277726 [Eh]
	 SCS Correlation Energy    =      -1.4426038852728567 [Eh]
	 SCS Total Energy          =    -344.7282017727350762 [Eh]
	-----------------------------------------------------------

  Dipole Moment: [D]
     X:    -9.5209      Y:    -1.1645      Z:    -0.5730     Total:     9.6090

*** Psi4 exiting successfully. Buy a developer a beer!
