                               Psi4 1.3.2 release

  ==> Input File <==

--------------------------------------------------------------------------
#psi4
#
memory 32 gb

molecule  {
-1 1
  O        1.8996640     1.2894670    -0.0585490
  O        2.7266021    -0.7801028     0.2856253
  C       -2.1007360    -0.3533330    -0.4966910
  C       -3.0415820     0.2042600     0.5765370
  C       -0.7068410     0.1811810    -0.3555730
  C        0.3690839    -0.5044421    -0.1143279
  C        1.7796670     0.0321010     0.0519970
  H       -2.0810980    -1.4485100    -0.4425170
  H       -2.4999350    -0.0921100    -1.4864390
  H       -3.0846480     1.2965650     0.5261450
  H       -4.0584310    -0.1803650     0.4515950
  H       -2.6909580    -0.0729930     1.5749670
  H       -0.5778430     1.2611610    -0.4426850
  H        0.3073520    -1.6376590    -0.0083210
units angstrom
no_reorient  #important for SAPT in psi4, default
symmetry c1  #important for SAPT in psi4, default
}

set PROPERTIES_ORIGIN ["COM"]
properties('MP2/aug-cc-pvtz', properties = ['dipole'])
--------------------------------------------------------------------------

    Molecular point group: c1
  Charge       = -1
  Multiplicity = 1
  Basis Set: AUG-CC-PVTZ
    Blend: AUG-CC-PVTZ
  Basis Set: (AUG-CC-PVTZ AUX)
    Blend: AUG-CC-PVTZ-JKFIT

    Orbital Energies [Eh]
    ---------------------

    Doubly Occupied:

       1A    -20.295713     2A    -20.288692     3A    -11.141765
       4A    -11.116672     5A    -11.115301     6A    -11.080440
       7A    -11.070107     8A     -1.162141     9A     -1.057892
      10A     -0.958549    11A     -0.870361    12A     -0.744642
      13A     -0.633506    14A     -0.549945    15A     -0.496767
      16A     -0.483189    17A     -0.446895    18A     -0.419488
      19A     -0.409467    20A     -0.382167    21A     -0.378358
      22A     -0.358052    23A     -0.339815    24A     -0.216444
      25A     -0.213438    26A     -0.204935    27A     -0.188849

  @DF-RHF Final Energy:  -343.28209839996481

   => Energetics <=

    Nuclear Repulsion Energy =            271.2718919492358509
    One-Electron Energy =               -1015.8608023936209293
    Two-Electron Energy =                 401.3068120444202691
    Total Energy =                       -343.2820983999648092
  Basis Set: (AUG-CC-PVTZ AUX)
    Blend: AUG-CC-PVTZ-RI
    Molecular point group: c1

    Geometry (in Angstrom), charge = -1, multiplicity = 1:

       Center              X                  Y                   Z               Mass
    ------------   -----------------  -----------------  -----------------  -----------------
         O            1.750323627865     1.269438747898    -0.056019513053    15.994914619570
         O            2.577261727865    -0.800131052102     0.288154786947    15.994914619570
         C           -2.250076372135    -0.373361252102    -0.494161513053    12.000000000000
         C           -3.190922372135     0.184231747898     0.579066486947    12.000000000000
         C           -0.856181372135     0.161152747898    -0.353043513053    12.000000000000
         C            0.219743527865    -0.524470352102    -0.111798413053    12.000000000000
         C            1.630326627865     0.012072747898     0.054526486947    12.000000000000
         H           -2.230438372135    -1.468538252102    -0.439987513053     1.007825032230
         H           -2.649275372135    -0.112138252102    -1.483909513053     1.007825032230
         H           -3.233988372135     1.276536747898     0.528674486947     1.007825032230
         H           -4.207771372135    -0.200393252102     0.454124486947     1.007825032230
         H           -2.840298372135    -0.093021252102     1.577496486947     1.007825032230
         H           -0.727183372135     1.241132747898    -0.440155513053     1.007825032230
         H            0.158011627865    -1.657687252102    -0.005791513053     1.007825032230

  Basis Set: AUG-CC-PVTZ
    Blend: AUG-CC-PVTZ
  Basis Set: (AUG-CC-PVTZ AUX)
    Blend: AUG-CC-PVTZ-JKFIT
	 Reference Energy          =    -343.2820983999648092 [Eh]
	 Singles Energy            =      -0.0000000000000000 [Eh]
	 Same-Spin Energy          =      -0.3479389875025226 [Eh]
	 Opposite-Spin Energy      =      -1.1049811446634235 [Eh]
	 Correlation Energy        =      -1.4529201321659460 [Eh]
	 Total Energy              =    -344.7350185321307663 [Eh]

	 ================> DF-SCS-MP2 Energies <==================
	-----------------------------------------------------------
	 SCS Same-Spin Scale       =       0.3333333333333333 [-]
	 SCS Opposite-Spin Scale   =       1.2000000000000000 [-]
	 SCS Same-Spin Energy      =      -0.1159796625008409 [Eh]
	 SCS Opposite-Spin Energy  =      -1.3259773735961080 [Eh]
	 SCS Correlation Energy    =      -1.4419570360969489 [Eh]
	 SCS Total Energy          =    -344.7240554360617466 [Eh]
	-----------------------------------------------------------

  Dipole Moment: [D]
     X:    -9.6180      Y:    -1.1348      Z:    -0.5909     Total:     9.7027

*** Psi4 exiting successfully. Buy a developer a beer!
