                               Psi4 1.3.2 release

  ==> Input File <==

--------------------------------------------------------------------------
#psi4
#
memory 32 gb

molecule  {
-1 1
  O        1.8996640     1.2894670    -0.0585490
  O        2.6973380    -0.8133440     0.2844750
  C       -2.1007360    -0.3533330    -0.4966910
  C       -3.0415820     0.2042600     0.5765370
  C       -0.6894190     0.1320222    -0.3511666
  C        0.3877500    -0.5533880    -0.1062960
  C        1.7796670     0.0321010     0.0519970
  H       -2.0431114    -1.4469392    -0.4380562
  H       -2.4999350    -0.0921100    -1.4864390
  H       -3.0846480     1.2965650     0.5261450
  H       -4.0584310    -0.1803650     0.4515950
  H       -2.6909580    -0.0729930     1.5749670
  H       -0.5778430     1.2611610    -0.4426850
  H        0.3073520    -1.6376590    -0.0083210
units angstrom
no_reorient  #important for SAPT in psi4, default
symmetry c1  #important for SAPT in psi4, default
}

set PROPERTIES_ORIGIN ["COM"]
properties('MP2/aug-cc-pvtz', properties = ['dipole'])
--------------------------------------------------------------------------

    Molecular point group: c1
  Charge       = -1
  Multiplicity = 1
  Basis Set: AUG-CC-PVTZ
    Blend: AUG-CC-PVTZ
  Basis Set: (AUG-CC-PVTZ AUX)
    Blend: AUG-CC-PVTZ-JKFIT

    Orbital Energies [Eh]
    ---------------------

    Doubly Occupied:

       1A    -20.295569     2A    -20.292021     3A    -11.142671
       4A    -11.116785     5A    -11.114240     6A    -11.082753
       7A    -11.063618     8A     -1.162105     9A     -1.061255
      10A     -0.956552    11A     -0.869895    12A     -0.746085
      13A     -0.625629    14A     -0.550099    15A     -0.497569
      16A     -0.484403    17A     -0.446101    18A     -0.420316
      19A     -0.409697    20A     -0.385805    21A     -0.378659
      22A     -0.358822    23A     -0.331824    24A     -0.214466
      25A     -0.211931    26A     -0.209186    27A     -0.191391

  @DF-RHF Final Energy:  -343.28267477903285

   => Energetics <=

    Nuclear Repulsion Energy =            271.3259062368950936
    One-Electron Energy =               -1015.9782711025825392
    Two-Electron Energy =                 401.3696900866546002
    Total Energy =                       -343.2826747790328454
  Basis Set: (AUG-CC-PVTZ AUX)
    Blend: AUG-CC-PVTZ-RI
    Molecular point group: c1

    Geometry (in Angstrom), charge = -1, multiplicity = 1:

       Center              X                  Y                   Z               Mass
    ------------   -----------------  -----------------  -----------------  -----------------
         O            1.750290670335     1.286677076766    -0.057386133237    15.994914619570
         O            2.547964670335    -0.816133923234     0.285637866763    15.994914619570
         C           -2.250109329665    -0.356122923234    -0.495528133237    12.000000000000
         C           -3.190955329665     0.201470076766     0.577699866763    12.000000000000
         C           -0.838792329665     0.129232276766    -0.350003733237    12.000000000000
         C            0.238376670335    -0.556177923234    -0.105133133237    12.000000000000
         C            1.630293670335     0.029311076766     0.053159866763    12.000000000000
         H           -2.192484729665    -1.449729123234    -0.436893333237     1.007825032230
         H           -2.649308329665    -0.094899923234    -1.485276133237     1.007825032230
         H           -3.234021329665     1.293775076766     0.527307866763     1.007825032230
         H           -4.207804329665    -0.183154923234     0.452757866763     1.007825032230
         H           -2.840331329665    -0.075782923234     1.576129866763     1.007825032230
         H           -0.727216329665     1.258371076766    -0.441522133237     1.007825032230
         H            0.157978670335    -1.640448923234    -0.007158133237     1.007825032230

  Basis Set: AUG-CC-PVTZ
    Blend: AUG-CC-PVTZ
  Basis Set: (AUG-CC-PVTZ AUX)
    Blend: AUG-CC-PVTZ-JKFIT
	 Reference Energy          =    -343.2826747790328454 [Eh]
	 Singles Energy            =      -0.0000000000000000 [Eh]
	 Same-Spin Energy          =      -0.3480500088815621 [Eh]
	 Opposite-Spin Energy      =      -1.1050544864918095 [Eh]
	 Correlation Energy        =      -1.4531044953733716 [Eh]
	 Total Energy              =    -344.7357792744062408 [Eh]

	 ================> DF-SCS-MP2 Energies <==================
	-----------------------------------------------------------
	 SCS Same-Spin Scale       =       0.3333333333333333 [-]
	 SCS Opposite-Spin Scale   =       1.2000000000000000 [-]
	 SCS Same-Spin Energy      =      -0.1160166696271873 [Eh]
	 SCS Opposite-Spin Energy  =      -1.3260653837901712 [Eh]
	 SCS Correlation Energy    =      -1.4420820534173586 [Eh]
	 SCS Total Energy          =    -344.7247568324502254 [Eh]
	-----------------------------------------------------------

  Dipole Moment: [D]
     X:    -9.5081      Y:    -1.1777      Z:    -0.5613     Total:     9.5972

*** Psi4 exiting successfully. Buy a developer a beer!
