                               Psi4 1.3.2 release

  ==> Input File <==

--------------------------------------------------------------------------
#psi4
#
memory 32 gb

molecule  {
-1 1
  O        1.8996640     1.2894670    -0.0585490
  O        2.6973380    -0.8133440     0.2844750
  C       -2.1007360    -0.3533330    -0.4966910
  C       -3.0415820     0.2042600     0.5765370
  C       -0.6800918     0.2196166    -0.3553699
  C        0.3877500    -0.5533880    -0.1062960
  C        1.7593085     0.0803313     0.0437506
  H       -2.0810980    -1.4485100    -0.4425170
  H       -2.4999350    -0.0921100    -1.4864390
  H       -3.0846480     1.2965650     0.5261450
  H       -4.0584310    -0.1803650     0.4515950
  H       -2.6909580    -0.0729930     1.5749670
  H       -0.5778430     1.2611610    -0.4426850
  H        0.3073520    -1.6376590    -0.0083210
units angstrom
no_reorient  #important for SAPT in psi4, default
symmetry c1  #important for SAPT in psi4, default
}

set PROPERTIES_ORIGIN ["COM"]
properties('MP2/aug-cc-pvtz', properties = ['dipole'])
--------------------------------------------------------------------------

    Molecular point group: c1
  Charge       = -1
  Multiplicity = 1
  Basis Set: AUG-CC-PVTZ
    Blend: AUG-CC-PVTZ
  Basis Set: (AUG-CC-PVTZ AUX)
    Blend: AUG-CC-PVTZ-JKFIT

    Orbital Energies [Eh]
    ---------------------

    Doubly Occupied:

       1A    -20.303136     2A    -20.282745     3A    -11.140282
       4A    -11.115498     5A    -11.114860     6A    -11.084499
       7A    -11.070760     8A     -1.173625     9A     -1.049720
      10A     -0.949671    11A     -0.864207    12A     -0.739584
      13A     -0.636667    14A     -0.550869    15A     -0.493303
      16A     -0.485509    17A     -0.450903    18A     -0.420450
      19A     -0.407271    20A     -0.382636    21A     -0.372352
      22A     -0.361505    23A     -0.354877    24A     -0.213119
      25A     -0.206944    26A     -0.201035    27A     -0.187545

  @DF-RHF Final Energy:  -343.27959430006251

   => Energetics <=

    Nuclear Repulsion Energy =            270.8618240750857922
    One-Electron Energy =               -1015.0556931550744366
    Two-Electron Energy =                 400.9142747799261315
    Total Energy =                       -343.2795943000625130
  Basis Set: (AUG-CC-PVTZ AUX)
    Blend: AUG-CC-PVTZ-RI
    Molecular point group: c1

    Geometry (in Angstrom), charge = -1, multiplicity = 1:

       Center              X                  Y                   Z               Mass
    ------------   -----------------  -----------------  -----------------  -----------------
         O            1.752013726804     1.270236874725    -0.055832367570    15.994914619570
         O            2.549687726804    -0.832574125275     0.287191632430    15.994914619570
         C           -2.248386273196    -0.372563125275    -0.493974367570    12.000000000000
         C           -3.189232273196     0.185029874725     0.579253632430    12.000000000000
         C           -0.827742073196     0.200386474725    -0.352653267570    12.000000000000
         C            0.240099726804    -0.572618125275    -0.103579367570    12.000000000000
         C            1.611658226804     0.061101174725     0.046467232430    12.000000000000
         H           -2.228748273196    -1.467740125275    -0.439800367570     1.007825032230
         H           -2.647585273196    -0.111340125275    -1.483722367570     1.007825032230
         H           -3.232298273196     1.277334874725     0.528861632430     1.007825032230
         H           -4.206081273196    -0.199595125275     0.454311632430     1.007825032230
         H           -2.838608273196    -0.092223125275     1.577683632430     1.007825032230
         H           -0.725493273196     1.241930874725    -0.439968367570     1.007825032230
         H            0.159701726804    -1.656889125275    -0.005604367570     1.007825032230

  Basis Set: AUG-CC-PVTZ
    Blend: AUG-CC-PVTZ
  Basis Set: (AUG-CC-PVTZ AUX)
    Blend: AUG-CC-PVTZ-JKFIT
	 Reference Energy          =    -343.2795943000625130 [Eh]
	 Singles Energy            =      -0.0000000000000000 [Eh]
	 Same-Spin Energy          =      -0.3478849963569106 [Eh]
	 Opposite-Spin Energy      =      -1.1054050408499692 [Eh]
	 Correlation Energy        =      -1.4532900372068798 [Eh]
	 Total Energy              =    -344.7328843372694109 [Eh]

	 ================> DF-SCS-MP2 Energies <==================
	-----------------------------------------------------------
	 SCS Same-Spin Scale       =       0.3333333333333333 [-]
	 SCS Opposite-Spin Scale   =       1.2000000000000000 [-]
	 SCS Same-Spin Energy      =      -0.1159616654523035 [Eh]
	 SCS Opposite-Spin Energy  =      -1.3264860490199630 [Eh]
	 SCS Correlation Energy    =      -1.4424477144722665 [Eh]
	 SCS Total Energy          =    -344.7220420145347930 [Eh]
	-----------------------------------------------------------

  Dipole Moment: [D]
     X:    -9.6838      Y:    -0.6404      Z:    -0.6643     Total:     9.7276

*** Psi4 exiting successfully. Buy a developer a beer!
