                               Psi4 1.4a3.dev225

  ==> Input File <==

--------------------------------------------------------------------------
#psi4
#
memory 32 gb

molecule  {
-1 1
  O        1.8994270     1.2905180    -0.0615170
  O        2.6993700    -0.8109500     0.2832770
  C       -2.1001690    -0.3616000    -0.4913260
  C       -3.0433460     0.2119310     0.5709670
  C       -0.7080250     0.1770830    -0.3546910
  C        0.3885780    -0.5541740    -0.1016650
  C        1.7798570     0.0330080     0.0518740
  H       -2.0812530    -1.4558260    -0.4203270
  H       -2.4968010    -0.1155520    -1.4857470
  H       -3.0817280     1.3037570     0.5071420
  H       -4.0608920    -0.1705790     0.4451360
  H       -2.6986290    -0.0550030     1.5741980
  H       -0.5806440     1.2564400    -0.4499950
  H        0.3412360    -1.5997621     0.0056176
units angstrom
no_reorient  #important for SAPT in psi4, default
symmetry c1  #important for SAPT in psi4, default
}

set PROPERTIES_ORIGIN ["COM"]
properties('MP2/aug-cc-pvtz', properties = ['dipole'])
--------------------------------------------------------------------------

    Molecular point group: c1
  Charge       = -1
  Multiplicity = 1
  Basis Set: AUG-CC-PVTZ
    Blend: AUG-CC-PVTZ
  Basis Set: (AUG-CC-PVTZ AUX)
    Blend: AUG-CC-PVTZ-JKFIT

    Orbital Energies [Eh]
    ---------------------

    Doubly Occupied:

       1A    -20.295238     2A    -20.290726     3A    -11.140768
       4A    -11.115762     5A    -11.113950     6A    -11.085525
       7A    -11.065238     8A     -1.161224     9A     -1.060355
      10A     -0.954510    11A     -0.863246    12A     -0.744827
      13A     -0.635779    14A     -0.549226    15A     -0.495157
      16A     -0.489701    17A     -0.445777    18A     -0.420736
      19A     -0.409072    20A     -0.383430    21A     -0.375682
      22A     -0.357384    23A     -0.351019    24A     -0.210822
      25A     -0.208196    26A     -0.204279    27A     -0.190686

  @DF-RHF Final Energy:  -343.28531368405908

   => Energetics <=

    Nuclear Repulsion Energy =            271.0258883580339102
    One-Electron Energy =               -1015.3857720687703932
    Two-Electron Energy =                 401.0745700266774634
    Total Energy =                       -343.2853136840590764
  Basis Set: (AUG-CC-PVTZ AUX)
    Blend: AUG-CC-PVTZ-RI
    Molecular point group: c1

    Geometry (in Angstrom), charge = -1, multiplicity = 1:

       Center              X                  Y                   Z               Mass
    ------------   -----------------  -----------------  -----------------  -----------------
         O            1.752153056502     1.281405395802    -0.059763671419    15.994914619570
         O            2.552096056502    -0.820062604198     0.285030328581    15.994914619570
         C           -2.247442943498    -0.370712604198    -0.489572671419    12.000000000000
         C           -3.190619943498     0.202818395802     0.572720328581    12.000000000000
         C           -0.855298943498     0.167970395802    -0.352937671419    12.000000000000
         C            0.241304056502    -0.563286604198    -0.099911671419    12.000000000000
         C            1.632583056502     0.023895395802     0.053627328581    12.000000000000
         H           -2.228526943498    -1.464938604198    -0.418573671419     1.007825032230
         H           -2.644074943498    -0.124664604198    -1.483993671419     1.007825032230
         H           -3.229001943498     1.294644395802     0.508895328581     1.007825032230
         H           -4.208165943498    -0.179691604198     0.446889328581     1.007825032230
         H           -2.845902943498    -0.064115604198     1.575951328581     1.007825032230
         H           -0.727917943498     1.247327395802    -0.448241671419     1.007825032230
         H            0.193962056502    -1.608874704198     0.007370928581     1.007825032230

  Basis Set: AUG-CC-PVTZ
    Blend: AUG-CC-PVTZ
  Basis Set: (AUG-CC-PVTZ AUX)
    Blend: AUG-CC-PVTZ-JKFIT
	 Reference Energy          =    -343.2853136840590764 [Eh]
	 Singles Energy            =      -0.0000000000000000 [Eh]
	 Same-Spin Energy          =      -0.3480560545601523 [Eh]
	 Opposite-Spin Energy      =      -1.1053261982945557 [Eh]
	 Correlation Energy        =      -1.4533822528547080 [Eh]
	 Total Energy              =    -344.7386959369137571 [Eh]

	 ================> DF-SCS-MP2 Energies <==================
	-----------------------------------------------------------
	 SCS Same-Spin Scale       =       0.3333333333333333 [-]
	 SCS Opposite-Spin Scale   =       1.2000000000000000 [-]
	 SCS Same-Spin Energy      =      -0.1160186848533841 [Eh]
	 SCS Opposite-Spin Energy  =      -1.3263914379534667 [Eh]
	 SCS Correlation Energy    =      -1.4424101228068509 [Eh]
	 SCS Total Energy          =    -344.7277238068659244 [Eh]
	-----------------------------------------------------------

  Dipole Moment: [D]
     X:    -9.5318      Y:    -1.1988      Z:    -0.5676     Total:     9.6236

*** Psi4 exiting successfully. Buy a developer a beer!
