                               Psi4 1.3.2 release

  ==> Input File <==

--------------------------------------------------------------------------
#psi4
#
memory 32 gb

molecule  {
-1 1
  O        1.8996640     1.2894670    -0.0585490
  O        2.6973380    -0.8133440     0.2844750
  C       -2.1007360    -0.3533330    -0.4966910
  C       -3.0415820     0.2042600     0.5765370
  C       -0.7068410     0.1811810    -0.3555730
  C        0.3877500    -0.5533880    -0.1062960
  C        1.7607386    -0.1662362     0.0694346
  H       -2.0810980    -1.4485100    -0.4425170
  H       -2.4999350    -0.0921100    -1.4864390
  H       -3.0846480     1.2965650     0.5261450
  H       -4.0584310    -0.1803650     0.4515950
  H       -2.6909580    -0.0729930     1.5749670
  H       -0.5778430     1.2611610    -0.4426850
  H        0.3073520    -1.6376590    -0.0083210
units angstrom
no_reorient  #important for SAPT in psi4, default
symmetry c1  #important for SAPT in psi4, default
}

set PROPERTIES_ORIGIN ["COM"]
properties('MP2/aug-cc-pvtz', properties = ['dipole'])
--------------------------------------------------------------------------

    Molecular point group: c1
  Charge       = -1
  Multiplicity = 1
  Basis Set: AUG-CC-PVTZ
    Blend: AUG-CC-PVTZ
  Basis Set: (AUG-CC-PVTZ AUX)
    Blend: AUG-CC-PVTZ-JKFIT

    Orbital Energies [Eh]
    ---------------------

    Doubly Occupied:

       1A    -20.331293     2A    -20.248163     3A    -11.138221
       4A    -11.119535     5A    -11.118940     6A    -11.097972
       7A    -11.074367     8A     -1.219783     9A     -0.980368
      10A     -0.954507    11A     -0.869726    12A     -0.756987
      13A     -0.657887    14A     -0.556748    15A     -0.501894
      16A     -0.489086    17A     -0.466751    18A     -0.426179
      19A     -0.414354    20A     -0.386803    21A     -0.376591
      22A     -0.374272    23A     -0.350003    24A     -0.218423
      25A     -0.196610    26A     -0.166692    27A     -0.153749

  @DF-RHF Final Energy:  -343.23085567238803

   => Energetics <=

    Nuclear Repulsion Energy =            270.8692927312683310
    One-Electron Energy =               -1014.9084915942739826
    Two-Electron Energy =                 400.8083431906175633
    Total Energy =                       -343.2308556723880315
  Basis Set: (AUG-CC-PVTZ AUX)
    Blend: AUG-CC-PVTZ-RI
    Molecular point group: c1

    Geometry (in Angstrom), charge = -1, multiplicity = 1:

       Center              X                  Y                   Z               Mass
    ------------   -----------------  -----------------  -----------------  -----------------
         O            1.755081326514     1.304767147409    -0.058919570570    15.994914619570
         O            2.552755326514    -0.798043852591     0.284104429430    15.994914619570
         C           -2.245318673486    -0.338032852591    -0.497061570570    12.000000000000
         C           -3.186164673486     0.219560147409     0.576166429430    12.000000000000
         C           -0.851423673486     0.196481147409    -0.355943570570    12.000000000000
         C            0.243167326514    -0.538087852591    -0.106666570570    12.000000000000
         C            1.616155926514    -0.150936052591     0.069064029430    12.000000000000
         H           -2.225680673486    -1.433209852591    -0.442887570570     1.007825032230
         H           -2.644517673486    -0.076809852591    -1.486809570570     1.007825032230
         H           -3.229230673486     1.311865147409     0.525774429430     1.007825032230
         H           -4.203013673486    -0.165064852591     0.451224429430     1.007825032230
         H           -2.835540673486    -0.057692852591     1.574596429430     1.007825032230
         H           -0.722425673486     1.276461147409    -0.443055570570     1.007825032230
         H            0.162769326514    -1.622358852591    -0.008691570570     1.007825032230

  Basis Set: AUG-CC-PVTZ
    Blend: AUG-CC-PVTZ
  Basis Set: (AUG-CC-PVTZ AUX)
    Blend: AUG-CC-PVTZ-JKFIT
	 Reference Energy          =    -343.2308556723880315 [Eh]
	 Singles Energy            =      -0.0000000000000000 [Eh]
	 Same-Spin Energy          =      -0.3500491969372616 [Eh]
	 Opposite-Spin Energy      =      -1.1104828523064594 [Eh]
	 Correlation Energy        =      -1.4605320492437208 [Eh]
	 Total Energy              =    -344.6913877216317701 [Eh]

	 ================> DF-SCS-MP2 Energies <==================
	-----------------------------------------------------------
	 SCS Same-Spin Scale       =       0.3333333333333333 [-]
	 SCS Opposite-Spin Scale   =       1.2000000000000000 [-]
	 SCS Same-Spin Energy      =      -0.1166830656457538 [Eh]
	 SCS Opposite-Spin Energy  =      -1.3325794227677512 [Eh]
	 SCS Correlation Energy    =      -1.4492624884135050 [Eh]
	 SCS Total Energy          =    -344.6801181608015554 [Eh]
	-----------------------------------------------------------

  Dipole Moment: [D]
     X:    -9.5551      Y:    -2.9180      Z:    -0.3798     Total:     9.9979

*** Psi4 exiting successfully. Buy a developer a beer!
