                               Psi4 1.4a3.dev225

  ==> Input File <==

--------------------------------------------------------------------------
#psi4
#
memory 32 gb

molecule  {
-1 1
  O        1.8994270     1.2905180    -0.0615170
  O        2.6993700    -0.8109500     0.2832770
  C       -2.1001690    -0.3616000    -0.4913260
  C       -3.0433460     0.2119310     0.5709670
  C       -0.7080250     0.1770830    -0.3546910
  C        0.3885780    -0.5541740    -0.1016650
  C        1.7779714     0.0131775     0.0536621
  H       -2.0812530    -1.4558260    -0.4203270
  H       -2.4968010    -0.1155520    -1.4857470
  H       -3.0817280     1.3037570     0.5071420
  H       -4.0608920    -0.1705790     0.4451360
  H       -2.6986290    -0.0550030     1.5741980
  H       -0.5806440     1.2564400    -0.4499950
  H        0.3081890    -1.6372690     0.0045550
units angstrom
no_reorient  #important for SAPT in psi4, default
symmetry c1  #important for SAPT in psi4, default
}

set PROPERTIES_ORIGIN ["COM"]
properties('MP2/aug-cc-pvtz', properties = ['dipole'])
--------------------------------------------------------------------------

    Molecular point group: c1
  Charge       = -1
  Multiplicity = 1
  Basis Set: AUG-CC-PVTZ
    Blend: AUG-CC-PVTZ
  Basis Set: (AUG-CC-PVTZ AUX)
    Blend: AUG-CC-PVTZ-JKFIT

    Orbital Energies [Eh]
    ---------------------

    Doubly Occupied:

       1A    -20.298973     2A    -20.286949     3A    -11.141834
       4A    -11.116151     5A    -11.114518     6A    -11.086748
       7A    -11.070564     8A     -1.160990     9A     -1.056211
      10A     -0.955002    11A     -0.863282    12A     -0.745042
      13A     -0.635669    14A     -0.549875    15A     -0.495253
      16A     -0.486530    17A     -0.445390    18A     -0.419789
      19A     -0.409398    20A     -0.382518    21A     -0.375267
      22A     -0.356771    23A     -0.348675    24A     -0.213472
      25A     -0.205782    26A     -0.205565    27A     -0.188740

  @DF-RHF Final Energy:  -343.28422247331054

   => Energetics <=

    Nuclear Repulsion Energy =            270.8081982142114725
    One-Electron Energy =               -1014.9549264312679497
    Two-Electron Energy =                 400.8625057437459986
    Total Energy =                       -343.2842224733105354
  Basis Set: (AUG-CC-PVTZ AUX)
    Blend: AUG-CC-PVTZ-RI
    Molecular point group: c1

    Geometry (in Angstrom), charge = -1, multiplicity = 1:

       Center              X                  Y                   Z               Mass
    ------------   -----------------  -----------------  -----------------  -----------------
         O            1.752717779782     1.284189660470    -0.059969500755    15.994914619570
         O            2.552660779782    -0.817278339530     0.284824499245    15.994914619570
         C           -2.246878220218    -0.367928339530    -0.489778500755    12.000000000000
         C           -3.190055220218     0.205602660470     0.572514499245    12.000000000000
         C           -0.854734220218     0.170754660470    -0.353143500755    12.000000000000
         C            0.241868779782    -0.560502339530    -0.100117500755    12.000000000000
         C            1.631262179782     0.006849160470     0.055209599245    12.000000000000
         H           -2.227962220218    -1.462154339530    -0.418779500755     1.007825032230
         H           -2.643510220218    -0.121880339530    -1.484199500755     1.007825032230
         H           -3.228437220218     1.297428660470     0.508689499245     1.007825032230
         H           -4.207601220218    -0.176907339530     0.446683499245     1.007825032230
         H           -2.845338220218    -0.061331339530     1.575745499245     1.007825032230
         H           -0.727353220218     1.250111660470    -0.448447500755     1.007825032230
         H            0.161479779782    -1.643597339530     0.006102499245     1.007825032230

  Basis Set: AUG-CC-PVTZ
    Blend: AUG-CC-PVTZ
  Basis Set: (AUG-CC-PVTZ AUX)
    Blend: AUG-CC-PVTZ-JKFIT
	 Reference Energy          =    -343.2842224733105354 [Eh]
	 Singles Energy            =      -0.0000000000000000 [Eh]
	 Same-Spin Energy          =      -0.3483040823985200 [Eh]
	 Opposite-Spin Energy      =      -1.1059810389899449 [Eh]
	 Correlation Energy        =      -1.4542851213884649 [Eh]
	 Total Energy              =    -344.7385075946990014 [Eh]

	 ================> DF-SCS-MP2 Energies <==================
	-----------------------------------------------------------
	 SCS Same-Spin Scale       =       0.3333333333333333 [-]
	 SCS Opposite-Spin Scale   =       1.2000000000000000 [-]
	 SCS Same-Spin Energy      =      -0.1161013607995066 [Eh]
	 SCS Opposite-Spin Energy  =      -1.3271772467879339 [Eh]
	 SCS Correlation Energy    =      -1.4432786075874406 [Eh]
	 SCS Total Energy          =    -344.7275010808979800 [Eh]
	-----------------------------------------------------------

  Dipole Moment: [D]
     X:    -9.5201      Y:    -1.3461      Z:    -0.5482     Total:     9.6304

*** Psi4 exiting successfully. Buy a developer a beer!
