                               Psi4 1.3.2 release

  ==> Input File <==

--------------------------------------------------------------------------
#psi4
#
memory 32 gb

molecule  {
-1 1
  O        1.8996640     1.2894670    -0.0585490
  O        2.6973380    -0.8133440     0.2844750
  C       -2.1007360    -0.3533330    -0.4966910
  C       -3.0388345     0.2166787     0.5724102
  C       -0.7068410     0.1811810    -0.3555730
  C        0.3877500    -0.5533880    -0.1062960
  C        1.7796670     0.0321010     0.0519970
  H       -2.0749126    -1.4487184    -0.4498170
  H       -2.4999350    -0.0921100    -1.4864390
  H       -3.0846480     1.2965650     0.5261450
  H       -4.0584310    -0.1803650     0.4515950
  H       -2.6909580    -0.0729930     1.5749670
  H       -0.5778430     1.2611610    -0.4426850
  H        0.3073520    -1.6376590    -0.0083210
units angstrom
no_reorient  #important for SAPT in psi4, default
symmetry c1  #important for SAPT in psi4, default
}

set PROPERTIES_ORIGIN ["COM"]
properties('MP2/aug-cc-pvtz', properties = ['dipole'])
--------------------------------------------------------------------------

    Molecular point group: c1
  Charge       = -1
  Multiplicity = 1
  Basis Set: AUG-CC-PVTZ
    Blend: AUG-CC-PVTZ
  Basis Set: (AUG-CC-PVTZ AUX)
    Blend: AUG-CC-PVTZ-JKFIT

    Orbital Energies [Eh]
    ---------------------

    Doubly Occupied:

       1A    -20.295298     2A    -20.291593     3A    -11.141945
       4A    -11.115964     5A    -11.114031     6A    -11.085296
       7A    -11.069887     8A     -1.161766     9A     -1.060985
      10A     -0.954336    11A     -0.862252    12A     -0.743991
      13A     -0.633007    14A     -0.548997    15A     -0.493838
      16A     -0.486424    17A     -0.446286    18A     -0.419017
      19A     -0.409054    20A     -0.383897    21A     -0.375090
      22A     -0.357909    23A     -0.348817    24A     -0.211178
      25A     -0.208957    26A     -0.204509    27A     -0.191148

  @DF-RHF Final Energy:  -343.28547130137122

   => Energetics <=

    Nuclear Repulsion Energy =            270.8774478890684350
    One-Electron Energy =               -1015.0949005019027709
    Two-Electron Energy =                 400.9319813114631188
    Total Energy =                       -343.2854713013712171
  Basis Set: (AUG-CC-PVTZ AUX)
    Blend: AUG-CC-PVTZ-RI
    Molecular point group: c1

    Geometry (in Angstrom), charge = -1, multiplicity = 1:

       Center              X                  Y                   Z               Mass
    ------------   -----------------  -----------------  -----------------  -----------------
         O            1.752392188601     1.279234602926    -0.056232600147    15.994914619570
         O            2.550066188601    -0.823576397074     0.286791399853    15.994914619570
         C           -2.248007811399    -0.363565397074    -0.494374600147    12.000000000000
         C           -3.186106311399     0.206446302926     0.574726599853    12.000000000000
         C           -0.854112811399     0.170948602926    -0.353256600147    12.000000000000
         C            0.240478188601    -0.563620397074    -0.103979600147    12.000000000000
         C            1.632395188601     0.021868602926     0.054313399853    12.000000000000
         H           -2.222184411399    -1.458950797074    -0.447500600147     1.007825032230
         H           -2.647206811399    -0.102342397074    -1.484122600147     1.007825032230
         H           -3.231919811399     1.286332602926     0.528461399853     1.007825032230
         H           -4.205702811399    -0.190597397074     0.453911399853     1.007825032230
         H           -2.838229811399    -0.083225397074     1.577283399853     1.007825032230
         H           -0.725114811399     1.250928602926    -0.440368600147     1.007825032230
         H            0.160080188601    -1.647891397074    -0.006004600147     1.007825032230

  Basis Set: AUG-CC-PVTZ
    Blend: AUG-CC-PVTZ
  Basis Set: (AUG-CC-PVTZ AUX)
    Blend: AUG-CC-PVTZ-JKFIT
	 Reference Energy          =    -343.2854713013712171 [Eh]
	 Singles Energy            =      -0.0000000000000000 [Eh]
	 Same-Spin Energy          =      -0.3481537412904143 [Eh]
	 Opposite-Spin Energy      =      -1.1055735424168800 [Eh]
	 Correlation Energy        =      -1.4537272837072943 [Eh]
	 Total Energy              =    -344.7391985850784977 [Eh]

	 ================> DF-SCS-MP2 Energies <==================
	-----------------------------------------------------------
	 SCS Same-Spin Scale       =       0.3333333333333333 [-]
	 SCS Opposite-Spin Scale   =       1.2000000000000000 [-]
	 SCS Same-Spin Energy      =      -0.1160512470968048 [Eh]
	 SCS Opposite-Spin Energy  =      -1.3266882509002560 [Eh]
	 SCS Correlation Energy    =      -1.4427394979970607 [Eh]
	 SCS Total Energy          =    -344.7282107993682985 [Eh]
	-----------------------------------------------------------

  Dipole Moment: [D]
     X:    -9.5104      Y:    -1.1382      Z:    -0.5843     Total:     9.5961

*** Psi4 exiting successfully. Buy a developer a beer!
