                               Psi4 1.3.2 release

  ==> Input File <==

--------------------------------------------------------------------------
#psi4
#
memory 32 gb

molecule  {
-1 1
  O        1.9647464     1.2824734    -0.0475188
  O        2.7407899    -0.7630995     0.2861811
  C       -2.1007360    -0.3533330    -0.4966910
  C       -3.0415820     0.2042600     0.5765370
  C       -0.7068410     0.1811810    -0.3555730
  C        0.3877500    -0.5533880    -0.1062960
  C        1.7796670     0.0321010     0.0519970
  H       -2.0810980    -1.4485100    -0.4425170
  H       -2.4999350    -0.0921100    -1.4864390
  H       -3.0846480     1.2965650     0.5261450
  H       -4.0584310    -0.1803650     0.4515950
  H       -2.6909580    -0.0729930     1.5749670
  H       -0.5778430     1.2611610    -0.4426850
  H        0.3073520    -1.6376590    -0.0083210
units angstrom
no_reorient  #important for SAPT in psi4, default
symmetry c1  #important for SAPT in psi4, default
}

set PROPERTIES_ORIGIN ["COM"]
properties('MP2/aug-cc-pvtz', properties = ['dipole'])
--------------------------------------------------------------------------

    Molecular point group: c1
  Charge       = -1
  Multiplicity = 1
  Basis Set: AUG-CC-PVTZ
    Blend: AUG-CC-PVTZ
  Basis Set: (AUG-CC-PVTZ AUX)
    Blend: AUG-CC-PVTZ-JKFIT

    Orbital Energies [Eh]
    ---------------------

    Doubly Occupied:

       1A    -20.288998     2A    -20.285513     3A    -11.138996
       4A    -11.118316     5A    -11.117298     6A    -11.091069
       7A    -11.076818     8A     -1.160942     9A     -1.048909
      10A     -0.958110    11A     -0.866995    12A     -0.747537
      13A     -0.636934    14A     -0.551913    15A     -0.496516
      16A     -0.489369    17A     -0.444565    18A     -0.420800
      19A     -0.411401    20A     -0.384141    21A     -0.372748
      22A     -0.354920    23A     -0.352559    24A     -0.215425
      25A     -0.209193    26A     -0.197215    27A     -0.183338

  @DF-RHF Final Energy:  -343.28208008237607

   => Energetics <=

    Nuclear Repulsion Energy =            270.3393851184464438
    One-Electron Energy =               -1014.0018543018866239
    Two-Electron Energy =                 400.3803891010641109
    Total Energy =                       -343.2820800823760692
  Basis Set: (AUG-CC-PVTZ AUX)
    Blend: AUG-CC-PVTZ-RI
    Molecular point group: c1

    Geometry (in Angstrom), charge = -1, multiplicity = 1:

       Center              X                  Y                   Z               Mass
    ------------   -----------------  -----------------  -----------------  -----------------
         O            1.800342983402     1.266758825614    -0.047833484952    15.994914619570
         O            2.576386483402    -0.778814074386     0.285866415048    15.994914619570
         C           -2.265139416598    -0.369047574386    -0.497005684952    12.000000000000
         C           -3.205985416598     0.188545425614     0.576222315048    12.000000000000
         C           -0.871244416598     0.165466425614    -0.355887684952    12.000000000000
         C            0.223346583402    -0.569102574386    -0.106610684952    12.000000000000
         C            1.615263583402     0.016386425614     0.051682315048    12.000000000000
         H           -2.245501416598    -1.464224574386    -0.442831684952     1.007825032230
         H           -2.664338416598    -0.107824574386    -1.486753684952     1.007825032230
         H           -3.249051416598     1.280850425614     0.525830315048     1.007825032230
         H           -4.222834416598    -0.196079574386     0.451280315048     1.007825032230
         H           -2.855361416598    -0.088707574386     1.574652315048     1.007825032230
         H           -0.742246416598     1.245446425614    -0.442999684952     1.007825032230
         H            0.142948583402    -1.653373574386    -0.008635684952     1.007825032230

  Basis Set: AUG-CC-PVTZ
    Blend: AUG-CC-PVTZ
  Basis Set: (AUG-CC-PVTZ AUX)
    Blend: AUG-CC-PVTZ-JKFIT
	 Reference Energy          =    -343.2820800823760692 [Eh]
	 Singles Energy            =      -0.0000000000000000 [Eh]
	 Same-Spin Energy          =      -0.3480543612034194 [Eh]
	 Opposite-Spin Energy      =      -1.1055499844416299 [Eh]
	 Correlation Energy        =      -1.4536043456450494 [Eh]
	 Total Energy              =    -344.7356844280211021 [Eh]

	 ================> DF-SCS-MP2 Energies <==================
	-----------------------------------------------------------
	 SCS Same-Spin Scale       =       0.3333333333333333 [-]
	 SCS Opposite-Spin Scale   =       1.2000000000000000 [-]
	 SCS Same-Spin Energy      =      -0.1160181204011398 [Eh]
	 SCS Opposite-Spin Energy  =      -1.3266599813299558 [Eh]
	 SCS Correlation Energy    =      -1.4426781017310955 [Eh]
	 SCS Total Energy          =    -344.7247581841071451 [Eh]
	-----------------------------------------------------------

  Dipole Moment: [D]
     X:    -9.8832      Y:    -1.2623      Z:    -0.6158     Total:     9.9825

*** Psi4 exiting successfully. Buy a developer a beer!
