                               Psi4 1.3.2 release

  ==> Input File <==

--------------------------------------------------------------------------
#psi4
#
memory 32 gb

molecule  {
-1 1
  O        1.8996640     1.2894670    -0.0585490
  O        2.6973380    -0.8133440     0.2844750
  C       -2.1051204    -0.3411842    -0.4987938
  C       -3.0415820     0.2042600     0.5765370
  C       -0.7068410     0.1811810    -0.3555730
  C        0.3942624    -0.5436611    -0.1065039
  C        1.7796670     0.0321010     0.0519970
  H       -2.0810980    -1.4485100    -0.4425170
  H       -2.4999350    -0.0921100    -1.4864390
  H       -3.0846480     1.2965650     0.5261450
  H       -4.0584310    -0.1803650     0.4515950
  H       -2.6909580    -0.0729930     1.5749670
  H       -0.5778430     1.2611610    -0.4426850
  H        0.3073520    -1.6376590    -0.0083210
units angstrom
no_reorient  #important for SAPT in psi4, default
symmetry c1  #important for SAPT in psi4, default
}

set PROPERTIES_ORIGIN ["COM"]
properties('MP2/aug-cc-pvtz', properties = ['dipole'])
--------------------------------------------------------------------------

    Molecular point group: c1
  Charge       = -1
  Multiplicity = 1
  Basis Set: AUG-CC-PVTZ
    Blend: AUG-CC-PVTZ
  Basis Set: (AUG-CC-PVTZ AUX)
    Blend: AUG-CC-PVTZ-JKFIT

    Orbital Energies [Eh]
    ---------------------

    Doubly Occupied:

       1A    -20.295475     2A    -20.291359     3A    -11.141502
       4A    -11.115933     5A    -11.114682     6A    -11.085629
       7A    -11.070869     8A     -1.162163     9A     -1.061127
      10A     -0.954832    11A     -0.863242    12A     -0.744461
      13A     -0.633447    14A     -0.549223    15A     -0.496102
      16A     -0.484858    17A     -0.446038    18A     -0.419832
      19A     -0.410543    20A     -0.381397    21A     -0.376753
      22A     -0.358649    23A     -0.345068    24A     -0.212335
      25A     -0.208879    26A     -0.205018    27A     -0.191073

  @DF-RHF Final Energy:  -343.28509542800344

   => Energetics <=

    Nuclear Repulsion Energy =            270.9694488091751055
    One-Electron Energy =               -1015.2681129881016204
    Two-Electron Energy =                 401.0135687509230706
    Total Energy =                       -343.2850954280034443
  Basis Set: (AUG-CC-PVTZ AUX)
    Blend: AUG-CC-PVTZ-RI
    Molecular point group: c1

    Geometry (in Angstrom), charge = -1, multiplicity = 1:

       Center              X                  Y                   Z               Mass
    ------------   -----------------  -----------------  -----------------  -----------------
         O            1.752530185022     1.278086695563    -0.056526915248    15.994914619570
         O            2.550204185022    -0.824724304437     0.286497084752    15.994914619570
         C           -2.252254214978    -0.352564504437    -0.496771715248    12.000000000000
         C           -3.188715814978     0.192879695563     0.578559084752    12.000000000000
         C           -0.853974814978     0.169800695563    -0.353550915248    12.000000000000
         C            0.247128585022    -0.555041404437    -0.104481815248    12.000000000000
         C            1.632533185022     0.020720695563     0.054019084752    12.000000000000
         H           -2.228231814978    -1.459890304437    -0.440494915248     1.007825032230
         H           -2.647068814978    -0.103490304437    -1.484416915248     1.007825032230
         H           -3.231781814978     1.285184695563     0.528167084752     1.007825032230
         H           -4.205564814978    -0.191745304437     0.453617084752     1.007825032230
         H           -2.838091814978    -0.084373304437     1.576989084752     1.007825032230
         H           -0.724976814978     1.249780695563    -0.440662915248     1.007825032230
         H            0.160218185022    -1.649039304437    -0.006298915248     1.007825032230

  Basis Set: AUG-CC-PVTZ
    Blend: AUG-CC-PVTZ
  Basis Set: (AUG-CC-PVTZ AUX)
    Blend: AUG-CC-PVTZ-JKFIT
	 Reference Energy          =    -343.2850954280034443 [Eh]
	 Singles Energy            =      -0.0000000000000000 [Eh]
	 Same-Spin Energy          =      -0.3482506480663025 [Eh]
	 Opposite-Spin Energy      =      -1.1057621494655394 [Eh]
	 Correlation Energy        =      -1.4540127975318420 [Eh]
	 Total Energy              =    -344.7391082255352899 [Eh]

	 ================> DF-SCS-MP2 Energies <==================
	-----------------------------------------------------------
	 SCS Same-Spin Scale       =       0.3333333333333333 [-]
	 SCS Opposite-Spin Scale   =       1.2000000000000000 [-]
	 SCS Same-Spin Energy      =      -0.1160835493554342 [Eh]
	 SCS Opposite-Spin Energy  =      -1.3269145793586472 [Eh]
	 SCS Correlation Energy    =      -1.4429981287140814 [Eh]
	 SCS Total Energy          =    -344.7280935567175106 [Eh]
	-----------------------------------------------------------

  Dipole Moment: [D]
     X:    -9.5225      Y:    -1.1295      Z:    -0.5817     Total:     9.6069

*** Psi4 exiting successfully. Buy a developer a beer!
