                               Psi4 1.3.2 release

  ==> Input File <==

--------------------------------------------------------------------------
#psi4
#
memory 32 gb

molecule  {
-1 1
  O        1.8996640     1.2894670    -0.0585490
  O        2.6973380    -0.8133440     0.2844750
  C       -2.1254384    -0.2798623    -0.5091410
  C       -3.0415820     0.2042600     0.5765370
  C       -0.7068410     0.1811810    -0.3555730
  C        0.4255566    -0.4942136    -0.1078275
  C        1.7796670     0.0321010     0.0519970
  H       -2.0810980    -1.4485100    -0.4425170
  H       -2.4999350    -0.0921100    -1.4864390
  H       -3.0846480     1.2965650     0.5261450
  H       -4.0584310    -0.1803650     0.4515950
  H       -2.6909580    -0.0729930     1.5749670
  H       -0.5778430     1.2611610    -0.4426850
  H        0.3073520    -1.6376590    -0.0083210
units angstrom
no_reorient  #important for SAPT in psi4, default
symmetry c1  #important for SAPT in psi4, default
}

set PROPERTIES_ORIGIN ["COM"]
properties('MP2/aug-cc-pvtz', properties = ['dipole'])
--------------------------------------------------------------------------

    Molecular point group: c1
  Charge       = -1
  Multiplicity = 1
  Basis Set: AUG-CC-PVTZ
    Blend: AUG-CC-PVTZ
  Basis Set: (AUG-CC-PVTZ AUX)
    Blend: AUG-CC-PVTZ-JKFIT

    Orbital Energies [Eh]
    ---------------------

    Doubly Occupied:

       1A    -20.296225     2A    -20.290305     3A    -11.139078
       4A    -11.119334     5A    -11.116849     6A    -11.087590
       7A    -11.075578     8A     -1.164248     9A     -1.061862
      10A     -0.958540    11A     -0.867841    12A     -0.748684
      13A     -0.639494    14A     -0.548708    15A     -0.504676
      16A     -0.479441    17A     -0.447251    18A     -0.429664
      19A     -0.414297    20A     -0.383215    21A     -0.367576
      22A     -0.362329    23A     -0.324895    24A     -0.217303
      25A     -0.208164    26A     -0.206863    27A     -0.190642

  @DF-RHF Final Energy:  -343.27173804568963

   => Energetics <=

    Nuclear Repulsion Energy =            271.5706503278226478
    One-Electron Energy =               -1016.3834695011860276
    Two-Electron Energy =                 401.5410811276736922
    Total Energy =                       -343.2717380456896308
  Basis Set: (AUG-CC-PVTZ AUX)
    Blend: AUG-CC-PVTZ-RI
    Molecular point group: c1

    Geometry (in Angstrom), charge = -1, multiplicity = 1:

       Center              X                  Y                   Z               Mass
    ------------   -----------------  -----------------  -----------------  -----------------
         O            1.751200335701     1.264666148253    -0.055112909904    15.994914619570
         O            2.548874335701    -0.838144851747     0.287911090096    15.994914619570
         C           -2.273902064299    -0.304663151747    -0.505704909904    12.000000000000
         C           -3.190045664299     0.179459148253     0.579973090096    12.000000000000
         C           -0.855304664299     0.156380148253    -0.352136909904    12.000000000000
         C            0.277092935701    -0.519014451747    -0.104391409904    12.000000000000
         C            1.631203335701     0.007300148253     0.055433090096    12.000000000000
         H           -2.229561664299    -1.473310851747    -0.439080909904     1.007825032230
         H           -2.648398664299    -0.116910851747    -1.483002909904     1.007825032230
         H           -3.233111664299     1.271764148253     0.529581090096     1.007825032230
         H           -4.206894664299    -0.205165851747     0.455031090096     1.007825032230
         H           -2.839421664299    -0.097793851747     1.578403090096     1.007825032230
         H           -0.726306664299     1.236360148253    -0.439248909904     1.007825032230
         H            0.158888335701    -1.662459851747    -0.004884909904     1.007825032230

  Basis Set: AUG-CC-PVTZ
    Blend: AUG-CC-PVTZ
  Basis Set: (AUG-CC-PVTZ AUX)
    Blend: AUG-CC-PVTZ-JKFIT
	 Reference Energy          =    -343.2717380456896308 [Eh]
	 Singles Energy            =      -0.0000000000000000 [Eh]
	 Same-Spin Energy          =      -0.3490946457280023 [Eh]
	 Opposite-Spin Energy      =      -1.1074654027481294 [Eh]
	 Correlation Energy        =      -1.4565600484761316 [Eh]
	 Total Energy              =    -344.7282980941657797 [Eh]

	 ================> DF-SCS-MP2 Energies <==================
	-----------------------------------------------------------
	 SCS Same-Spin Scale       =       0.3333333333333333 [-]
	 SCS Opposite-Spin Scale   =       1.2000000000000000 [-]
	 SCS Same-Spin Energy      =      -0.1163648819093341 [Eh]
	 SCS Opposite-Spin Energy  =      -1.3289584832977552 [Eh]
	 SCS Correlation Energy    =      -1.4453233652070894 [Eh]
	 SCS Total Energy          =    -344.7170614108967470 [Eh]
	-----------------------------------------------------------

  Dipole Moment: [D]
     X:    -9.5609      Y:    -0.9833      Z:    -0.5891     Total:     9.6293

*** Psi4 exiting successfully. Buy a developer a beer!
