                               Psi4 1.3.2 release

  ==> Input File <==

--------------------------------------------------------------------------
#psi4
#
memory 32 gb

molecule  {
-1 1
  O        1.8996640     1.2894670    -0.0585490
  O        2.6973380    -0.8133440     0.2844750
  C       -2.1007360    -0.3533330    -0.4966910
  C       -3.0415820     0.2042600     0.5765370
  C       -0.7197175     0.1616246    -0.3555607
  C        0.3877500    -0.5533880    -0.1062960
  C        1.7892118     0.0077146     0.0560485
  H       -2.0810980    -1.4485100    -0.4425170
  H       -2.4999350    -0.0921100    -1.4864390
  H       -3.0846480     1.2965650     0.5261450
  H       -4.0584310    -0.1803650     0.4515950
  H       -2.6909580    -0.0729930     1.5749670
  H       -0.5778430     1.2611610    -0.4426850
  H        0.3073520    -1.6376590    -0.0083210
units angstrom
no_reorient  #important for SAPT in psi4, default
symmetry c1  #important for SAPT in psi4, default
}

set PROPERTIES_ORIGIN ["COM"]
properties('MP2/aug-cc-pvtz', properties = ['dipole'])
--------------------------------------------------------------------------

    Molecular point group: c1
  Charge       = -1
  Multiplicity = 1
  Basis Set: AUG-CC-PVTZ
    Blend: AUG-CC-PVTZ
  Basis Set: (AUG-CC-PVTZ AUX)
    Blend: AUG-CC-PVTZ-JKFIT

    Orbital Energies [Eh]
    ---------------------

    Doubly Occupied:

       1A    -20.301725     2A    -20.285940     3A    -11.142581
       4A    -11.115981     5A    -11.113462     6A    -11.086083
       7A    -11.069957     8A     -1.165925     9A     -1.058287
      10A     -0.956741    11A     -0.861624    12A     -0.746096
      13A     -0.631768    14A     -0.548272    15A     -0.496596
      16A     -0.485255    17A     -0.446578    18A     -0.418920
      19A     -0.410017    20A     -0.383232    21A     -0.379354
      22A     -0.359071    23A     -0.342912    24A     -0.214640
      25A     -0.205694    26A     -0.205400    27A     -0.189533

  @DF-RHF Final Energy:  -343.28360551971514

   => Energetics <=

    Nuclear Repulsion Energy =            270.8881190211314447
    One-Electron Energy =               -1015.1001563706657862
    Two-Electron Energy =                 400.9284318298191465
    Total Energy =                       -343.2836055197151381
  Basis Set: (AUG-CC-PVTZ AUX)
    Blend: AUG-CC-PVTZ-RI
    Molecular point group: c1

    Geometry (in Angstrom), charge = -1, multiplicity = 1:

       Center              X                  Y                   Z               Mass
    ------------   -----------------  -----------------  -----------------  -----------------
         O            1.753191668809     1.286061102692    -0.057299233946    15.994914619570
         O            2.550865668809    -0.816749897308     0.285724766054    15.994914619570
         C           -2.247208331191    -0.356738897308    -0.495441233946    12.000000000000
         C           -3.188054331191     0.200854102692     0.577786766054    12.000000000000
         C           -0.866189831191     0.158218702692    -0.354310933946    12.000000000000
         C            0.241277668809    -0.556793897308    -0.105046233946    12.000000000000
         C            1.642739468809     0.004308702692     0.057298266054    12.000000000000
         H           -2.227570331191    -1.451915897308    -0.441267233946     1.007825032230
         H           -2.646407331191    -0.095515897308    -1.485189233946     1.007825032230
         H           -3.231120331191     1.293159102692     0.527394766054     1.007825032230
         H           -4.204903331191    -0.183770897308     0.452844766054     1.007825032230
         H           -2.837430331191    -0.076398897308     1.576216766054     1.007825032230
         H           -0.724315331191     1.257755102692    -0.441435233946     1.007825032230
         H            0.160879668809    -1.641064897308    -0.007071233946     1.007825032230

  Basis Set: AUG-CC-PVTZ
    Blend: AUG-CC-PVTZ
  Basis Set: (AUG-CC-PVTZ AUX)
    Blend: AUG-CC-PVTZ-JKFIT
	 Reference Energy          =    -343.2836055197151381 [Eh]
	 Singles Energy            =      -0.0000000000000000 [Eh]
	 Same-Spin Energy          =      -0.3483427633043945 [Eh]
	 Opposite-Spin Energy      =      -1.1058201096872380 [Eh]
	 Correlation Energy        =      -1.4541628729916325 [Eh]
	 Total Energy              =    -344.7377683927067551 [Eh]

	 ================> DF-SCS-MP2 Energies <==================
	-----------------------------------------------------------
	 SCS Same-Spin Scale       =       0.3333333333333333 [-]
	 SCS Opposite-Spin Scale   =       1.2000000000000000 [-]
	 SCS Same-Spin Energy      =      -0.1161142544347982 [Eh]
	 SCS Opposite-Spin Energy  =      -1.3269841316246855 [Eh]
	 SCS Correlation Energy    =      -1.4430983860594837 [Eh]
	 SCS Total Energy          =    -344.7267039057746274 [Eh]
	-----------------------------------------------------------

  Dipole Moment: [D]
     X:    -9.4270      Y:    -1.4117      Z:    -0.5367     Total:     9.5472

*** Psi4 exiting successfully. Buy a developer a beer!
