                               Psi4 1.3.2 release

  ==> Input File <==

--------------------------------------------------------------------------
#psi4
#
memory 32 gb

molecule  {
-1 1
  O        1.8342387     1.2930234    -0.0691872
  O        2.6973380    -0.8133440     0.2844750
  C       -2.1007360    -0.3533330    -0.4966910
  C       -3.0415820     0.2042600     0.5765370
  C       -0.7068410     0.1811810    -0.3555730
  C        0.3603794    -0.4797105    -0.1181750
  C        1.7796670     0.0321010     0.0519970
  H       -2.0810980    -1.4485100    -0.4425170
  H       -2.4999350    -0.0921100    -1.4864390
  H       -3.0846480     1.2965650     0.5261450
  H       -4.0584310    -0.1803650     0.4515950
  H       -2.6909580    -0.0729930     1.5749670
  H       -0.5778430     1.2611610    -0.4426850
  H        0.3073520    -1.6376590    -0.0083210
units angstrom
no_reorient  #important for SAPT in psi4, default
symmetry c1  #important for SAPT in psi4, default
}

set PROPERTIES_ORIGIN ["COM"]
properties('MP2/aug-cc-pvtz', properties = ['dipole'])
--------------------------------------------------------------------------

    Molecular point group: c1
  Charge       = -1
  Multiplicity = 1
  Basis Set: AUG-CC-PVTZ
    Blend: AUG-CC-PVTZ
  Basis Set: (AUG-CC-PVTZ AUX)
    Blend: AUG-CC-PVTZ-JKFIT

    Orbital Energies [Eh]
    ---------------------

    Doubly Occupied:

       1A    -20.302105     2A    -20.293221     3A    -11.144940
       4A    -11.114595     5A    -11.112648     6A    -11.072332
       7A    -11.063372     8A     -1.163814     9A     -1.068065
      10A     -0.956899    11A     -0.869856    12A     -0.741497
      13A     -0.630184    14A     -0.547483    15A     -0.496034
      16A     -0.478474    17A     -0.449020    18A     -0.418598
      19A     -0.407829    20A     -0.382475    21A     -0.379840
      22A     -0.361387    23A     -0.330406    24A     -0.218206
      25A     -0.217724    26A     -0.205548    27A     -0.194994

  @DF-RHF Final Energy:  -343.27742637299207

   => Energetics <=

    Nuclear Repulsion Energy =            272.0814764976460651
    One-Electron Energy =               -1017.4747099639208727
    Two-Electron Energy =                 402.1158070932826831
    Total Energy =                       -343.2774263729920676
  Basis Set: (AUG-CC-PVTZ AUX)
    Blend: AUG-CC-PVTZ-RI
    Molecular point group: c1

    Geometry (in Angstrom), charge = -1, multiplicity = 1:

       Center              X                  Y                   Z               Mass
    ------------   -----------------  -----------------  -----------------  -----------------
         O            1.701244527409     1.274792586966    -0.064287859064    15.994914619570
         O            2.564343827409    -0.831574813034     0.289374340936    15.994914619570
         C           -2.233730172591    -0.371563813034    -0.491791659064    12.000000000000
         C           -3.174576172591     0.186029186966     0.581436340936    12.000000000000
         C           -0.839835172591     0.162950186966    -0.350673659064    12.000000000000
         C            0.227385227409    -0.497941313034    -0.113275659064    12.000000000000
         C            1.646672827409     0.013870186966     0.056896340936    12.000000000000
         H           -2.214092172591    -1.466740813034    -0.437617659064     1.007825032230
         H           -2.632929172591    -0.110340813034    -1.481539659064     1.007825032230
         H           -3.217642172591     1.278334186966     0.531044340936     1.007825032230
         H           -4.191425172591    -0.198595813034     0.456494340936     1.007825032230
         H           -2.823952172591    -0.091223813034     1.579866340936     1.007825032230
         H           -0.710837172591     1.242930186966    -0.437785659064     1.007825032230
         H            0.174357827409    -1.655889813034    -0.003421659064     1.007825032230

  Basis Set: AUG-CC-PVTZ
    Blend: AUG-CC-PVTZ
  Basis Set: (AUG-CC-PVTZ AUX)
    Blend: AUG-CC-PVTZ-JKFIT
	 Reference Energy          =    -343.2774263729920676 [Eh]
	 Singles Energy            =      -0.0000000000000000 [Eh]
	 Same-Spin Energy          =      -0.3481482887384841 [Eh]
	 Opposite-Spin Energy      =      -1.1051314917767723 [Eh]
	 Correlation Energy        =      -1.4532797805152564 [Eh]
	 Total Energy              =    -344.7307061535072989 [Eh]

	 ================> DF-SCS-MP2 Energies <==================
	-----------------------------------------------------------
	 SCS Same-Spin Scale       =       0.3333333333333333 [-]
	 SCS Opposite-Spin Scale   =       1.2000000000000000 [-]
	 SCS Same-Spin Energy      =      -0.1160494295794947 [Eh]
	 SCS Opposite-Spin Energy  =      -1.3261577901321266 [Eh]
	 SCS Correlation Energy    =      -1.4422072197116214 [Eh]
	 SCS Total Energy          =    -344.7196335927037012 [Eh]
	-----------------------------------------------------------

  Dipole Moment: [D]
     X:    -9.2869      Y:    -0.9973      Z:    -0.5604     Total:     9.3571

*** Psi4 exiting successfully. Buy a developer a beer!
