                               Psi4 1.3.2 release

  ==> Input File <==

--------------------------------------------------------------------------
#psi4
#
memory 32 gb

molecule  {
-1 1
  O        1.8996640     1.2894670    -0.0585490
  O        2.6973380    -0.8133440     0.2844750
  C       -2.1007360    -0.3533330    -0.4966910
  C       -3.0415820     0.2042600     0.5765370
  C       -0.7068410     0.1811810    -0.3555730
  C        0.4693392    -0.6081417    -0.0877153
  C        1.7796670     0.0321010     0.0519970
  H       -2.0810980    -1.4485100    -0.4425170
  H       -2.4999350    -0.0921100    -1.4864390
  H       -3.0846480     1.2965650     0.5261450
  H       -4.0584310    -0.1803650     0.4515950
  H       -2.6909580    -0.0729930     1.5749670
  H       -0.5778430     1.2611610    -0.4426850
  H        0.3073520    -1.6376590    -0.0083210
units angstrom
no_reorient  #important for SAPT in psi4, default
symmetry c1  #important for SAPT in psi4, default
}

set PROPERTIES_ORIGIN ["COM"]
properties('MP2/aug-cc-pvtz', properties = ['dipole'])
--------------------------------------------------------------------------

    Molecular point group: c1
  Charge       = -1
  Multiplicity = 1
  Basis Set: AUG-CC-PVTZ
    Blend: AUG-CC-PVTZ
  Basis Set: (AUG-CC-PVTZ AUX)
    Blend: AUG-CC-PVTZ-JKFIT

    Orbital Energies [Eh]
    ---------------------

    Doubly Occupied:

       1A    -20.292064     2A    -20.290976     3A    -11.137577
       4A    -11.117022     5A    -11.116182     6A    -11.100955
       7A    -11.078015     8A     -1.162716     9A     -1.060513
      10A     -0.950236    11A     -0.851129    12A     -0.749620
      13A     -0.638613    14A     -0.554917    15A     -0.498723
      16A     -0.484733    17A     -0.444027    18A     -0.418592
      19A     -0.410441    20A     -0.387062    21A     -0.370175
      22A     -0.359330    23A     -0.354287    24A     -0.213819
      25A     -0.207636    26A     -0.190378    27A     -0.183069

  @DF-RHF Final Energy:  -343.26735960858866

   => Energetics <=

    Nuclear Repulsion Energy =            270.3650601373294649
    One-Electron Energy =               -1014.0192240731349784
    Two-Electron Energy =                 400.3868043272168507
    Total Energy =                       -343.2673596085886629
  Basis Set: (AUG-CC-PVTZ AUX)
    Blend: AUG-CC-PVTZ-RI
    Molecular point group: c1

    Geometry (in Angstrom), charge = -1, multiplicity = 1:

       Center              X                  Y                   Z               Mass
    ------------   -----------------  -----------------  -----------------  -----------------
         O            1.742902862008     1.287370924673    -0.059058065747    15.994914619570
         O            2.540576862008    -0.815440075327     0.283965934253    15.994914619570
         C           -2.257497137992    -0.355429075327    -0.497200065747    12.000000000000
         C           -3.198343137992     0.202163924673     0.576027934253    12.000000000000
         C           -0.863602137992     0.179084924673    -0.356082065747    12.000000000000
         C            0.312578062008    -0.610237775327    -0.088224365747    12.000000000000
         C            1.622905862008     0.030004924673     0.051487934253    12.000000000000
         H           -2.237859137992    -1.450606075327    -0.443026065747     1.007825032230
         H           -2.656696137992    -0.094206075327    -1.486948065747     1.007825032230
         H           -3.241409137992     1.294468924673     0.525635934253     1.007825032230
         H           -4.215192137992    -0.182461075327     0.451085934253     1.007825032230
         H           -2.847719137992    -0.075089075327     1.574457934253     1.007825032230
         H           -0.734604137992     1.259064924673    -0.443194065747     1.007825032230
         H            0.150590862008    -1.639755075327    -0.008830065747     1.007825032230

  Basis Set: AUG-CC-PVTZ
    Blend: AUG-CC-PVTZ
  Basis Set: (AUG-CC-PVTZ AUX)
    Blend: AUG-CC-PVTZ-JKFIT
	 Reference Energy          =    -343.2673596085886629 [Eh]
	 Singles Energy            =      -0.0000000000000000 [Eh]
	 Same-Spin Energy          =      -0.3496975269321163 [Eh]
	 Opposite-Spin Energy      =      -1.1090181945417545 [Eh]
	 Correlation Energy        =      -1.4587157214738709 [Eh]
	 Total Energy              =    -344.7260753300625424 [Eh]

	 ================> DF-SCS-MP2 Energies <==================
	-----------------------------------------------------------
	 SCS Same-Spin Scale       =       0.3333333333333333 [-]
	 SCS Opposite-Spin Scale   =       1.2000000000000000 [-]
	 SCS Same-Spin Energy      =      -0.1165658423107054 [Eh]
	 SCS Opposite-Spin Energy  =      -1.3308218334501054 [Eh]
	 SCS Correlation Energy    =      -1.4473876757608108 [Eh]
	 SCS Total Energy          =    -344.7147472843494711 [Eh]
	-----------------------------------------------------------

  Dipole Moment: [D]
     X:    -9.5035      Y:    -1.2637      Z:    -0.5667     Total:     9.6039

*** Psi4 exiting successfully. Buy a developer a beer!
