                               Psi4 1.3.2 release

  ==> Input File <==

--------------------------------------------------------------------------
#psi4
#
memory 32 gb

molecule  {
-1 1
  O        1.8996640     1.2894670    -0.0585490
  O        2.6973380    -0.8133440     0.2844750
  C       -2.1093982    -0.3289957    -0.5008857
  C       -3.0415820     0.2042600     0.5765370
  C       -0.7068410     0.1811810    -0.3555730
  C        0.4006908    -0.5338790    -0.1067307
  C        1.7796670     0.0321010     0.0519970
  H       -2.0810980    -1.4485100    -0.4425170
  H       -2.4999350    -0.0921100    -1.4864390
  H       -3.0846480     1.2965650     0.5261450
  H       -4.0584310    -0.1803650     0.4515950
  H       -2.6909580    -0.0729930     1.5749670
  H       -0.5778430     1.2611610    -0.4426850
  H        0.3073520    -1.6376590    -0.0083210
units angstrom
no_reorient  #important for SAPT in psi4, default
symmetry c1  #important for SAPT in psi4, default
}

set PROPERTIES_ORIGIN ["COM"]
properties('MP2/aug-cc-pvtz', properties = ['dipole'])
--------------------------------------------------------------------------

    Molecular point group: c1
  Charge       = -1
  Multiplicity = 1
  Basis Set: AUG-CC-PVTZ
    Blend: AUG-CC-PVTZ
  Basis Set: (AUG-CC-PVTZ AUX)
    Blend: AUG-CC-PVTZ-JKFIT

    Orbital Energies [Eh]
    ---------------------

    Doubly Occupied:

       1A    -20.295604     2A    -20.291096     3A    -11.141007
       4A    -11.116168     5A    -11.115386     6A    -11.085908
       7A    -11.071750     8A     -1.162529     9A     -1.061235
      10A     -0.955479    11A     -0.864136    12A     -0.745178
      13A     -0.634191    14A     -0.549349    15A     -0.497698
      16A     -0.483665    17A     -0.446180    18A     -0.421024
      19A     -0.411826    20A     -0.380245    21A     -0.376924
      22A     -0.359335    23A     -0.341183    24A     -0.213399
      25A     -0.208736    26A     -0.205373    27A     -0.190963

  @DF-RHF Final Energy:  -343.28376008748734

   => Energetics <=

    Nuclear Repulsion Energy =            271.0873031193377756
    One-Electron Energy =               -1015.4909963760169376
    Two-Electron Energy =                 401.1199331691918246
    Total Energy =                       -343.2837600874873374
  Basis Set: (AUG-CC-PVTZ AUX)
    Blend: AUG-CC-PVTZ-RI
    Molecular point group: c1

    Geometry (in Angstrom), charge = -1, multiplicity = 1:

       Center              X                  Y                   Z               Mass
    ------------   -----------------  -----------------  -----------------  -----------------
         O            1.752269623630     1.275424791854    -0.056245987275    15.994914619570
         O            2.549943623630    -0.827386208146     0.286778012725    15.994914619570
         C           -2.256792576370    -0.343037908146    -0.498582687275    12.000000000000
         C           -3.188976376370     0.190217791854     0.578840012725    12.000000000000
         C           -0.854235376370     0.167138791854    -0.353269987275    12.000000000000
         C            0.253296423630    -0.547921208146    -0.104427687275    12.000000000000
         C            1.632272623630     0.018058791854     0.054300012725    12.000000000000
         H           -2.228492376370    -1.462552208146    -0.440213987275     1.007825032230
         H           -2.647329376370    -0.106152208146    -1.484135987275     1.007825032230
         H           -3.232042376370     1.282522791854     0.528448012725     1.007825032230
         H           -4.205825376370    -0.194407208146     0.453898012725     1.007825032230
         H           -2.838352376370    -0.087035208146     1.577270012725     1.007825032230
         H           -0.725237376370     1.247118791854    -0.440381987275     1.007825032230
         H            0.159957623630    -1.651701208146    -0.006017987275     1.007825032230

  Basis Set: AUG-CC-PVTZ
    Blend: AUG-CC-PVTZ
  Basis Set: (AUG-CC-PVTZ AUX)
    Blend: AUG-CC-PVTZ-JKFIT
	 Reference Energy          =    -343.2837600874873374 [Eh]
	 Singles Energy            =      -0.0000000000000000 [Eh]
	 Same-Spin Energy          =      -0.3483796764268169 [Eh]
	 Opposite-Spin Energy      =      -1.1060104913680668 [Eh]
	 Correlation Energy        =      -1.4543901677948838 [Eh]
	 Total Energy              =    -344.7381502552822212 [Eh]

	 ================> DF-SCS-MP2 Energies <==================
	-----------------------------------------------------------
	 SCS Same-Spin Scale       =       0.3333333333333333 [-]
	 SCS Opposite-Spin Scale   =       1.2000000000000000 [-]
	 SCS Same-Spin Energy      =      -0.1161265588089390 [Eh]
	 SCS Opposite-Spin Energy  =      -1.3272125896416802 [Eh]
	 SCS Correlation Energy    =      -1.4433391484506193 [Eh]
	 SCS Total Energy          =    -344.7270992359379420 [Eh]
	-----------------------------------------------------------

  Dipole Moment: [D]
     X:    -9.5329      Y:    -1.1040      Z:    -0.5838     Total:     9.6143

*** Psi4 exiting successfully. Buy a developer a beer!
