                               Psi4 1.3.2 release

  ==> Input File <==

--------------------------------------------------------------------------
#psi4
#
memory 32 gb

molecule  {
-1 1
  O        1.8560726     1.2922217    -0.0656766
  O        2.6973380    -0.8133440     0.2844750
  C       -2.1007360    -0.3533330    -0.4966910
  C       -3.0415820     0.2042600     0.5765370
  C       -0.7068410     0.1811810    -0.3555730
  C        0.3690742    -0.5044356    -0.1142656
  C        1.7796670     0.0321010     0.0519970
  H       -2.0810980    -1.4485100    -0.4425170
  H       -2.4999350    -0.0921100    -1.4864390
  H       -3.0846480     1.2965650     0.5261450
  H       -4.0584310    -0.1803650     0.4515950
  H       -2.6909580    -0.0729930     1.5749670
  H       -0.5778430     1.2611610    -0.4426850
  H        0.3073520    -1.6376590    -0.0083210
units angstrom
no_reorient  #important for SAPT in psi4, default
symmetry c1  #important for SAPT in psi4, default
}

set PROPERTIES_ORIGIN ["COM"]
properties('MP2/aug-cc-pvtz', properties = ['dipole'])
--------------------------------------------------------------------------

    Molecular point group: c1
  Charge       = -1
  Multiplicity = 1
  Basis Set: AUG-CC-PVTZ
    Blend: AUG-CC-PVTZ
  Basis Set: (AUG-CC-PVTZ AUX)
    Blend: AUG-CC-PVTZ-JKFIT

    Orbital Energies [Eh]
    ---------------------

    Doubly Occupied:

       1A    -20.299803     2A    -20.292602     3A    -11.143805
       4A    -11.114975     5A    -11.113069     6A    -11.076629
       7A    -11.065462     8A     -1.162997     9A     -1.065598
      10A     -0.955865    11A     -0.867288    12A     -0.742177
      13A     -0.630926    14A     -0.547835    15A     -0.495336
      16A     -0.481096    17A     -0.447897    18A     -0.418680
      19A     -0.408064    20A     -0.381406    21A     -0.379796
      22A     -0.360131    23A     -0.337077    24A     -0.215267
      25A     -0.213581    26A     -0.207282    27A     -0.193669

  @DF-RHF Final Energy:  -343.28264630404692

   => Energetics <=

    Nuclear Repulsion Energy =            271.6584709722228581
    One-Electron Energy =               -1016.6456126337792512
    Two-Electron Energy =                 401.7044953575094723
    Total Energy =                       -343.2826463040469207
  Basis Set: (AUG-CC-PVTZ AUX)
    Blend: AUG-CC-PVTZ-RI
    Molecular point group: c1

    Geometry (in Angstrom), charge = -1, multiplicity = 1:

       Center              X                  Y                   Z               Mass
    ------------   -----------------  -----------------  -----------------  -----------------
         O            1.718498985967     1.277115987265    -0.061817846260    15.994914619570
         O            2.559764385967    -0.828449712735     0.288333753740    15.994914619570
         C           -2.238309614033    -0.368438712735    -0.492832246260    12.000000000000
         C           -3.179155614033     0.189154287265     0.580395753740    12.000000000000
         C           -0.844414614033     0.166075287265    -0.351714246260    12.000000000000
         C            0.231500585967    -0.519541312735    -0.110406846260    12.000000000000
         C            1.642093385967     0.016995287265     0.055855753740    12.000000000000
         H           -2.218671614033    -1.463615712735    -0.438658246260     1.007825032230
         H           -2.637508614033    -0.107215712735    -1.482580246260     1.007825032230
         H           -3.222221614033     1.281459287265     0.530003753740     1.007825032230
         H           -4.196004614033    -0.195470712735     0.455453753740     1.007825032230
         H           -2.828531614033    -0.088098712735     1.578825753740     1.007825032230
         H           -0.715416614033     1.246055287265    -0.438826246260     1.007825032230
         H            0.169778385967    -1.652764712735    -0.004462246260     1.007825032230

  Basis Set: AUG-CC-PVTZ
    Blend: AUG-CC-PVTZ
  Basis Set: (AUG-CC-PVTZ AUX)
    Blend: AUG-CC-PVTZ-JKFIT
	 Reference Energy          =    -343.2826463040469207 [Eh]
	 Singles Energy            =      -0.0000000000000000 [Eh]
	 Same-Spin Energy          =      -0.3480776347220150 [Eh]
	 Opposite-Spin Energy      =      -1.1051339020233013 [Eh]
	 Correlation Energy        =      -1.4532115367453162 [Eh]
	 Total Energy              =    -344.7358578407922209 [Eh]

	 ================> DF-SCS-MP2 Energies <==================
	-----------------------------------------------------------
	 SCS Same-Spin Scale       =       0.3333333333333333 [-]
	 SCS Opposite-Spin Scale   =       1.2000000000000000 [-]
	 SCS Same-Spin Energy      =      -0.1160258782406717 [Eh]
	 SCS Opposite-Spin Energy  =      -1.3261606824279615 [Eh]
	 SCS Correlation Energy    =      -1.4421865606686333 [Eh]
	 SCS Total Energy          =    -344.7248328647155518 [Eh]
	-----------------------------------------------------------

  Dipole Moment: [D]
     X:    -9.3664      Y:    -1.0564      Z:    -0.5667     Total:     9.4429

*** Psi4 exiting successfully. Buy a developer a beer!
