                               Psi4 1.3.2 release

  ==> Input File <==

--------------------------------------------------------------------------
#psi4
#
memory 32 gb

molecule  {
-1 1
  O        1.8996640     1.2894670    -0.0585490
  O        2.6973380    -0.8133440     0.2844750
  C       -2.1007360    -0.3533330    -0.4966910
  C       -3.0301642     0.2536705     0.5595426
  C       -0.7068410     0.1811810    -0.3555730
  C        0.3877500    -0.5533880    -0.1062960
  C        1.7796670     0.0321010     0.0519970
  H       -2.0563702    -1.4488430    -0.4717363
  H       -2.4999350    -0.0921100    -1.4864390
  H       -3.0846480     1.2965650     0.5261450
  H       -4.0584310    -0.1803650     0.4515950
  H       -2.6909580    -0.0729930     1.5749670
  H       -0.5778430     1.2611610    -0.4426850
  H        0.3073520    -1.6376590    -0.0083210
units angstrom
no_reorient  #important for SAPT in psi4, default
symmetry c1  #important for SAPT in psi4, default
}

set PROPERTIES_ORIGIN ["COM"]
properties('MP2/aug-cc-pvtz', properties = ['dipole'])
--------------------------------------------------------------------------

    Molecular point group: c1
  Charge       = -1
  Multiplicity = 1
  Basis Set: AUG-CC-PVTZ
    Blend: AUG-CC-PVTZ
  Basis Set: (AUG-CC-PVTZ AUX)
    Blend: AUG-CC-PVTZ-JKFIT

    Orbital Energies [Eh]
    ---------------------

    Doubly Occupied:

       1A    -20.295149     2A    -20.291465     3A    -11.141812
       4A    -11.116976     5A    -11.114327     6A    -11.085019
       7A    -11.069540     8A     -1.161631     9A     -1.060854
      10A     -0.954825    11A     -0.862129    12A     -0.744945
      13A     -0.633295    14A     -0.549116    15A     -0.494948
      16A     -0.485086    17A     -0.448285    18A     -0.418930
      19A     -0.410603    20A     -0.383773    21A     -0.372221
      22A     -0.357694    23A     -0.348409    24A     -0.211000
      25A     -0.208836    26A     -0.204070    27A     -0.191041

  @DF-RHF Final Energy:  -343.28194261057592

   => Energetics <=

    Nuclear Repulsion Energy =            270.9555562900451946
    One-Electron Energy =               -1015.2430383577868724
    Two-Electron Energy =                 401.0055394571656961
    Total Energy =                       -343.2819426105759248
  Basis Set: (AUG-CC-PVTZ AUX)
    Blend: AUG-CC-PVTZ-RI
    Molecular point group: c1

    Geometry (in Angstrom), charge = -1, multiplicity = 1:

       Center              X                  Y                   Z               Mass
    ------------   -----------------  -----------------  -----------------  -----------------
         O            1.751153038871     1.274754035535    -0.054450554369    15.994914619570
         O            2.548827038871    -0.828056964465     0.288573445631    15.994914619570
         C           -2.249246961129    -0.368045964465    -0.492592554369    12.000000000000
         C           -3.178675161129     0.238957535535     0.563641045631    12.000000000000
         C           -0.855351961129     0.166468035535    -0.351474554369    12.000000000000
         C            0.239239038871    -0.568100964465    -0.102197554369    12.000000000000
         C            1.631156038871     0.017388035535     0.056095445631    12.000000000000
         H           -2.204881161129    -1.463555964465    -0.467637854369     1.007825032230
         H           -2.648445961129    -0.106822964465    -1.482340554369     1.007825032230
         H           -3.233158961129     1.281852035535     0.530243445631     1.007825032230
         H           -4.206941961129    -0.195077964465     0.455693445631     1.007825032230
         H           -2.839468961129    -0.087705964465     1.579065445631     1.007825032230
         H           -0.726353961129     1.246448035535    -0.438586554369     1.007825032230
         H            0.158841038871    -1.652371964465    -0.004222554369     1.007825032230

  Basis Set: AUG-CC-PVTZ
    Blend: AUG-CC-PVTZ
  Basis Set: (AUG-CC-PVTZ AUX)
    Blend: AUG-CC-PVTZ-JKFIT
	 Reference Energy          =    -343.2819426105759248 [Eh]
	 Singles Energy            =      -0.0000000000000000 [Eh]
	 Same-Spin Energy          =      -0.3482364174142025 [Eh]
	 Opposite-Spin Energy      =      -1.1057362486944053 [Eh]
	 Correlation Energy        =      -1.4539726661086079 [Eh]
	 Total Energy              =    -344.7359152766845227 [Eh]

	 ================> DF-SCS-MP2 Energies <==================
	-----------------------------------------------------------
	 SCS Same-Spin Scale       =       0.3333333333333333 [-]
	 SCS Opposite-Spin Scale   =       1.2000000000000000 [-]
	 SCS Same-Spin Energy      =      -0.1160788058047342 [Eh]
	 SCS Opposite-Spin Energy  =      -1.3268834984332865 [Eh]
	 SCS Correlation Energy    =      -1.4429623042380206 [Eh]
	 SCS Total Energy          =    -344.7249049148139193 [Eh]
	-----------------------------------------------------------

  Dipole Moment: [D]
     X:    -9.5041      Y:    -1.0969      Z:    -0.6021     Total:     9.5862

*** Psi4 exiting successfully. Buy a developer a beer!
