                               Psi4 1.3.2 release

  ==> Input File <==

--------------------------------------------------------------------------
#psi4
#
memory 32 gb

molecule  {
-1 1
  O        1.9105387     1.2885403    -0.0567309
  O        2.7047580    -0.8051272     0.2848038
  C       -2.1007360    -0.3533330    -0.4966910
  C       -3.0415820     0.2042600     0.5765370
  C       -0.7068410     0.1811810    -0.3555730
  C        0.3877500    -0.5533880    -0.1062960
  C        1.7796670     0.0321010     0.0519970
  H       -2.0810980    -1.4485100    -0.4425170
  H       -2.4999350    -0.0921100    -1.4864390
  H       -3.0846480     1.2965650     0.5261450
  H       -4.0584310    -0.1803650     0.4515950
  H       -2.6909580    -0.0729930     1.5749670
  H       -0.5778430     1.2611610    -0.4426850
  H        0.3073520    -1.6376590    -0.0083210
units angstrom
no_reorient  #important for SAPT in psi4, default
symmetry c1  #important for SAPT in psi4, default
}

set PROPERTIES_ORIGIN ["COM"]
properties('MP2/aug-cc-pvtz', properties = ['dipole'])
--------------------------------------------------------------------------

    Molecular point group: c1
  Charge       = -1
  Multiplicity = 1
  Basis Set: AUG-CC-PVTZ
    Blend: AUG-CC-PVTZ
  Basis Set: (AUG-CC-PVTZ AUX)
    Blend: AUG-CC-PVTZ-JKFIT

    Orbital Energies [Eh]
    ---------------------

    Doubly Occupied:

       1A    -20.294328     2A    -20.290658     3A    -11.141489
       4A    -11.116198     5A    -11.114561     6A    -11.086371
       7A    -11.071174     8A     -1.161615     9A     -1.059094
      10A     -0.954892    11A     -0.863148    12A     -0.744445
      13A     -0.633628    14A     -0.549445    15A     -0.494958
      16A     -0.486595    17A     -0.445731    18A     -0.419431
      19A     -0.409299    20A     -0.383059    21A     -0.375559
      22A     -0.357457    23A     -0.349506    24A     -0.211778
      25A     -0.207380    26A     -0.205423    27A     -0.189948

  @DF-RHF Final Energy:  -343.28551572985651

   => Energetics <=

    Nuclear Repulsion Energy =            270.7586398958925429
    One-Electron Energy =               -1014.8539728156846422
    Two-Electron Energy =                 400.8098171899355862
    Total Energy =                       -343.2855157298565132
  Basis Set: (AUG-CC-PVTZ AUX)
    Blend: AUG-CC-PVTZ-RI
    Molecular point group: c1

    Geometry (in Angstrom), charge = -1, multiplicity = 1:

       Center              X                  Y                   Z               Mass
    ------------   -----------------  -----------------  -----------------  -----------------
         O            1.760708259942     1.278633108346    -0.055335481208    15.994914619570
         O            2.554927559942    -0.815034391654     0.286199218792    15.994914619570
         C           -2.250566440058    -0.363240191654    -0.495295581208    12.000000000000
         C           -3.191412440058     0.194352808346     0.577932418792    12.000000000000
         C           -0.856671440058     0.171273808346    -0.354177581208    12.000000000000
         C            0.237919559942    -0.563295191654    -0.104900581208    12.000000000000
         C            1.629836559942     0.022193808346     0.053392418792    12.000000000000
         H           -2.230928440058    -1.458417191654    -0.441121581208     1.007825032230
         H           -2.649765440058    -0.102017191654    -1.485043581208     1.007825032230
         H           -3.234478440058     1.286657808346     0.527540418792     1.007825032230
         H           -4.208261440058    -0.190272191654     0.452990418792     1.007825032230
         H           -2.840788440058    -0.082900191654     1.576362418792     1.007825032230
         H           -0.727673440058     1.251253808346    -0.441289581208     1.007825032230
         H            0.157521559942    -1.647566191654    -0.006925581208     1.007825032230

  Basis Set: AUG-CC-PVTZ
    Blend: AUG-CC-PVTZ
  Basis Set: (AUG-CC-PVTZ AUX)
    Blend: AUG-CC-PVTZ-JKFIT
	 Reference Energy          =    -343.2855157298565132 [Eh]
	 Singles Energy            =      -0.0000000000000000 [Eh]
	 Same-Spin Energy          =      -0.3481109928172324 [Eh]
	 Opposite-Spin Energy      =      -1.1055311538152095 [Eh]
	 Correlation Energy        =      -1.4536421466324418 [Eh]
	 Total Energy              =    -344.7391578764889459 [Eh]

	 ================> DF-SCS-MP2 Energies <==================
	-----------------------------------------------------------
	 SCS Same-Spin Scale       =       0.3333333333333333 [-]
	 SCS Opposite-Spin Scale   =       1.2000000000000000 [-]
	 SCS Same-Spin Energy      =      -0.1160369976057441 [Eh]
	 SCS Opposite-Spin Energy  =      -1.3266373845782513 [Eh]
	 SCS Correlation Energy    =      -1.4426743821839954 [Eh]
	 SCS Total Energy          =    -344.7281901120405223 [Eh]
	-----------------------------------------------------------

  Dipole Moment: [D]
     X:    -9.5740      Y:    -1.1718      Z:    -0.5854     Total:     9.6632

*** Psi4 exiting successfully. Buy a developer a beer!
