                               Psi4 1.3.2 release

  ==> Input File <==

--------------------------------------------------------------------------
#psi4
#
memory 32 gb

molecule  {
-1 1
  O        1.8887801     1.2902979    -0.0603587
  O        2.6898482    -0.8214964     0.2841285
  C       -2.1007360    -0.3533330    -0.4966910
  C       -3.0415820     0.2042600     0.5765370
  C       -0.7068410     0.1811810    -0.3555730
  C        0.3877500    -0.5533880    -0.1062960
  C        1.7796670     0.0321010     0.0519970
  H       -2.0810980    -1.4485100    -0.4425170
  H       -2.4999350    -0.0921100    -1.4864390
  H       -3.0846480     1.2965650     0.5261450
  H       -4.0584310    -0.1803650     0.4515950
  H       -2.6909580    -0.0729930     1.5749670
  H       -0.5778430     1.2611610    -0.4426850
  H        0.3073520    -1.6376590    -0.0083210
units angstrom
no_reorient  #important for SAPT in psi4, default
symmetry c1  #important for SAPT in psi4, default
}

set PROPERTIES_ORIGIN ["COM"]
properties('MP2/aug-cc-pvtz', properties = ['dipole'])
--------------------------------------------------------------------------

    Molecular point group: c1
  Charge       = -1
  Multiplicity = 1
  Basis Set: AUG-CC-PVTZ
    Blend: AUG-CC-PVTZ
  Basis Set: (AUG-CC-PVTZ AUX)
    Blend: AUG-CC-PVTZ-JKFIT

    Orbital Energies [Eh]
    ---------------------

    Doubly Occupied:

       1A    -20.296375     2A    -20.292619     3A    -11.142514
       4A    -11.115336     5A    -11.113426     6A    -11.084434
       7A    -11.068857     8A     -1.162047     9A     -1.062951
      10A     -0.953576    11A     -0.861568    12A     -0.743177
      13A     -0.632301    14A     -0.548470    15A     -0.494350
      16A     -0.485466    17A     -0.446150    18A     -0.419020
      19A     -0.408432    20A     -0.383038    21A     -0.376052
      22A     -0.358519    23A     -0.348120    24A     -0.211766
      25A     -0.209514    26A     -0.203922    27A     -0.192403

  @DF-RHF Final Energy:  -343.28578797668342

   => Energetics <=

    Nuclear Repulsion Energy =            270.9508954217609471
    One-Electron Energy =               -1015.2445589771837149
    Two-Electron Energy =                 401.0078755787393447
    Total Energy =                       -343.2857879766834230
  Basis Set: (AUG-CC-PVTZ AUX)
    Blend: AUG-CC-PVTZ-RI
    Molecular point group: c1

    Geometry (in Angstrom), charge = -1, multiplicity = 1:

       Center              X                  Y                   Z               Mass
    ------------   -----------------  -----------------  -----------------  -----------------
         O            1.744871314437     1.282750365348    -0.058268364837    15.994914619570
         O            2.545939414437    -0.829043934652     0.286218835163    15.994914619570
         C           -2.244644785563    -0.360880534652    -0.494600664837    12.000000000000
         C           -3.185490785563     0.196712465348     0.578627335163    12.000000000000
         C           -0.850749785563     0.173633465348    -0.353482664837    12.000000000000
         C            0.243841214437    -0.560935534652    -0.104205664837    12.000000000000
         C            1.635758214437     0.024553465348     0.054087335163    12.000000000000
         H           -2.225006785563    -1.456057534652    -0.440426664837     1.007825032230
         H           -2.643843785563    -0.099657534652    -1.484348664837     1.007825032230
         H           -3.228556785563     1.289017465348     0.528235335163     1.007825032230
         H           -4.202339785563    -0.187912534652     0.453685335163     1.007825032230
         H           -2.834866785563    -0.080540534652     1.577057335163     1.007825032230
         H           -0.721751785563     1.253613465348    -0.440594664837     1.007825032230
         H            0.163443214437    -1.645206534652    -0.006230664837     1.007825032230

  Basis Set: AUG-CC-PVTZ
    Blend: AUG-CC-PVTZ
  Basis Set: (AUG-CC-PVTZ AUX)
    Blend: AUG-CC-PVTZ-JKFIT
	 Reference Energy          =    -343.2857879766834230 [Eh]
	 Singles Energy            =      -0.0000000000000000 [Eh]
	 Same-Spin Energy          =      -0.3481789394446543 [Eh]
	 Opposite-Spin Energy      =      -1.1056037921467861 [Eh]
	 Correlation Energy        =      -1.4537827315914402 [Eh]
	 Total Energy              =    -344.7395707082748686 [Eh]

	 ================> DF-SCS-MP2 Energies <==================
	-----------------------------------------------------------
	 SCS Same-Spin Scale       =       0.3333333333333333 [-]
	 SCS Opposite-Spin Scale   =       1.2000000000000000 [-]
	 SCS Same-Spin Energy      =      -0.1160596464815514 [Eh]
	 SCS Opposite-Spin Energy  =      -1.3267245505761431 [Eh]
	 SCS Correlation Energy    =      -1.4427841970576947 [Eh]
	 SCS Total Energy          =    -344.7285721737410995 [Eh]
	-----------------------------------------------------------

  Dipole Moment: [D]
     X:    -9.4475      Y:    -1.1348      Z:    -0.5730     Total:     9.5326

*** Psi4 exiting successfully. Buy a developer a beer!
