                               Psi4 1.3.2 release

  ==> Input File <==

--------------------------------------------------------------------------
#psi4
#
memory 32 gb

molecule  {
-1 1
  O        1.8996640     1.2894670    -0.0585490
  O        2.6973380    -0.8133440     0.2844750
  C       -2.1007360    -0.3533330    -0.4966910
  C       -3.0518535     0.1541701     0.5922239
  C       -0.7068410     0.1811810    -0.3555730
  C        0.3877500    -0.5533880    -0.1062960
  C        1.7796670     0.0321010     0.0519970
  H       -2.1058498    -1.4468427    -0.4133637
  H       -2.4999350    -0.0921100    -1.4864390
  H       -3.0846480     1.2965650     0.5261450
  H       -4.0584310    -0.1803650     0.4515950
  H       -2.6909580    -0.0729930     1.5749670
  H       -0.5778430     1.2611610    -0.4426850
  H        0.3073520    -1.6376590    -0.0083210
units angstrom
no_reorient  #important for SAPT in psi4, default
symmetry c1  #important for SAPT in psi4, default
}

set PROPERTIES_ORIGIN ["COM"]
properties('MP2/aug-cc-pvtz', properties = ['dipole'])
--------------------------------------------------------------------------

    Molecular point group: c1
  Charge       = -1
  Multiplicity = 1
  Basis Set: AUG-CC-PVTZ
    Blend: AUG-CC-PVTZ
  Basis Set: (AUG-CC-PVTZ AUX)
    Blend: AUG-CC-PVTZ-JKFIT

    Orbital Energies [Eh]
    ---------------------

    Doubly Occupied:

       1A    -20.295640     2A    -20.291898     3A    -11.142271
       4A    -11.115714     5A    -11.114182     6A    -11.085939
       7A    -11.070631     8A     -1.162085     9A     -1.061295
      10A     -0.954153    11A     -0.863106    12A     -0.743689
      13A     -0.633070    14A     -0.548832    15A     -0.500952
      16A     -0.483038    17A     -0.445856    18A     -0.420049
      19A     -0.410931    20A     -0.378394    21A     -0.375116
      22A     -0.358331    23A     -0.347688    24A     -0.211574
      25A     -0.209249    26A     -0.205370    27A     -0.191410

  @DF-RHF Final Energy:  -343.28255600269796

   => Energetics <=

    Nuclear Repulsion Energy =            270.7623001390795707
    One-Electron Energy =               -1014.8487867517151244
    Two-Electron Energy =                 400.8039306099375949
    Total Energy =                       -343.2825560026979588
  Basis Set: (AUG-CC-PVTZ AUX)
    Blend: AUG-CC-PVTZ-RI
    Molecular point group: c1

    Geometry (in Angstrom), charge = -1, multiplicity = 1:

       Center              X                  Y                   Z               Mass
    ------------   -----------------  -----------------  -----------------  -----------------
         O            1.754284338967     1.286788904613    -0.059004108497    15.994914619570
         O            2.551958338967    -0.816022095387     0.284019891503    15.994914619570
         C           -2.246115661033    -0.356011095387    -0.497146108497    12.000000000000
         C           -3.197233161033     0.151492004613     0.591768791503    12.000000000000
         C           -0.852220661033     0.178502904613    -0.356028108497    12.000000000000
         C            0.242370338967    -0.556066095387    -0.106751108497    12.000000000000
         C            1.634287338967     0.029422904613     0.051541891503    12.000000000000
         H           -2.251229461033    -1.449520795387    -0.413818808497     1.007825032230
         H           -2.645314661033    -0.094788095387    -1.486894108497     1.007825032230
         H           -3.230027661033     1.293886904613     0.525689891503     1.007825032230
         H           -4.203810661033    -0.183043095387     0.451139891503     1.007825032230
         H           -2.836337661033    -0.075671095387     1.574511891503     1.007825032230
         H           -0.723222661033     1.258482904613    -0.443140108497     1.007825032230
         H            0.161972338967    -1.640337095387    -0.008776108497     1.007825032230

  Basis Set: AUG-CC-PVTZ
    Blend: AUG-CC-PVTZ
  Basis Set: (AUG-CC-PVTZ AUX)
    Blend: AUG-CC-PVTZ-JKFIT
	 Reference Energy          =    -343.2825560026979588 [Eh]
	 Singles Energy            =      -0.0000000000000000 [Eh]
	 Same-Spin Energy          =      -0.3481707106144999 [Eh]
	 Opposite-Spin Energy      =      -1.1057199797062769 [Eh]
	 Correlation Energy        =      -1.4538906903207769 [Eh]
	 Total Energy              =    -344.7364466930187632 [Eh]

	 ================> DF-SCS-MP2 Energies <==================
	-----------------------------------------------------------
	 SCS Same-Spin Scale       =       0.3333333333333333 [-]
	 SCS Opposite-Spin Scale   =       1.2000000000000000 [-]
	 SCS Same-Spin Energy      =      -0.1160569035381666 [Eh]
	 SCS Opposite-Spin Energy  =      -1.3268639756475322 [Eh]
	 SCS Correlation Energy    =      -1.4429208791856989 [Eh]
	 SCS Total Energy          =    -344.7254768818836510 [Eh]
	-----------------------------------------------------------

  Dipole Moment: [D]
     X:    -9.5060      Y:    -1.2202      Z:    -0.5624     Total:     9.6005

*** Psi4 exiting successfully. Buy a developer a beer!
