                               Psi4 1.3.2 release

  ==> Input File <==

--------------------------------------------------------------------------
#psi4
#
memory 32 gb

molecule  {
-1 1
  O        1.8778879     1.2910330    -0.0621599
  O        2.6822890    -0.8295838     0.2837644
  C       -2.1007360    -0.3533330    -0.4966910
  C       -3.0415820     0.2042600     0.5765370
  C       -0.7068410     0.1811810    -0.3555730
  C        0.3877500    -0.5533880    -0.1062960
  C        1.7796670     0.0321010     0.0519970
  H       -2.0810980    -1.4485100    -0.4425170
  H       -2.4999350    -0.0921100    -1.4864390
  H       -3.0846480     1.2965650     0.5261450
  H       -4.0584310    -0.1803650     0.4515950
  H       -2.6909580    -0.0729930     1.5749670
  H       -0.5778430     1.2611610    -0.4426850
  H        0.3073520    -1.6376590    -0.0083210
units angstrom
no_reorient  #important for SAPT in psi4, default
symmetry c1  #important for SAPT in psi4, default
}

set PROPERTIES_ORIGIN ["COM"]
properties('MP2/aug-cc-pvtz', properties = ['dipole'])
--------------------------------------------------------------------------

    Molecular point group: c1
  Charge       = -1
  Multiplicity = 1
  Basis Set: AUG-CC-PVTZ
    Blend: AUG-CC-PVTZ
  Basis Set: (AUG-CC-PVTZ AUX)
    Blend: AUG-CC-PVTZ-JKFIT

    Orbital Energies [Eh]
    ---------------------

    Doubly Occupied:

       1A    -20.297381     2A    -20.293579     3A    -11.143031
       4A    -11.114902     5A    -11.112852     6A    -11.083453
       7A    -11.067686     8A     -1.162295     9A     -1.064836
      10A     -0.952912    11A     -0.860769    12A     -0.742536
      13A     -0.631637    14A     -0.547985    15A     -0.494049
      16A     -0.484899    17A     -0.446350    18A     -0.418849
      19A     -0.407992    20A     -0.383136    21A     -0.376130
      22A     -0.359057    23A     -0.347402    24A     -0.213292
      25A     -0.208945    26A     -0.203195    27A     -0.193569

  @DF-RHF Final Energy:  -343.28569524165897

   => Energetics <=

    Nuclear Repulsion Energy =            271.0522112490046993
    One-Electron Energy =               -1015.4503763435897099
    Two-Electron Energy =                 401.1124698529260399
    Total Energy =                       -343.2856952416589706
  Basis Set: (AUG-CC-PVTZ AUX)
    Blend: AUG-CC-PVTZ-RI
    Molecular point group: c1

    Geometry (in Angstrom), charge = -1, multiplicity = 1:

       Center              X                  Y                   Z               Mass
    ------------   -----------------  -----------------  -----------------  -----------------
         O            1.736958868551     1.284672803229    -0.059719886137    15.994914619570
         O            2.541359968551    -0.835943996771     0.286204413863    15.994914619570
         C           -2.241665031449    -0.359693196771    -0.494250986137    12.000000000000
         C           -3.182511031449     0.197899803229     0.578977013863    12.000000000000
         C           -0.847770031449     0.174820803229    -0.353132986137    12.000000000000
         C            0.246820968551    -0.559748196771    -0.103855986137    12.000000000000
         C            1.638737968551     0.025740803229     0.054437013863    12.000000000000
         H           -2.222027031449    -1.454870196771    -0.440076986137     1.007825032230
         H           -2.640864031449    -0.098470196771    -1.483998986137     1.007825032230
         H           -3.225577031449     1.290204803229     0.528585013863     1.007825032230
         H           -4.199360031449    -0.186725196771     0.454035013863     1.007825032230
         H           -2.831887031449    -0.079353196771     1.577407013863     1.007825032230
         H           -0.718772031449     1.254800803229    -0.440244986137     1.007825032230
         H            0.166422968551    -1.644019196771    -0.005880986137     1.007825032230

  Basis Set: AUG-CC-PVTZ
    Blend: AUG-CC-PVTZ
  Basis Set: (AUG-CC-PVTZ AUX)
    Blend: AUG-CC-PVTZ-JKFIT
	 Reference Energy          =    -343.2856952416589706 [Eh]
	 Singles Energy            =      -0.0000000000000000 [Eh]
	 Same-Spin Energy          =      -0.3482223751051102 [Eh]
	 Opposite-Spin Energy      =      -1.1056567600196754 [Eh]
	 Correlation Energy        =      -1.4538791351247857 [Eh]
	 Total Energy              =    -344.7395743767837644 [Eh]

	 ================> DF-SCS-MP2 Energies <==================
	-----------------------------------------------------------
	 SCS Same-Spin Scale       =       0.3333333333333333 [-]
	 SCS Opposite-Spin Scale   =       1.2000000000000000 [-]
	 SCS Same-Spin Energy      =      -0.1160741250350367 [Eh]
	 SCS Opposite-Spin Energy  =      -1.3267881120236105 [Eh]
	 SCS Correlation Energy    =      -1.4428622370586472 [Eh]
	 SCS Total Energy          =    -344.7285574787176188 [Eh]
	-----------------------------------------------------------

  Dipole Moment: [D]
     X:    -9.3837      Y:    -1.1162      Z:    -0.5667     Total:     9.4668

*** Psi4 exiting successfully. Buy a developer a beer!
