                               Psi4 1.3.2 release

  ==> Input File <==

--------------------------------------------------------------------------
#psi4
#
memory 32 gb

molecule  {
-1 1
  O        1.8996640     1.2894670    -0.0585490
  O        2.6973380    -0.8133440     0.2844750
  C       -2.1007360    -0.3533330    -0.4966910
  C       -3.0415820     0.2042600     0.5765370
  C       -0.7068410     0.1811810    -0.3555730
  C        0.3877500    -0.5533880    -0.1062960
  C        1.9242699    -0.1011208     0.0886299
  H       -2.0810980    -1.4485100    -0.4425170
  H       -2.4999350    -0.0921100    -1.4864390
  H       -3.0846480     1.2965650     0.5261450
  H       -4.0584310    -0.1803650     0.4515950
  H       -2.6909580    -0.0729930     1.5749670
  H       -0.5778430     1.2611610    -0.4426850
  H        0.3073520    -1.6376590    -0.0083210
units angstrom
no_reorient  #important for SAPT in psi4, default
symmetry c1  #important for SAPT in psi4, default
}

set PROPERTIES_ORIGIN ["COM"]
properties('MP2/aug-cc-pvtz', properties = ['dipole'])
--------------------------------------------------------------------------

    Molecular point group: c1
  Charge       = -1
  Multiplicity = 1
  Basis Set: AUG-CC-PVTZ
    Blend: AUG-CC-PVTZ
  Basis Set: (AUG-CC-PVTZ AUX)
    Blend: AUG-CC-PVTZ-JKFIT

    Orbital Energies [Eh]
    ---------------------

    Doubly Occupied:

       1A    -20.342547     2A    -20.257685     3A    -11.138336
       4A    -11.108992     5A    -11.105864     6A    -11.073748
       7A    -11.059788     8A     -1.296811     9A     -1.011984
      10A     -0.943493    11A     -0.845945    12A     -0.730301
      13A     -0.622832    14A     -0.542078    15A     -0.506280
      16A     -0.481442    17A     -0.466428    18A     -0.425397
      19A     -0.422579    20A     -0.402072    21A     -0.390775
      22A     -0.375145    23A     -0.345569    24A     -0.208036
      25A     -0.206199    26A     -0.171403    27A     -0.167825

  @DF-RHF Final Energy:  -343.21874966166308

   => Energetics <=

    Nuclear Repulsion Energy =            271.0877178874818014
    One-Electron Energy =               -1015.3138251897014470
    Two-Electron Energy =                 401.0073576405565063
    Total Energy =                       -343.2187496616630824
  Basis Set: (AUG-CC-PVTZ AUX)
    Blend: AUG-CC-PVTZ-RI
    Molecular point group: c1

    Geometry (in Angstrom), charge = -1, multiplicity = 1:

       Center              X                  Y                   Z               Mass
    ------------   -----------------  -----------------  -----------------  -----------------
         O            1.735268277529     1.296877926141    -0.061245225776    15.994914619570
         O            2.532942277529    -0.805933073859     0.281778774224    15.994914619570
         C           -2.265131722471    -0.345922073859    -0.499387225776    12.000000000000
         C           -3.205977722471     0.211670926141     0.573840774224    12.000000000000
         C           -0.871236722471     0.188591926141    -0.358269225776    12.000000000000
         C            0.223354277529    -0.545977073859    -0.108992225776    12.000000000000
         C            1.759874177529    -0.093709873859     0.085933674224    12.000000000000
         H           -2.245493722471    -1.441099073859    -0.445213225776     1.007825032230
         H           -2.664330722471    -0.084699073859    -1.489135225776     1.007825032230
         H           -3.249043722471     1.303975926141     0.523448774224     1.007825032230
         H           -4.222826722471    -0.172954073859     0.448898774224     1.007825032230
         H           -2.855353722471    -0.065582073859     1.572270774224     1.007825032230
         H           -0.742238722471     1.268571926141    -0.445381225776     1.007825032230
         H            0.142956277529    -1.630248073859    -0.011017225776     1.007825032230

  Basis Set: AUG-CC-PVTZ
    Blend: AUG-CC-PVTZ
  Basis Set: (AUG-CC-PVTZ AUX)
    Blend: AUG-CC-PVTZ-JKFIT
	 Reference Energy          =    -343.2187496616630824 [Eh]
	 Singles Energy            =      -0.0000000000000000 [Eh]
	 Same-Spin Energy          =      -0.3463922798771726 [Eh]
	 Opposite-Spin Energy      =      -1.1022431388565896 [Eh]
	 Correlation Energy        =      -1.4486354187337622 [Eh]
	 Total Energy              =    -344.6673850803968548 [Eh]

	 ================> DF-SCS-MP2 Energies <==================
	-----------------------------------------------------------
	 SCS Same-Spin Scale       =       0.3333333333333333 [-]
	 SCS Opposite-Spin Scale   =       1.2000000000000000 [-]
	 SCS Same-Spin Energy      =      -0.1154640932923909 [Eh]
	 SCS Opposite-Spin Energy  =      -1.3226917666279074 [Eh]
	 SCS Correlation Energy    =      -1.4381558599202984 [Eh]
	 SCS Total Energy          =    -344.6569055215833828 [Eh]
	-----------------------------------------------------------

  Dipole Moment: [D]
     X:    -8.1155      Y:    -2.7746      Z:    -0.2100     Total:     8.5792

*** Psi4 exiting successfully. Buy a developer a beer!
