                               Psi4 1.3.2 release

  ==> Input File <==

--------------------------------------------------------------------------
#psi4
#
memory 32 gb

molecule  {
-1 1
  O        1.8996640     1.2894670    -0.0585490
  O        2.6973380    -0.8133440     0.2844750
  C       -2.1007360    -0.3533330    -0.4966910
  C       -3.0006712     0.2323592     0.5964699
  C       -0.7226679     0.2089484    -0.3141241
  C        0.3877500    -0.5533880    -0.1062960
  C        1.7796670     0.0321010     0.0519970
  H       -2.0810980    -1.4485100    -0.4425170
  H       -2.4999350    -0.0921100    -1.4864390
  H       -3.0846480     1.2965650     0.5261450
  H       -4.0584310    -0.1803650     0.4515950
  H       -2.6909580    -0.0729930     1.5749670
  H       -0.5778430     1.2611610    -0.4426850
  H        0.3073520    -1.6376590    -0.0083210
units angstrom
no_reorient  #important for SAPT in psi4, default
symmetry c1  #important for SAPT in psi4, default
}

set PROPERTIES_ORIGIN ["COM"]
properties('MP2/aug-cc-pvtz', properties = ['dipole'])
--------------------------------------------------------------------------

    Molecular point group: c1
  Charge       = -1
  Multiplicity = 1
  Basis Set: AUG-CC-PVTZ
    Blend: AUG-CC-PVTZ
  Basis Set: (AUG-CC-PVTZ AUX)
    Blend: AUG-CC-PVTZ-JKFIT

    Orbital Energies [Eh]
    ---------------------

    Doubly Occupied:

       1A    -20.295161     2A    -20.291381     3A    -11.141576
       4A    -11.115564     5A    -11.114386     6A    -11.086283
       7A    -11.072835     8A     -1.161587     9A     -1.060839
      10A     -0.954875    11A     -0.857651    12A     -0.742485
      13A     -0.637504    14A     -0.549293    15A     -0.498668
      16A     -0.481783    17A     -0.446291    18A     -0.415100
      19A     -0.412319    20A     -0.387576    21A     -0.369029
      22A     -0.357512    23A     -0.354153    24A     -0.210804
      25A     -0.208826    26A     -0.199396    27A     -0.190916

  @DF-RHF Final Energy:  -343.27996097642824

   => Energetics <=

    Nuclear Repulsion Energy =            270.9599183836376142
    One-Electron Energy =               -1015.2521716432945595
    Two-Electron Energy =                 401.0122922832287031
    Total Energy =                       -343.2799609764282422
  Basis Set: (AUG-CC-PVTZ AUX)
    Blend: AUG-CC-PVTZ-RI
    Molecular point group: c1

    Geometry (in Angstrom), charge = -1, multiplicity = 1:

       Center              X                  Y                   Z               Mass
    ------------   -----------------  -----------------  -----------------  -----------------
         O            1.749748904795     1.273968441952    -0.064243741461    15.994914619570
         O            2.547422904795    -0.828842558048     0.278780258539    15.994914619570
         C           -2.250651095205    -0.368831558048    -0.502385741461    12.000000000000
         C           -3.150586295205     0.216860641952     0.590775158539    12.000000000000
         C           -0.872582995205     0.193449841952    -0.319818841461    12.000000000000
         C            0.237834904795    -0.568886558048    -0.111990741461    12.000000000000
         C            1.629751904795     0.016602441952     0.046302258539    12.000000000000
         H           -2.231013095205    -1.464008558048    -0.448211741461     1.007825032230
         H           -2.649850095205    -0.107608558048    -1.492133741461     1.007825032230
         H           -3.234563095205     1.281066441952     0.520450258539     1.007825032230
         H           -4.208346095205    -0.195863558048     0.445900258539     1.007825032230
         H           -2.840873095205    -0.088491558048     1.569272258539     1.007825032230
         H           -0.727758095205     1.245662441952    -0.448379741461     1.007825032230
         H            0.157436904795    -1.653157558048    -0.014015741461     1.007825032230

  Basis Set: AUG-CC-PVTZ
    Blend: AUG-CC-PVTZ
  Basis Set: (AUG-CC-PVTZ AUX)
    Blend: AUG-CC-PVTZ-JKFIT
	 Reference Energy          =    -343.2799609764282422 [Eh]
	 Singles Energy            =      -0.0000000000000000 [Eh]
	 Same-Spin Energy          =      -0.3484486660002739 [Eh]
	 Opposite-Spin Energy      =      -1.1063972243517741 [Eh]
	 Correlation Energy        =      -1.4548458903520480 [Eh]
	 Total Energy              =    -344.7348068667802750 [Eh]

	 ================> DF-SCS-MP2 Energies <==================
	-----------------------------------------------------------
	 SCS Same-Spin Scale       =       0.3333333333333333 [-]
	 SCS Opposite-Spin Scale   =       1.2000000000000000 [-]
	 SCS Same-Spin Energy      =      -0.1161495553334246 [Eh]
	 SCS Opposite-Spin Energy  =      -1.3276766692221289 [Eh]
	 SCS Correlation Energy    =      -1.4438262245555535 [Eh]
	 SCS Total Energy          =    -344.7237872009837929 [Eh]
	-----------------------------------------------------------

  Dipole Moment: [D]
     X:    -9.4428      Y:    -1.1133      Z:    -0.6068     Total:     9.5275

*** Psi4 exiting successfully. Buy a developer a beer!
