                               Psi4 1.3.2 release

  ==> Input File <==

--------------------------------------------------------------------------
#psi4
#
memory 32 gb

molecule  {
-1 1
  O        1.8996640     1.2894670    -0.0585490
  O        2.6973380    -0.8133440     0.2844750
  C       -2.1007360    -0.3533330    -0.4966910
  C       -3.0442578     0.1917988     0.5805821
  C       -0.7068410     0.1811810    -0.3555730
  C        0.3877500    -0.5533880    -0.1062960
  C        1.7796670     0.0321010     0.0519970
  H       -2.0872849    -1.4482182    -0.4352211
  H       -2.4999350    -0.0921100    -1.4864390
  H       -3.0846480     1.2965650     0.5261450
  H       -4.0584310    -0.1803650     0.4515950
  H       -2.6909580    -0.0729930     1.5749670
  H       -0.5778430     1.2611610    -0.4426850
  H        0.3073520    -1.6376590    -0.0083210
units angstrom
no_reorient  #important for SAPT in psi4, default
symmetry c1  #important for SAPT in psi4, default
}

set PROPERTIES_ORIGIN ["COM"]
properties('MP2/aug-cc-pvtz', properties = ['dipole'])
--------------------------------------------------------------------------

    Molecular point group: c1
  Charge       = -1
  Multiplicity = 1
  Basis Set: AUG-CC-PVTZ
    Blend: AUG-CC-PVTZ
  Basis Set: (AUG-CC-PVTZ AUX)
    Blend: AUG-CC-PVTZ-JKFIT

    Orbital Energies [Eh]
    ---------------------

    Doubly Occupied:

       1A    -20.295421     2A    -20.291702     3A    -11.142060
       4A    -11.115645     5A    -11.113994     6A    -11.085527
       7A    -11.070160     8A     -1.161880     9A     -1.061095
      10A     -0.954168    11A     -0.862501    12A     -0.743698
      13A     -0.632949    14A     -0.548918    15A     -0.495895
      16A     -0.485379    17A     -0.445745    18A     -0.419431
      19A     -0.408993    20A     -0.381613    21A     -0.376562
      22A     -0.358065    23A     -0.348740    24A     -0.211322
      25A     -0.209060    26A     -0.204834    27A     -0.191241

  @DF-RHF Final Energy:  -343.28555088254279

   => Energetics <=

    Nuclear Repulsion Energy =            270.8293570653571578
    One-Electron Energy =               -1014.9966184730867553
    Two-Electron Energy =                 400.8817105251868043
    Total Energy =                       -343.2855508825427933
  Basis Set: (AUG-CC-PVTZ AUX)
    Blend: AUG-CC-PVTZ-RI
    Molecular point group: c1

    Geometry (in Angstrom), charge = -1, multiplicity = 1:

       Center              X                  Y                   Z               Mass
    ------------   -----------------  -----------------  -----------------  -----------------
         O            1.753175156175     1.282243900480    -0.057371207485    15.994914619570
         O            2.550849156175    -0.820567099520     0.285652792515    15.994914619570
         C           -2.247224843825    -0.360556099520    -0.495513207485    12.000000000000
         C           -3.190746643825     0.184575700480     0.581759892515    12.000000000000
         C           -0.853329843825     0.173957900480    -0.354395207485    12.000000000000
         C            0.241261156175    -0.560611099520    -0.105118207485    12.000000000000
         C            1.633178156175     0.024877900480     0.053174792515    12.000000000000
         H           -2.233773743825    -1.455441299520    -0.434043307485     1.007825032230
         H           -2.646423843825    -0.099333099520    -1.485261207485     1.007825032230
         H           -3.231136843825     1.289341900480     0.527322792515     1.007825032230
         H           -4.204919843825    -0.187588099520     0.452772792515     1.007825032230
         H           -2.837446843825    -0.080216099520     1.576144792515     1.007825032230
         H           -0.724331843825     1.253937900480    -0.441507207485     1.007825032230
         H            0.160863156175    -1.644882099520    -0.007143207485     1.007825032230

  Basis Set: AUG-CC-PVTZ
    Blend: AUG-CC-PVTZ
  Basis Set: (AUG-CC-PVTZ AUX)
    Blend: AUG-CC-PVTZ-JKFIT
	 Reference Energy          =    -343.2855508825427933 [Eh]
	 Singles Energy            =      -0.0000000000000000 [Eh]
	 Same-Spin Energy          =      -0.3481375616815123 [Eh]
	 Opposite-Spin Energy      =      -1.1055709603534982 [Eh]
	 Correlation Energy        =      -1.4537085220350106 [Eh]
	 Total Energy              =    -344.7392594045778083 [Eh]

	 ================> DF-SCS-MP2 Energies <==================
	-----------------------------------------------------------
	 SCS Same-Spin Scale       =       0.3333333333333333 [-]
	 SCS Opposite-Spin Scale   =       1.2000000000000000 [-]
	 SCS Same-Spin Energy      =      -0.1160458538938374 [Eh]
	 SCS Opposite-Spin Energy  =      -1.3266851524241978 [Eh]
	 SCS Correlation Energy    =      -1.4427310063180352 [Eh]
	 SCS Total Energy          =    -344.7282818888608062 [Eh]
	-----------------------------------------------------------

  Dipole Moment: [D]
     X:    -9.5108      Y:    -1.1691      Z:    -0.5744     Total:     9.5996

*** Psi4 exiting successfully. Buy a developer a beer!
