                               Psi4 1.3.2 release

  ==> Input File <==

--------------------------------------------------------------------------
#psi4
#
memory 32 gb

molecule  {
-1 1
  O        1.8996640     1.2894670    -0.0585490
  O        2.6973380    -0.8133440     0.2844750
  C       -2.1007360    -0.3533330    -0.4966910
  C       -3.0415820     0.2042600     0.5765370
  C       -0.6138850     0.2168267    -0.3461621
  C        0.3877500    -0.5533880    -0.1062960
  C        1.7796670     0.0321010     0.0519970
  H       -2.0810980    -1.4485100    -0.4425170
  H       -2.4999350    -0.0921100    -1.4864390
  H       -3.0846480     1.2965650     0.5261450
  H       -4.0584310    -0.1803650     0.4515950
  H       -2.6909580    -0.0729930     1.5749670
  H       -0.5778430     1.2611610    -0.4426850
  H        0.3073520    -1.6376590    -0.0083210
units angstrom
no_reorient  #important for SAPT in psi4, default
symmetry c1  #important for SAPT in psi4, default
}

set PROPERTIES_ORIGIN ["COM"]
properties('MP2/aug-cc-pvtz', properties = ['dipole'])
--------------------------------------------------------------------------

    Molecular point group: c1
  Charge       = -1
  Multiplicity = 1
  Basis Set: AUG-CC-PVTZ
    Blend: AUG-CC-PVTZ
  Basis Set: (AUG-CC-PVTZ AUX)
    Blend: AUG-CC-PVTZ-JKFIT

    Orbital Energies [Eh]
    ---------------------

    Doubly Occupied:

       1A    -20.294001     2A    -20.290488     3A    -11.139362
       4A    -11.115129     5A    -11.114172     6A    -11.080097
       7A    -11.061363     8A     -1.161104     9A     -1.060221
      10A     -0.944868    11A     -0.873210    12A     -0.734063
      13A     -0.635392    14A     -0.551363    15A     -0.490324
      16A     -0.483579    17A     -0.448503    18A     -0.426204
      19A     -0.403973    20A     -0.380727    21A     -0.375303
      22A     -0.358684    23A     -0.335868    24A     -0.219097
      25A     -0.208513    26A     -0.207239    27A     -0.190643

  @DF-RHF Final Energy:  -343.27822186005614

   => Energetics <=

    Nuclear Repulsion Energy =            271.1250378296493864
    One-Electron Energy =               -1015.6395420379230927
    Two-Electron Energy =                 401.2362823482175713
    Total Energy =                       -343.2782218600561350
  Basis Set: (AUG-CC-PVTZ AUX)
    Blend: AUG-CC-PVTZ-RI
    Molecular point group: c1

    Geometry (in Angstrom), charge = -1, multiplicity = 1:

       Center              X                  Y                   Z               Mass
    ------------   -----------------  -----------------  -----------------  -----------------
         O            1.741525688554     1.276418356324    -0.057947075395    15.994914619570
         O            2.539199688554    -0.826392643676     0.285076924605    15.994914619570
         C           -2.258874311446    -0.366381643676    -0.496089075395    12.000000000000
         C           -3.199720311446     0.191211356324     0.577138924605    12.000000000000
         C           -0.772023311446     0.203778056324    -0.345560175395    12.000000000000
         C            0.229611688554    -0.566436643676    -0.105694075395    12.000000000000
         C            1.621528688554     0.019052356324     0.052598924605    12.000000000000
         H           -2.239236311446    -1.461558643676    -0.441915075395     1.007825032230
         H           -2.658073311446    -0.105158643676    -1.485837075395     1.007825032230
         H           -3.242786311446     1.283516356324     0.526746924605     1.007825032230
         H           -4.216569311446    -0.193413643676     0.452196924605     1.007825032230
         H           -2.849096311446    -0.086041643676     1.575568924605     1.007825032230
         H           -0.735981311446     1.248112356324    -0.442083075395     1.007825032230
         H            0.149213688554    -1.650707643676    -0.007719075395     1.007825032230

  Basis Set: AUG-CC-PVTZ
    Blend: AUG-CC-PVTZ
  Basis Set: (AUG-CC-PVTZ AUX)
    Blend: AUG-CC-PVTZ-JKFIT
	 Reference Energy          =    -343.2782218600561350 [Eh]
	 Singles Energy            =      -0.0000000000000000 [Eh]
	 Same-Spin Energy          =      -0.3470402819975759 [Eh]
	 Opposite-Spin Energy      =      -1.1039183363681428 [Eh]
	 Correlation Energy        =      -1.4509586183657186 [Eh]
	 Total Energy              =    -344.7291804784218812 [Eh]

	 ================> DF-SCS-MP2 Energies <==================
	-----------------------------------------------------------
	 SCS Same-Spin Scale       =       0.3333333333333333 [-]
	 SCS Opposite-Spin Scale   =       1.2000000000000000 [-]
	 SCS Same-Spin Energy      =      -0.1156800939991919 [Eh]
	 SCS Opposite-Spin Energy  =      -1.3247020036417714 [Eh]
	 SCS Correlation Energy    =      -1.4403820976409634 [Eh]
	 SCS Total Energy          =    -344.7186039576970984 [Eh]
	-----------------------------------------------------------

  Dipole Moment: [D]
     X:    -9.4245      Y:    -1.1118      Z:    -0.5707     Total:     9.5070

*** Psi4 exiting successfully. Buy a developer a beer!
