                               Psi4 1.3.2 release

  ==> Input File <==

--------------------------------------------------------------------------
#psi4
#
memory 32 gb

molecule  {
-1 1
  O        1.8996640     1.2894670    -0.0585490
  O        2.6973380    -0.8133440     0.2844750
  C       -2.1007360    -0.3533330    -0.4966910
  C       -3.0415820     0.2042600     0.5765370
  C       -0.7361510     0.2536796    -0.3625033
  C        0.3877500    -0.5533880    -0.1062960
  C        1.7796670     0.0321010     0.0519970
  H       -2.1381082    -1.4483642    -0.4493302
  H       -2.4999350    -0.0921100    -1.4864390
  H       -3.0846480     1.2965650     0.5261450
  H       -4.0584310    -0.1803650     0.4515950
  H       -2.6909580    -0.0729930     1.5749670
  H       -0.5778430     1.2611610    -0.4426850
  H        0.3073520    -1.6376590    -0.0083210
units angstrom
no_reorient  #important for SAPT in psi4, default
symmetry c1  #important for SAPT in psi4, default
}

set PROPERTIES_ORIGIN ["COM"]
properties('MP2/aug-cc-pvtz', properties = ['dipole'])
--------------------------------------------------------------------------

    Molecular point group: c1
  Charge       = -1
  Multiplicity = 1
  Basis Set: AUG-CC-PVTZ
    Blend: AUG-CC-PVTZ
  Basis Set: (AUG-CC-PVTZ AUX)
    Blend: AUG-CC-PVTZ-JKFIT

    Orbital Energies [Eh]
    ---------------------

    Doubly Occupied:

       1A    -20.295383     2A    -20.291346     3A    -11.141438
       4A    -11.114840     5A    -11.114143     6A    -11.090106
       7A    -11.080119     8A     -1.161656     9A     -1.060955
      10A     -0.952316    11A     -0.852107    12A     -0.741028
      13A     -0.646852    14A     -0.546068    15A     -0.492048
      16A     -0.489400    17A     -0.446111    18A     -0.418990
      19A     -0.407278    20A     -0.383866    21A     -0.371263
      22A     -0.363497    23A     -0.357088    24A     -0.210300
      25A     -0.208941    26A     -0.192982    27A     -0.188940

  @DF-RHF Final Energy:  -343.27375964120552

   => Energetics <=

    Nuclear Repulsion Energy =            270.1617076767971071
    One-Electron Energy =               -1013.6328159374206734
    Two-Electron Energy =                 400.1973486194181078
    Total Energy =                       -343.2737596412055154
  Basis Set: (AUG-CC-PVTZ AUX)
    Blend: AUG-CC-PVTZ-RI
    Molecular point group: c1

    Geometry (in Angstrom), charge = -1, multiplicity = 1:

       Center              X                  Y                   Z               Mass
    ------------   -----------------  -----------------  -----------------  -----------------
         O            1.756919240933     1.271951866269    -0.055897888419    15.994914619570
         O            2.554593240933    -0.830859133731     0.287126111581    15.994914619570
         C           -2.243480759067    -0.370848133731    -0.494039888419    12.000000000000
         C           -3.184326759067     0.186744866269     0.579188111581    12.000000000000
         C           -0.878895759067     0.236164466269    -0.359852188419    12.000000000000
         C            0.245005240933    -0.570903133731    -0.103644888419    12.000000000000
         C            1.636922240933     0.014585866269     0.054648111581    12.000000000000
         H           -2.280852959067    -1.465879333731    -0.446679088419     1.007825032230
         H           -2.642679759067    -0.109625133731    -1.483787888419     1.007825032230
         H           -3.227392759067     1.279049866269     0.528796111581     1.007825032230
         H           -4.201175759067    -0.197880133731     0.454246111581     1.007825032230
         H           -2.833702759067    -0.090508133731     1.577618111581     1.007825032230
         H           -0.720587759067     1.243645866269    -0.440033888419     1.007825032230
         H            0.164607240933    -1.655174133731    -0.005669888419     1.007825032230

  Basis Set: AUG-CC-PVTZ
    Blend: AUG-CC-PVTZ
  Basis Set: (AUG-CC-PVTZ AUX)
    Blend: AUG-CC-PVTZ-JKFIT
	 Reference Energy          =    -343.2737596412055154 [Eh]
	 Singles Energy            =      -0.0000000000000000 [Eh]
	 Same-Spin Energy          =      -0.3487731085524433 [Eh]
	 Opposite-Spin Energy      =      -1.1074008186301381 [Eh]
	 Correlation Energy        =      -1.4561739271825813 [Eh]
	 Total Energy              =    -344.7299335683881054 [Eh]

	 ================> DF-SCS-MP2 Energies <==================
	-----------------------------------------------------------
	 SCS Same-Spin Scale       =       0.3333333333333333 [-]
	 SCS Opposite-Spin Scale   =       1.2000000000000000 [-]
	 SCS Same-Spin Energy      =      -0.1162577028508144 [Eh]
	 SCS Opposite-Spin Energy  =      -1.3288809823561656 [Eh]
	 SCS Correlation Energy    =      -1.4451386852069801 [Eh]
	 SCS Total Energy          =    -344.7188983264125000 [Eh]
	-----------------------------------------------------------

  Dipole Moment: [D]
     X:    -9.5012      Y:    -1.1372      Z:    -0.6017     Total:     9.5879

*** Psi4 exiting successfully. Buy a developer a beer!
