                               Psi4 1.3.2 release

  ==> Input File <==

--------------------------------------------------------------------------
#psi4
#
memory 32 gb

molecule  {
-1 1
  O        1.8996640     1.2894670    -0.0585490
  O        2.6973380    -0.8133440     0.2844750
  C       -2.1257000    -0.2796635    -0.5073100
  C       -3.0415820     0.2042600     0.5765370
  C       -0.7068410     0.1811810    -0.3555730
  C        0.3877500    -0.5533880    -0.1062960
  C        1.7796670     0.0321010     0.0519970
  H       -2.0810980    -1.4485100    -0.4425170
  H       -2.4999350    -0.0921100    -1.4864390
  H       -3.0846480     1.2965650     0.5261450
  H       -4.0584310    -0.1803650     0.4515950
  H       -2.6909580    -0.0729930     1.5749670
  H       -0.6341862     1.2657149    -0.4509321
  H        0.3073520    -1.6376590    -0.0083210
units angstrom
no_reorient  #important for SAPT in psi4, default
symmetry c1  #important for SAPT in psi4, default
}

set PROPERTIES_ORIGIN ["COM"]
properties('MP2/aug-cc-pvtz', properties = ['dipole'])
--------------------------------------------------------------------------

    Molecular point group: c1
  Charge       = -1
  Multiplicity = 1
  Basis Set: AUG-CC-PVTZ
    Blend: AUG-CC-PVTZ
  Basis Set: (AUG-CC-PVTZ AUX)
    Blend: AUG-CC-PVTZ-JKFIT

    Orbital Energies [Eh]
    ---------------------

    Doubly Occupied:

       1A    -20.295872     2A    -20.291561     3A    -11.142777
       4A    -11.115698     5A    -11.115016     6A    -11.087034
       7A    -11.072936     8A     -1.162062     9A     -1.061201
      10A     -0.958106    11A     -0.865272    12A     -0.744424
      13A     -0.632034    14A     -0.549250    15A     -0.500704
      16A     -0.484104    17A     -0.445786    18A     -0.429872
      19A     -0.415731    20A     -0.378271    21A     -0.374229
      22A     -0.358744    23A     -0.332631    24A     -0.212100
      25A     -0.208910    26A     -0.207254    27A     -0.191205

  @DF-RHF Final Energy:  -343.27784470022317

   => Energetics <=

    Nuclear Repulsion Energy =            270.8970101985568135
    One-Electron Energy =               -1015.0841386704369143
    Two-Electron Energy =                 400.9092837716569306
    Total Energy =                       -343.2778447002231701
  Basis Set: (AUG-CC-PVTZ AUX)
    Blend: AUG-CC-PVTZ-RI
    Molecular point group: c1

    Geometry (in Angstrom), charge = -1, multiplicity = 1:

       Center              X                  Y                   Z               Mass
    ------------   -----------------  -----------------  -----------------  -----------------
         O            1.756385903256     1.271765148440    -0.055436384023    15.994914619570
         O            2.554059903256    -0.831045851560     0.287587615977    15.994914619570
         C           -2.268978096744    -0.297365351560    -0.504197384023    12.000000000000
         C           -3.184860096744     0.186558148440     0.579649615977    12.000000000000
         C           -0.850119096744     0.163479148440    -0.352460384023    12.000000000000
         C            0.244471903256    -0.571089851560    -0.103183384023    12.000000000000
         C            1.636388903256     0.014399148440     0.055109615977    12.000000000000
         H           -2.224376096744    -1.466211851560    -0.439404384023     1.007825032230
         H           -2.643213096744    -0.109811851560    -1.483326384023     1.007825032230
         H           -3.227926096744     1.278863148440     0.529257615977     1.007825032230
         H           -4.201709096744    -0.198066851560     0.454707615977     1.007825032230
         H           -2.834236096744    -0.090694851560     1.578079615977     1.007825032230
         H           -0.777464296744     1.248013048440    -0.447819484023     1.007825032230
         H            0.164073903256    -1.655360851560    -0.005208384023     1.007825032230

  Basis Set: AUG-CC-PVTZ
    Blend: AUG-CC-PVTZ
  Basis Set: (AUG-CC-PVTZ AUX)
    Blend: AUG-CC-PVTZ-JKFIT
	 Reference Energy          =    -343.2778447002231701 [Eh]
	 Singles Energy            =      -0.0000000000000000 [Eh]
	 Same-Spin Energy          =      -0.3484148368801098 [Eh]
	 Opposite-Spin Energy      =      -1.1063062580412233 [Eh]
	 Correlation Energy        =      -1.4547210949213332 [Eh]
	 Total Energy              =    -344.7325657951445237 [Eh]

	 ================> DF-SCS-MP2 Energies <==================
	-----------------------------------------------------------
	 SCS Same-Spin Scale       =       0.3333333333333333 [-]
	 SCS Opposite-Spin Scale   =       1.2000000000000000 [-]
	 SCS Same-Spin Energy      =      -0.1161382789600366 [Eh]
	 SCS Opposite-Spin Energy  =      -1.3275675096494679 [Eh]
	 SCS Correlation Energy    =      -1.4437057886095044 [Eh]
	 SCS Total Energy          =    -344.7215504888326905 [Eh]
	-----------------------------------------------------------

  Dipole Moment: [D]
     X:    -9.5345      Y:    -1.0540      Z:    -0.5844     Total:     9.6104

*** Psi4 exiting successfully. Buy a developer a beer!
