                               Psi4 1.4a3.dev225

  ==> Input File <==

--------------------------------------------------------------------------
#psi4
#
memory 32 gb

molecule  {
-1 1
  O        1.8994270     1.2905180    -0.0615170
  O        2.6993700    -0.8109500     0.2832770
  C       -2.1001690    -0.3616000    -0.4913260
  C       -3.0433460     0.2119310     0.5709670
  C       -0.7080250     0.1770830    -0.3546910
  C        0.3885780    -0.5541740    -0.1016650
  C        1.7751431    -0.0165682     0.0563443
  H       -2.0812530    -1.4558260    -0.4203270
  H       -2.4968010    -0.1155520    -1.4857470
  H       -3.0817280     1.3037570     0.5071420
  H       -4.0608920    -0.1705790     0.4451360
  H       -2.6986290    -0.0550030     1.5741980
  H       -0.5806440     1.2564400    -0.4499950
  H        0.3081890    -1.6372690     0.0045550
units angstrom
no_reorient  #important for SAPT in psi4, default
symmetry c1  #important for SAPT in psi4, default
}

set PROPERTIES_ORIGIN ["COM"]
properties('MP2/aug-cc-pvtz', properties = ['dipole'])
--------------------------------------------------------------------------

    Molecular point group: c1
  Charge       = -1
  Multiplicity = 1
  Basis Set: AUG-CC-PVTZ
    Blend: AUG-CC-PVTZ
  Basis Set: (AUG-CC-PVTZ AUX)
    Blend: AUG-CC-PVTZ-JKFIT

    Orbital Energies [Eh]
    ---------------------

    Doubly Occupied:

       1A    -20.304427     2A    -20.280082     3A    -11.141389
       4A    -11.116691     5A    -11.115301     6A    -11.088568
       7A    -11.071193     8A     -1.164997     9A     -1.045446
      10A     -0.955740    11A     -0.864560    12A     -0.746890
      13A     -0.639358    14A     -0.551096    15A     -0.496053
      16A     -0.486971    17A     -0.446117    18A     -0.420810
      19A     -0.410182    20A     -0.382407    21A     -0.374233
      22A     -0.356704    23A     -0.347923    24A     -0.215458
      25A     -0.207761    26A     -0.200081    27A     -0.184073

  @DF-RHF Final Energy:  -343.28013882971464

   => Energetics <=

    Nuclear Repulsion Energy =            270.7819149494088720
    One-Electron Energy =               -1014.8950784196000541
    Two-Electron Energy =                 400.8330246404765944
    Total Energy =                       -343.2801388297146445
  Basis Set: (AUG-CC-PVTZ AUX)
    Blend: AUG-CC-PVTZ-RI
    Molecular point group: c1

    Geometry (in Angstrom), charge = -1, multiplicity = 1:

       Center              X                  Y                   Z               Mass
    ------------   -----------------  -----------------  -----------------  -----------------
         O            1.753060449634     1.287793576119    -0.060294469491    15.994914619570
         O            2.553003449634    -0.813674423881     0.284499530509    15.994914619570
         C           -2.246535550366    -0.364324423881    -0.490103469491    12.000000000000
         C           -3.189712550366     0.209206576119     0.572189530509    12.000000000000
         C           -0.854391550366     0.174358576119    -0.353468469491    12.000000000000
         C            0.242211449634    -0.556898423881    -0.100442469491    12.000000000000
         C            1.628776549634    -0.019292623881     0.057566830509    12.000000000000
         H           -2.227619550366    -1.458550423881    -0.419104469491     1.007825032230
         H           -2.643167550366    -0.118276423881    -1.484524469491     1.007825032230
         H           -3.228094550366     1.301032576119     0.508364530509     1.007825032230
         H           -4.207258550366    -0.173303423881     0.446358530509     1.007825032230
         H           -2.844995550366    -0.057727423881     1.575420530509     1.007825032230
         H           -0.727010550366     1.253715576119    -0.448772469491     1.007825032230
         H            0.161822449634    -1.639993423881     0.005777530509     1.007825032230

  Basis Set: AUG-CC-PVTZ
    Blend: AUG-CC-PVTZ
  Basis Set: (AUG-CC-PVTZ AUX)
    Blend: AUG-CC-PVTZ-JKFIT
	 Reference Energy          =    -343.2801388297146445 [Eh]
	 Singles Energy            =      -0.0000000000000000 [Eh]
	 Same-Spin Energy          =      -0.3485314701927912 [Eh]
	 Opposite-Spin Energy      =      -1.1065816961791555 [Eh]
	 Correlation Energy        =      -1.4551131663719468 [Eh]
	 Total Energy              =    -344.7352519960866175 [Eh]

	 ================> DF-SCS-MP2 Energies <==================
	-----------------------------------------------------------
	 SCS Same-Spin Scale       =       0.3333333333333333 [-]
	 SCS Opposite-Spin Scale   =       1.2000000000000000 [-]
	 SCS Same-Spin Energy      =      -0.1161771567309304 [Eh]
	 SCS Opposite-Spin Energy  =      -1.3278980354149865 [Eh]
	 SCS Correlation Energy    =      -1.4440751921459170 [Eh]
	 SCS Total Energy          =    -344.7242140218605755 [Eh]
	-----------------------------------------------------------

  Dipole Moment: [D]
     X:    -9.5225      Y:    -1.6140      Z:    -0.5172     Total:     9.6721

*** Psi4 exiting successfully. Buy a developer a beer!
