                               Psi4 1.3.2 release

  ==> Input File <==

--------------------------------------------------------------------------
#psi4
#
memory 32 gb

molecule  {
-1 1
  O        1.8996640     1.2894670    -0.0585490
  O        2.6973380    -0.8133440     0.2844750
  C       -2.1007360    -0.3533330    -0.4966910
  C       -3.0415820     0.2042600     0.5765370
  C       -0.7068410     0.1811810    -0.3555730
  C        0.3877500    -0.5533880    -0.1062960
  C        1.7891312     0.1312696     0.0432782
  H       -2.0810980    -1.4485100    -0.4425170
  H       -2.4999350    -0.0921100    -1.4864390
  H       -3.0846480     1.2965650     0.5261450
  H       -4.0584310    -0.1803650     0.4515950
  H       -2.6909580    -0.0729930     1.5749670
  H       -0.5778430     1.2611610    -0.4426850
  H        0.3073520    -1.6376590    -0.0083210
units angstrom
no_reorient  #important for SAPT in psi4, default
symmetry c1  #important for SAPT in psi4, default
}

set PROPERTIES_ORIGIN ["COM"]
properties('MP2/aug-cc-pvtz', properties = ['dipole'])
--------------------------------------------------------------------------

    Molecular point group: c1
  Charge       = -1
  Multiplicity = 1
  Basis Set: AUG-CC-PVTZ
    Blend: AUG-CC-PVTZ
  Basis Set: (AUG-CC-PVTZ AUX)
    Blend: AUG-CC-PVTZ-JKFIT

    Orbital Energies [Eh]
    ---------------------

    Doubly Occupied:

       1A    -20.315890     2A    -20.277513     3A    -11.141509
       4A    -11.113831     5A    -11.111108     6A    -11.079403
       7A    -11.066988     8A     -1.209993     9A     -1.048665
      10A     -0.951160    11A     -0.857684    12A     -0.738073
      13A     -0.621467    14A     -0.545888    15A     -0.495718
      16A     -0.483282    17A     -0.459947    18A     -0.415634
      19A     -0.408007    20A     -0.387747    21A     -0.379009
      22A     -0.377161    23A     -0.350434    24A     -0.216779
      25A     -0.206766    26A     -0.193523    27A     -0.188262

  @DF-RHF Final Energy:  -343.27413420331271

   => Energetics <=

    Nuclear Repulsion Energy =            271.1440732101443700
    One-Electron Energy =               -1015.5535311717989089
    Two-Electron Energy =                 401.1353237583418263
    Total Energy =                       -343.2741342033127125
  Basis Set: (AUG-CC-PVTZ AUX)
    Blend: AUG-CC-PVTZ-RI
    Molecular point group: c1

    Geometry (in Angstrom), charge = -1, multiplicity = 1:

       Center              X                  Y                   Z               Mass
    ------------   -----------------  -----------------  -----------------  -----------------
         O            1.751641349124     1.268722078429    -0.055750525656    15.994914619570
         O            2.549315349124    -0.834088921571     0.287273474344    15.994914619570
         C           -2.248758650876    -0.374077921571    -0.493892525656    12.000000000000
         C           -3.189604650876     0.183515078429     0.579335474344    12.000000000000
         C           -0.854863650876     0.160436078429    -0.352774525656    12.000000000000
         C            0.239727349124    -0.574132921571    -0.103497525656    12.000000000000
         C            1.641108549124     0.110524678429     0.046076674344    12.000000000000
         H           -2.229120650876    -1.469254921571    -0.439718525656     1.007825032230
         H           -2.647957650876    -0.112854921571    -1.483640525656     1.007825032230
         H           -3.232670650876     1.275820078429     0.528943474344     1.007825032230
         H           -4.206453650876    -0.201109921571     0.454393474344     1.007825032230
         H           -2.838980650876    -0.093737921571     1.577765474344     1.007825032230
         H           -0.725865650876     1.240416078429    -0.439886525656     1.007825032230
         H            0.159329349124    -1.658403921571    -0.005522525656     1.007825032230

  Basis Set: AUG-CC-PVTZ
    Blend: AUG-CC-PVTZ
  Basis Set: (AUG-CC-PVTZ AUX)
    Blend: AUG-CC-PVTZ-JKFIT
	 Reference Energy          =    -343.2741342033127125 [Eh]
	 Singles Energy            =      -0.0000000000000000 [Eh]
	 Same-Spin Energy          =      -0.3474823091669708 [Eh]
	 Opposite-Spin Energy      =      -1.1038770099516706 [Eh]
	 Correlation Energy        =      -1.4513593191186414 [Eh]
	 Total Energy              =    -344.7254935224313499 [Eh]

	 ================> DF-SCS-MP2 Energies <==================
	-----------------------------------------------------------
	 SCS Same-Spin Scale       =       0.3333333333333333 [-]
	 SCS Opposite-Spin Scale   =       1.2000000000000000 [-]
	 SCS Same-Spin Energy      =      -0.1158274363889902 [Eh]
	 SCS Opposite-Spin Energy  =      -1.3246524119420047 [Eh]
	 SCS Correlation Energy    =      -1.4404798483309948 [Eh]
	 SCS Total Energy          =    -344.7146140516437072 [Eh]
	-----------------------------------------------------------

  Dipole Moment: [D]
     X:    -9.5137      Y:    -0.2077      Z:    -0.6885     Total:     9.5408

*** Psi4 exiting successfully. Buy a developer a beer!
