                               Psi4 1.3.2 release

  ==> Input File <==

--------------------------------------------------------------------------
#psi4
#
memory 32 gb

molecule  {
-1 1
  O        1.8996640     1.2894670    -0.0585490
  O        2.6973380    -0.8133440     0.2844750
  C       -2.1007360    -0.3533330    -0.4966910
  C       -3.0415820     0.2042600     0.5765370
  C       -0.7068410     0.1811810    -0.3555730
  C        0.3877500    -0.5533880    -0.1062960
  C        1.7796670     0.0321010     0.0519970
  H       -2.0810980    -1.4485100    -0.4425170
  H       -2.4999350    -0.0921100    -1.4864390
  H       -3.0846480     1.2965650     0.5261450
  H       -4.0584310    -0.1803650     0.4515950
  H       -2.6909580    -0.0729930     1.5749670
  H       -0.5778430     1.2611610    -0.4426850
  H        0.4395771    -1.4877018    -0.0029040
units angstrom
no_reorient  #important for SAPT in psi4, default
symmetry c1  #important for SAPT in psi4, default
}

set PROPERTIES_ORIGIN ["COM"]
properties('MP2/aug-cc-pvtz', properties = ['dipole'])
--------------------------------------------------------------------------

    Molecular point group: c1
  Charge       = -1
  Multiplicity = 1
  Basis Set: AUG-CC-PVTZ
    Blend: AUG-CC-PVTZ
  Basis Set: (AUG-CC-PVTZ AUX)
    Blend: AUG-CC-PVTZ-JKFIT

    Orbital Energies [Eh]
    ---------------------

    Doubly Occupied:

       1A    -20.295379     2A    -20.288428     3A    -11.137323
       4A    -11.115729     5A    -11.113871     6A    -11.086221
       7A    -11.051249     8A     -1.160537     9A     -1.059594
      10A     -0.954623    11A     -0.866788    12A     -0.749398
      13A     -0.646681    14A     -0.548491    15A     -0.503190
      16A     -0.493364    17A     -0.445957    18A     -0.425580
      19A     -0.408980    20A     -0.384040    21A     -0.375653
      22A     -0.356459    23A     -0.354122    24A     -0.210242
      25A     -0.205344    26A     -0.203949    27A     -0.189884

  @DF-RHF Final Energy:  -343.26761670754553

   => Energetics <=

    Nuclear Repulsion Energy =            271.6554909355619429
    One-Electron Energy =               -1016.5840660485044964
    Two-Electron Energy =                 401.6609584053970252
    Total Energy =                       -343.2676167075455282
  Basis Set: (AUG-CC-PVTZ AUX)
    Blend: AUG-CC-PVTZ-RI
    Molecular point group: c1

    Geometry (in Angstrom), charge = -1, multiplicity = 1:

       Center              X                  Y                   Z               Mass
    ------------   -----------------  -----------------  -----------------  -----------------
         O            1.751442556209     1.279211216991    -0.056861994462    15.994914619570
         O            2.549116556209    -0.823599783009     0.286162005538    15.994914619570
         C           -2.248957443791    -0.363588783009    -0.495003994462    12.000000000000
         C           -3.189803443791     0.194004216991     0.578224005538    12.000000000000
         C           -0.855062443791     0.170925216991    -0.353885994462    12.000000000000
         C            0.239528556209    -0.563643783009    -0.104608994462    12.000000000000
         C            1.631445556209     0.021845216991     0.053684005538    12.000000000000
         H           -2.229319443791    -1.458765783009    -0.440829994462     1.007825032230
         H           -2.648156443791    -0.102365783009    -1.484751994462     1.007825032230
         H           -3.232869443791     1.286309216991     0.527832005538     1.007825032230
         H           -4.206652443791    -0.190620783009     0.453282005538     1.007825032230
         H           -2.839179443791    -0.083248783009     1.576654005538     1.007825032230
         H           -0.726064443791     1.250905216991    -0.440997994462     1.007825032230
         H            0.291355656209    -1.497957583009    -0.001216994462     1.007825032230

  Basis Set: AUG-CC-PVTZ
    Blend: AUG-CC-PVTZ
  Basis Set: (AUG-CC-PVTZ AUX)
    Blend: AUG-CC-PVTZ-JKFIT
	 Reference Energy          =    -343.2676167075455282 [Eh]
	 Singles Energy            =      -0.0000000000000000 [Eh]
	 Same-Spin Energy          =      -0.3479344867486062 [Eh]
	 Opposite-Spin Energy      =      -1.1050225970977849 [Eh]
	 Correlation Energy        =      -1.4529570838463912 [Eh]
	 Total Energy              =    -344.7205737913919279 [Eh]

	 ================> DF-SCS-MP2 Energies <==================
	-----------------------------------------------------------
	 SCS Same-Spin Scale       =       0.3333333333333333 [-]
	 SCS Opposite-Spin Scale   =       1.2000000000000000 [-]
	 SCS Same-Spin Energy      =      -0.1159781622495354 [Eh]
	 SCS Opposite-Spin Energy  =      -1.3260271165173418 [Eh]
	 SCS Correlation Energy    =      -1.4420052787668771 [Eh]
	 SCS Total Energy          =    -344.7096219863124134 [Eh]
	-----------------------------------------------------------

  Dipole Moment: [D]
     X:    -9.5467      Y:    -1.2517      Z:    -0.5750     Total:     9.6456

*** Psi4 exiting successfully. Buy a developer a beer!
