                               Psi4 1.3.2 release

  ==> Input File <==

--------------------------------------------------------------------------
#psi4
#
memory 32 gb

molecule  {
-1 1
  O        1.8996640     1.2894670    -0.0585490
  O        2.6973380    -0.8133440     0.2844750
  C       -2.1007360    -0.3533330    -0.4966910
  C       -3.0415820     0.2042600     0.5765370
  C       -0.7068410     0.1811810    -0.3555730
  C        0.2245717    -0.4438807    -0.1434575
  C        1.7796670     0.0321010     0.0519970
  H       -2.0810980    -1.4485100    -0.4425170
  H       -2.4999350    -0.0921100    -1.4864390
  H       -3.0846480     1.2965650     0.5261450
  H       -4.0584310    -0.1803650     0.4515950
  H       -2.6909580    -0.0729930     1.5749670
  H       -0.5778430     1.2611610    -0.4426850
  H        0.3073520    -1.6376590    -0.0083210
units angstrom
no_reorient  #important for SAPT in psi4, default
symmetry c1  #important for SAPT in psi4, default
}

set PROPERTIES_ORIGIN ["COM"]
properties('MP2/aug-cc-pvtz', properties = ['dipole'])
--------------------------------------------------------------------------

    Molecular point group: c1
  Charge       = -1
  Multiplicity = 1
  Basis Set: AUG-CC-PVTZ
    Blend: AUG-CC-PVTZ
  Basis Set: (AUG-CC-PVTZ AUX)
    Blend: AUG-CC-PVTZ-JKFIT

    Orbital Energies [Eh]
    ---------------------

    Doubly Occupied:

       1A    -20.304112     2A    -20.294373     3A    -11.151767
       4A    -11.113814     5A    -11.110123     6A    -11.052958
       7A    -11.046861     8A     -1.162558     9A     -1.064339
      10A     -0.977578    11A     -0.887925    12A     -0.737194
      13A     -0.609966    14A     -0.549368    15A     -0.498764
      16A     -0.477988    17A     -0.452201    18A     -0.420898
      19A     -0.406487    20A     -0.386160    21A     -0.377487
      22A     -0.358330    23A     -0.322051    24A     -0.257443
      25A     -0.214569    26A     -0.195101    27A     -0.191449

  @DF-RHF Final Energy:  -343.21514386427566

   => Energetics <=

    Nuclear Repulsion Energy =            272.4392989305756601
    One-Electron Energy =               -1018.0651549223948678
    Two-Electron Energy =                 402.4107121275435475
    Total Energy =                       -343.2151438642756602
  Basis Set: (AUG-CC-PVTZ AUX)
    Blend: AUG-CC-PVTZ-RI
    Molecular point group: c1

    Geometry (in Angstrom), charge = -1, multiplicity = 1:

       Center              X                  Y                   Z               Mass
    ------------   -----------------  -----------------  -----------------  -----------------
         O            1.772558288630     1.267469467035    -0.052304478274    15.994914619570
         O            2.570232288630    -0.835341532965     0.290719521726    15.994914619570
         C           -2.227841711370    -0.375330532965    -0.490446478274    12.000000000000
         C           -3.168687711370     0.182262467035     0.582781521726    12.000000000000
         C           -0.833946711370     0.159183467035    -0.349328478274    12.000000000000
         C            0.097465988630    -0.465878232965    -0.137212978274    12.000000000000
         C            1.652561288630     0.010103467035     0.058241521726    12.000000000000
         H           -2.208203711370    -1.470507532965    -0.436272478274     1.007825032230
         H           -2.627040711370    -0.114107532965    -1.480194478274     1.007825032230
         H           -3.211753711370     1.274567467035     0.532389521726     1.007825032230
         H           -4.185536711370    -0.202362532965     0.457839521726     1.007825032230
         H           -2.818063711370    -0.094990532965     1.581211521726     1.007825032230
         H           -0.704948711370     1.239163467035    -0.436440478274     1.007825032230
         H            0.180246288630    -1.659656532965    -0.002076478274     1.007825032230

  Basis Set: AUG-CC-PVTZ
    Blend: AUG-CC-PVTZ
  Basis Set: (AUG-CC-PVTZ AUX)
    Blend: AUG-CC-PVTZ-JKFIT
	 Reference Energy          =    -343.2151438642756602 [Eh]
	 Singles Energy            =      -0.0000000000000000 [Eh]
	 Same-Spin Energy          =      -0.3482366131965059 [Eh]
	 Opposite-Spin Energy      =      -1.1039117218564034 [Eh]
	 Correlation Energy        =      -1.4521483350529092 [Eh]
	 Total Energy              =    -344.6672921993285854 [Eh]

	 ================> DF-SCS-MP2 Energies <==================
	-----------------------------------------------------------
	 SCS Same-Spin Scale       =       0.3333333333333333 [-]
	 SCS Opposite-Spin Scale   =       1.2000000000000000 [-]
	 SCS Same-Spin Energy      =      -0.1160788710655020 [Eh]
	 SCS Opposite-Spin Energy  =      -1.3246940662276840 [Eh]
	 SCS Correlation Energy    =      -1.4407729372931861 [Eh]
	 SCS Total Energy          =    -344.6559168015688215 [Eh]
	-----------------------------------------------------------

  Dipole Moment: [D]
     X:    -9.3095      Y:    -0.9008      Z:    -0.5779     Total:     9.3709

*** Psi4 exiting successfully. Buy a developer a beer!
