                               Psi4 1.3.2 release

  ==> Input File <==

--------------------------------------------------------------------------
#psi4
#
memory 32 gb

molecule  {
-1 1
  O        1.8996640     1.2894670    -0.0585490
  O        2.6973380    -0.8133440     0.2844750
  C       -2.0819661    -0.4016443    -0.4893949
  C       -3.0415820     0.2042600     0.5765370
  C       -0.7068410     0.1811810    -0.3555730
  C        0.3877500    -0.5533880    -0.1062960
  C        1.7796670     0.0321010     0.0519970
  H       -2.0810980    -1.4485100    -0.4425170
  H       -2.4999350    -0.0921100    -1.4864390
  H       -3.0846480     1.2965650     0.5261450
  H       -4.0584310    -0.1803650     0.4515950
  H       -2.6909580    -0.0729930     1.5749670
  H       -0.5404678     1.2564795    -0.4370529
  H        0.3073520    -1.6376590    -0.0083210
units angstrom
no_reorient  #important for SAPT in psi4, default
symmetry c1  #important for SAPT in psi4, default
}

set PROPERTIES_ORIGIN ["COM"]
properties('MP2/aug-cc-pvtz', properties = ['dipole'])
--------------------------------------------------------------------------

    Molecular point group: c1
  Charge       = -1
  Multiplicity = 1
  Basis Set: AUG-CC-PVTZ
    Blend: AUG-CC-PVTZ
  Basis Set: (AUG-CC-PVTZ AUX)
    Blend: AUG-CC-PVTZ-JKFIT

    Orbital Energies [Eh]
    ---------------------

    Doubly Occupied:

       1A    -20.295146     2A    -20.291879     3A    -11.141610
       4A    -11.116449     5A    -11.114342     6A    -11.084831
       7A    -11.068298     8A     -1.161815     9A     -1.061083
      10A     -0.952439    11A     -0.860510    12A     -0.744643
      13A     -0.635105    14A     -0.548520    15A     -0.491666
      16A     -0.487650    17A     -0.446224    18A     -0.417903
      19A     -0.402670    20A     -0.387799    21A     -0.373579
      22A     -0.357401    23A     -0.354633    24A     -0.210777
      25A     -0.209223    26A     -0.202934    27A     -0.191324

  @DF-RHF Final Energy:  -343.28273158174073

   => Energetics <=

    Nuclear Repulsion Energy =            270.8318357012224169
    One-Electron Energy =               -1015.0082293162861333
    Two-Electron Energy =                 400.8936620333229826
    Total Energy =                       -343.2827315817407339
  Basis Set: (AUG-CC-PVTZ AUX)
    Blend: AUG-CC-PVTZ-RI
    Molecular point group: c1

    Geometry (in Angstrom), charge = -1, multiplicity = 1:

       Center              X                  Y                   Z               Mass
    ------------   -----------------  -----------------  -----------------  -----------------
         O            1.750133583376     1.286638015824    -0.057748160686    15.994914619570
         O            2.547807583376    -0.816172984176     0.285275839314    15.994914619570
         C           -2.231496516624    -0.404473284176    -0.488594060686    12.000000000000
         C           -3.191112416624     0.201431015824     0.577337839314    12.000000000000
         C           -0.856371416624     0.178352015824    -0.354772160686    12.000000000000
         C            0.238219583376    -0.556216984176    -0.105495160686    12.000000000000
         C            1.630136583376     0.029272015824     0.052797839314    12.000000000000
         H           -2.230628416624    -1.451338984176    -0.441716160686     1.007825032230
         H           -2.649465416624    -0.094938984176    -1.485638160686     1.007825032230
         H           -3.234178416624     1.293736015824     0.526945839314     1.007825032230
         H           -4.207961416624    -0.183193984176     0.452395839314     1.007825032230
         H           -2.840488416624    -0.075821984176     1.575767839314     1.007825032230
         H           -0.689998216624     1.253650515824    -0.436252060686     1.007825032230
         H            0.157821583376    -1.640487984176    -0.007520160686     1.007825032230

  Basis Set: AUG-CC-PVTZ
    Blend: AUG-CC-PVTZ
  Basis Set: (AUG-CC-PVTZ AUX)
    Blend: AUG-CC-PVTZ-JKFIT
	 Reference Energy          =    -343.2827315817407339 [Eh]
	 Singles Energy            =      -0.0000000000000000 [Eh]
	 Same-Spin Energy          =      -0.3481483521041641 [Eh]
	 Opposite-Spin Energy      =      -1.1055351251753651 [Eh]
	 Correlation Energy        =      -1.4536834772795291 [Eh]
	 Total Energy              =    -344.7364150590202598 [Eh]

	 ================> DF-SCS-MP2 Energies <==================
	-----------------------------------------------------------
	 SCS Same-Spin Scale       =       0.3333333333333333 [-]
	 SCS Opposite-Spin Scale   =       1.2000000000000000 [-]
	 SCS Same-Spin Energy      =      -0.1160494507013880 [Eh]
	 SCS Opposite-Spin Energy  =      -1.3266421502104382 [Eh]
	 SCS Correlation Energy    =      -1.4426916009118262 [Eh]
	 SCS Total Energy          =    -344.7254231826525483 [Eh]
	-----------------------------------------------------------

  Dipole Moment: [D]
     X:    -9.4813      Y:    -1.2072      Z:    -0.5684     Total:     9.5747

*** Psi4 exiting successfully. Buy a developer a beer!
