                               Psi4 1.3.2 release

  ==> Input File <==

--------------------------------------------------------------------------
#psi4
#
memory 32 gb

molecule  {
-1 1
  O        1.8996640     1.2894670    -0.0585490
  O        2.6973380    -0.8133440     0.2844750
  C       -2.1007360    -0.3533330    -0.4966910
  C       -3.0813465     0.1754815     0.5552965
  C       -0.6927124     0.1527624    -0.3971938
  C        0.3877500    -0.5533880    -0.1062960
  C        1.7796670     0.0321010     0.0519970
  H       -2.0810980    -1.4485100    -0.4425170
  H       -2.4999350    -0.0921100    -1.4864390
  H       -3.0846480     1.2965650     0.5261450
  H       -4.0584310    -0.1803650     0.4515950
  H       -2.6909580    -0.0729930     1.5749670
  H       -0.5778430     1.2611610    -0.4426850
  H        0.3073520    -1.6376590    -0.0083210
units angstrom
no_reorient  #important for SAPT in psi4, default
symmetry c1  #important for SAPT in psi4, default
}

set PROPERTIES_ORIGIN ["COM"]
properties('MP2/aug-cc-pvtz', properties = ['dipole'])
--------------------------------------------------------------------------

    Molecular point group: c1
  Charge       = -1
  Multiplicity = 1
  Basis Set: AUG-CC-PVTZ
    Blend: AUG-CC-PVTZ
  Basis Set: (AUG-CC-PVTZ AUX)
    Blend: AUG-CC-PVTZ-JKFIT

    Orbital Energies [Eh]
    ---------------------

    Doubly Occupied:

       1A    -20.295952     2A    -20.292268     3A    -11.142837
       4A    -11.117125     5A    -11.114105     6A    -11.085400
       7A    -11.068360     8A     -1.162415     9A     -1.061586
      10A     -0.954292    11A     -0.867243    12A     -0.746191
      13A     -0.628975    14A     -0.548972    15A     -0.498287
      16A     -0.485030    17A     -0.447096    18A     -0.426049
      19A     -0.404443    20A     -0.379758    21A     -0.376590
      22A     -0.358407    23A     -0.340953    24A     -0.212798
      25A     -0.209614    26A     -0.209037    27A     -0.191657

  @DF-RHF Final Energy:  -343.28122156370989

   => Energetics <=

    Nuclear Repulsion Energy =            270.7253444161554512
    One-Electron Energy =               -1014.7622537929344162
    Two-Electron Energy =                 400.7556878130691302
    Total Energy =                       -343.2812215637098916
  Basis Set: (AUG-CC-PVTZ AUX)
    Blend: AUG-CC-PVTZ-RI
    Molecular point group: c1

    Geometry (in Angstrom), charge = -1, multiplicity = 1:

       Center              X                  Y                   Z               Mass
    ------------   -----------------  -----------------  -----------------  -----------------
         O            1.755893990671     1.287666960991    -0.049190753890    15.994914619570
         O            2.553567990671    -0.815144039009     0.293833246110    15.994914619570
         C           -2.244506009329    -0.355133039009    -0.487332753890    12.000000000000
         C           -3.225116509329     0.173681460991     0.564654746110    12.000000000000
         C           -0.836482409329     0.150962360991    -0.387835553890    12.000000000000
         C            0.243979990671    -0.555188039009    -0.096937753890    12.000000000000
         C            1.635896990671     0.030300960991     0.061355246110    12.000000000000
         H           -2.224868009329    -1.450310039009    -0.433158753890     1.007825032230
         H           -2.643705009329    -0.093910039009    -1.477080753890     1.007825032230
         H           -3.228418009329     1.294764960991     0.535503246110     1.007825032230
         H           -4.202201009329    -0.182165039009     0.460953246110     1.007825032230
         H           -2.834728009329    -0.074793039009     1.584325246110     1.007825032230
         H           -0.721613009329     1.259360960991    -0.433326753890     1.007825032230
         H            0.163581990671    -1.639459039009     0.001037246110     1.007825032230

  Basis Set: AUG-CC-PVTZ
    Blend: AUG-CC-PVTZ
  Basis Set: (AUG-CC-PVTZ AUX)
    Blend: AUG-CC-PVTZ-JKFIT
	 Reference Energy          =    -343.2812215637098916 [Eh]
	 Singles Energy            =      -0.0000000000000000 [Eh]
	 Same-Spin Energy          =      -0.3481365602731186 [Eh]
	 Opposite-Spin Energy      =      -1.1054842845351129 [Eh]
	 Correlation Energy        =      -1.4536208448082315 [Eh]
	 Total Energy              =    -344.7348424085181477 [Eh]

	 ================> DF-SCS-MP2 Energies <==================
	-----------------------------------------------------------
	 SCS Same-Spin Scale       =       0.3333333333333333 [-]
	 SCS Opposite-Spin Scale   =       1.2000000000000000 [-]
	 SCS Same-Spin Energy      =      -0.1160455200910395 [Eh]
	 SCS Opposite-Spin Energy  =      -1.3265811414421356 [Eh]
	 SCS Correlation Energy    =      -1.4426266615331751 [Eh]
	 SCS Total Energy          =    -344.7238482252430458 [Eh]
	-----------------------------------------------------------

  Dipole Moment: [D]
     X:    -9.5350      Y:    -1.2008      Z:    -0.5561     Total:     9.6264

*** Psi4 exiting successfully. Buy a developer a beer!
