                               Psi4 1.3.2 release

  ==> Input File <==

--------------------------------------------------------------------------
#psi4
#
memory 32 gb

molecule  {
-1 1
  O        1.8996640     1.2894670    -0.0585490
  O        2.6973380    -0.8133440     0.2844750
  C       -2.0722130    -0.4253386    -0.4838542
  C       -3.0415820     0.2042600     0.5765370
  C       -0.7068410     0.1811810    -0.3555730
  C        0.3469432    -0.6105490    -0.1054478
  C        1.7796670     0.0321010     0.0519970
  H       -2.0810980    -1.4485100    -0.4425170
  H       -2.4999350    -0.0921100    -1.4864390
  H       -3.0846480     1.2965650     0.5261450
  H       -4.0584310    -0.1803650     0.4515950
  H       -2.6909580    -0.0729930     1.5749670
  H       -0.5778430     1.2611610    -0.4426850
  H        0.3073520    -1.6376590    -0.0083210
units angstrom
no_reorient  #important for SAPT in psi4, default
symmetry c1  #important for SAPT in psi4, default
}

set PROPERTIES_ORIGIN ["COM"]
properties('MP2/aug-cc-pvtz', properties = ['dipole'])
--------------------------------------------------------------------------

    Molecular point group: c1
  Charge       = -1
  Multiplicity = 1
  Basis Set: AUG-CC-PVTZ
    Blend: AUG-CC-PVTZ
  Basis Set: (AUG-CC-PVTZ AUX)
    Blend: AUG-CC-PVTZ-JKFIT

    Orbital Energies [Eh]
    ---------------------

    Doubly Occupied:

       1A    -20.294870     2A    -20.293798     3A    -11.144971
       4A    -11.115360     5A    -11.111142     6A    -11.085307
       7A    -11.065615     8A     -1.160233     9A     -1.060834
      10A     -0.951886    11A     -0.857364    12A     -0.741567
      13A     -0.635705    14A     -0.544303    15A     -0.498023
      16A     -0.483804    17A     -0.446556    18A     -0.421544
      19A     -0.400273    20A     -0.385913    21A     -0.374686
      22A     -0.361879    23A     -0.354311    24A     -0.210216
      25A     -0.203425    26A     -0.202595    27A     -0.192113

  @DF-RHF Final Energy:  -343.27387120553630

   => Energetics <=

    Nuclear Repulsion Energy =            270.1911212421069877
    One-Electron Energy =               -1013.7333954660076643
    Two-Electron Energy =                 400.2684030183643813
    Total Energy =                       -343.2738712055362953
  Basis Set: (AUG-CC-PVTZ AUX)
    Blend: AUG-CC-PVTZ-RI
    Molecular point group: c1

    Geometry (in Angstrom), charge = -1, multiplicity = 1:

       Center              X                  Y                   Z               Mass
    ------------   -----------------  -----------------  -----------------  -----------------
         O            1.754276283166     1.296386608110    -0.058464914809    15.994914619570
         O            2.551950283166    -0.806424391890     0.284559085191    15.994914619570
         C           -2.217600716834    -0.418418991890    -0.483770114809    12.000000000000
         C           -3.186969716834     0.211179608110     0.576621085191    12.000000000000
         C           -0.852228716834     0.188100608110    -0.355488914809    12.000000000000
         C            0.201555483166    -0.603629391890    -0.105363714809    12.000000000000
         C            1.634279283166     0.039020608110     0.052081085191    12.000000000000
         H           -2.226485716834    -1.441590391890    -0.442432914809     1.007825032230
         H           -2.645322716834    -0.085190391890    -1.486354914809     1.007825032230
         H           -3.230035716834     1.303484608110     0.526229085191     1.007825032230
         H           -4.203818716834    -0.173445391890     0.451679085191     1.007825032230
         H           -2.836345716834    -0.066073391890     1.575051085191     1.007825032230
         H           -0.723230716834     1.268080608110    -0.442600914809     1.007825032230
         H            0.161964283166    -1.630739391890    -0.008236914809     1.007825032230

  Basis Set: AUG-CC-PVTZ
    Blend: AUG-CC-PVTZ
  Basis Set: (AUG-CC-PVTZ AUX)
    Blend: AUG-CC-PVTZ-JKFIT
	 Reference Energy          =    -343.2738712055362953 [Eh]
	 Singles Energy            =      -0.0000000000000000 [Eh]
	 Same-Spin Energy          =      -0.3479219937394413 [Eh]
	 Opposite-Spin Energy      =      -1.1054157551709149 [Eh]
	 Correlation Energy        =      -1.4533377489103563 [Eh]
	 Total Energy              =    -344.7272089544466667 [Eh]

	 ================> DF-SCS-MP2 Energies <==================
	-----------------------------------------------------------
	 SCS Same-Spin Scale       =       0.3333333333333333 [-]
	 SCS Opposite-Spin Scale   =       1.2000000000000000 [-]
	 SCS Same-Spin Energy      =      -0.1159739979131471 [Eh]
	 SCS Opposite-Spin Energy  =      -1.3264989062050978 [Eh]
	 SCS Correlation Energy    =      -1.4424729041182449 [Eh]
	 SCS Total Energy          =    -344.7163441096545284 [Eh]
	-----------------------------------------------------------

  Dipole Moment: [D]
     X:    -9.4155      Y:    -1.2630      Z:    -0.5567     Total:     9.5161

*** Psi4 exiting successfully. Buy a developer a beer!
