                               Psi4 1.3.2 release

  ==> Input File <==

--------------------------------------------------------------------------
#psi4
#
memory 32 gb

molecule  {
-1 1
  O        1.8996640     1.2894670    -0.0585490
  O        2.6973380    -0.8133440     0.2844750
  C       -2.1051640    -0.3411511    -0.4984885
  C       -3.0415820     0.2042600     0.5765370
  C       -0.7068410     0.1811810    -0.3555730
  C        0.3877500    -0.5533880    -0.1062960
  C        1.7796670     0.0321010     0.0519970
  H       -2.0810980    -1.4485100    -0.4425170
  H       -2.4999350    -0.0921100    -1.4864390
  H       -3.0846480     1.2965650     0.5261450
  H       -4.0584310    -0.1803650     0.4515950
  H       -2.6909580    -0.0729930     1.5749670
  H       -0.5872131     1.2621260    -0.4440767
  H        0.3073520    -1.6376590    -0.0083210
units angstrom
no_reorient  #important for SAPT in psi4, default
symmetry c1  #important for SAPT in psi4, default
}

set PROPERTIES_ORIGIN ["COM"]
properties('MP2/aug-cc-pvtz', properties = ['dipole'])
--------------------------------------------------------------------------

    Molecular point group: c1
  Charge       = -1
  Multiplicity = 1
  Basis Set: AUG-CC-PVTZ
    Blend: AUG-CC-PVTZ
  Basis Set: (AUG-CC-PVTZ AUX)
    Blend: AUG-CC-PVTZ-JKFIT

    Orbital Energies [Eh]
    ---------------------

    Doubly Occupied:

       1A    -20.295427     2A    -20.291609     3A    -11.142114
       4A    -11.115659     5A    -11.114050     6A    -11.085615
       7A    -11.070478     8A     -1.161842     9A     -1.061046
      10A     -0.954787    11A     -0.862836    12A     -0.743769
      13A     -0.632623    14A     -0.549025    15A     -0.495638
      16A     -0.485585    17A     -0.445888    18A     -0.420364
      19A     -0.410350    20A     -0.381426    21A     -0.376330
      22A     -0.358115    23A     -0.346774    24A     -0.211378
      25A     -0.208972    26A     -0.205099    27A     -0.191178

  @DF-RHF Final Energy:  -343.28539402251869

   => Energetics <=

    Nuclear Repulsion Energy =            270.8596255401584472
    One-Electron Energy =               -1015.0540849031006019
    Two-Electron Energy =                 400.9090653404234104
    Total Energy =                       -343.2853940225186875
  Basis Set: (AUG-CC-PVTZ AUX)
    Blend: AUG-CC-PVTZ-RI
    Molecular point group: c1

    Geometry (in Angstrom), charge = -1, multiplicity = 1:

       Center              X                  Y                   Z               Mass
    ------------   -----------------  -----------------  -----------------  -----------------
         O            1.753419838950     1.279251353138    -0.056574932098    15.994914619570
         O            2.551093838950    -0.823559646862     0.286449067902    15.994914619570
         C           -2.251408161050    -0.351366746862    -0.496514432098    12.000000000000
         C           -3.187826161050     0.194044353138     0.578511067902    12.000000000000
         C           -0.853085161050     0.170965353138    -0.353598932098    12.000000000000
         C            0.241505838950    -0.563603646862    -0.104321932098    12.000000000000
         C            1.633422838950     0.021885353138     0.053971067902    12.000000000000
         H           -2.227342161050    -1.458725646862    -0.440542932098     1.007825032230
         H           -2.646179161050    -0.102325646862    -1.484464932098     1.007825032230
         H           -3.230892161050     1.286349353138     0.528119067902     1.007825032230
         H           -4.204675161050    -0.190580646862     0.453569067902     1.007825032230
         H           -2.837202161050    -0.083208646862     1.576941067902     1.007825032230
         H           -0.733457261050     1.251910353138    -0.442102632098     1.007825032230
         H            0.161107838950    -1.647874646862    -0.006346932098     1.007825032230

  Basis Set: AUG-CC-PVTZ
    Blend: AUG-CC-PVTZ
  Basis Set: (AUG-CC-PVTZ AUX)
    Blend: AUG-CC-PVTZ-JKFIT
	 Reference Energy          =    -343.2853940225186875 [Eh]
	 Singles Energy            =      -0.0000000000000000 [Eh]
	 Same-Spin Energy          =      -0.3481641740463738 [Eh]
	 Opposite-Spin Energy      =      -1.1056295721233462 [Eh]
	 Correlation Energy        =      -1.4537937461697199 [Eh]
	 Total Energy              =    -344.7391877686883959 [Eh]

	 ================> DF-SCS-MP2 Energies <==================
	-----------------------------------------------------------
	 SCS Same-Spin Scale       =       0.3333333333333333 [-]
	 SCS Opposite-Spin Scale   =       1.2000000000000000 [-]
	 SCS Same-Spin Energy      =      -0.1160547246821246 [Eh]
	 SCS Opposite-Spin Energy  =      -1.3267554865480153 [Eh]
	 SCS Correlation Energy    =      -1.4428102112301400 [Eh]
	 SCS Total Energy          =    -344.7282042337488406 [Eh]
	-----------------------------------------------------------

  Dipole Moment: [D]
     X:    -9.5165      Y:    -1.1384      Z:    -0.5810     Total:     9.6020

*** Psi4 exiting successfully. Buy a developer a beer!
