                               Psi4 1.3.2 release

  ==> Input File <==

--------------------------------------------------------------------------
#psi4
#
memory 32 gb

molecule  {
-1 1
  O        1.8996640     1.2894670    -0.0585490
  O        2.6973380    -0.8133440     0.2844750
  C       -2.0915620    -0.3775738    -0.4930639
  C       -3.0415820     0.2042600     0.5765370
  C       -0.7068410     0.1811810    -0.3555730
  C        0.3877500    -0.5533880    -0.1062960
  C        1.7796670     0.0321010     0.0519970
  H       -2.0810980    -1.4485100    -0.4425170
  H       -2.4999350    -0.0921100    -1.4864390
  H       -3.0846480     1.2965650     0.5261450
  H       -4.0584310    -0.1803650     0.4515950
  H       -2.6909580    -0.0729930     1.5749670
  H       -0.5591329     1.2589844    -0.4398818
  H        0.3073520    -1.6376590    -0.0083210
units angstrom
no_reorient  #important for SAPT in psi4, default
symmetry c1  #important for SAPT in psi4, default
}

set PROPERTIES_ORIGIN ["COM"]
properties('MP2/aug-cc-pvtz', properties = ['dipole'])
--------------------------------------------------------------------------

    Molecular point group: c1
  Charge       = -1
  Multiplicity = 1
  Basis Set: AUG-CC-PVTZ
    Blend: AUG-CC-PVTZ
  Basis Set: (AUG-CC-PVTZ AUX)
    Blend: AUG-CC-PVTZ-JKFIT

    Orbital Energies [Eh]
    ---------------------

    Doubly Occupied:

       1A    -20.295238     2A    -20.291743     3A    -11.141791
       4A    -11.116063     5A    -11.114058     6A    -11.085067
       7A    -11.069135     8A     -1.161802     9A     -1.061044
      10A     -0.953255    11A     -0.861424    12A     -0.744092
      13A     -0.633880    14A     -0.548774    15A     -0.492829
      16A     -0.487003    17A     -0.446075    18A     -0.417922
      19A     -0.405626    20A     -0.385934    21A     -0.374806
      22A     -0.357710    23A     -0.352166    24A     -0.211002
      25A     -0.209099    26A     -0.203804    27A     -0.191244

  @DF-RHF Final Energy:  -343.28512224037667

   => Energetics <=

    Nuclear Repulsion Energy =            270.8412689082868496
    One-Electron Energy =               -1015.0276111259546497
    Two-Electron Energy =                 400.9012199772910776
    Total Energy =                       -343.2851222403766656
  Basis Set: (AUG-CC-PVTZ AUX)
    Blend: AUG-CC-PVTZ-RI
    Molecular point group: c1

    Geometry (in Angstrom), charge = -1, multiplicity = 1:

       Center              X                  Y                   Z               Mass
    ------------   -----------------  -----------------  -----------------  -----------------
         O            1.751486125049     1.283696204884    -0.057274848318    15.994914619570
         O            2.549160125049    -0.819114795116     0.285749151682    15.994914619570
         C           -2.239739874951    -0.383344595116    -0.491789748318    12.000000000000
         C           -3.189759874951     0.198489204884     0.577811151682    12.000000000000
         C           -0.855018874951     0.175410204884    -0.354298848318    12.000000000000
         C            0.239572125049    -0.559158795116    -0.105021848318    12.000000000000
         C            1.631489125049     0.026330204884     0.053271151682    12.000000000000
         H           -2.229275874951    -1.454280795116    -0.441242848318     1.007825032230
         H           -2.648112874951    -0.097880795116    -1.485164848318     1.007825032230
         H           -3.232825874951     1.290794204884     0.527419151682     1.007825032230
         H           -4.206608874951    -0.186135795116     0.452869151682     1.007825032230
         H           -2.839135874951    -0.078763795116     1.576241151682     1.007825032230
         H           -0.707310774951     1.253213604884    -0.438607648318     1.007825032230
         H            0.159174125049    -1.643429795116    -0.007046848318     1.007825032230

  Basis Set: AUG-CC-PVTZ
    Blend: AUG-CC-PVTZ
  Basis Set: (AUG-CC-PVTZ AUX)
    Blend: AUG-CC-PVTZ-JKFIT
	 Reference Energy          =    -343.2851222403766656 [Eh]
	 Singles Energy            =      -0.0000000000000000 [Eh]
	 Same-Spin Energy          =      -0.3481256311881746 [Eh]
	 Opposite-Spin Energy      =      -1.1054985890714057 [Eh]
	 Correlation Energy        =      -1.4536242202595804 [Eh]
	 Total Energy              =    -344.7387464606362641 [Eh]

	 ================> DF-SCS-MP2 Energies <==================
	-----------------------------------------------------------
	 SCS Same-Spin Scale       =       0.3333333333333333 [-]
	 SCS Opposite-Spin Scale   =       1.2000000000000000 [-]
	 SCS Same-Spin Energy      =      -0.1160418770627249 [Eh]
	 SCS Opposite-Spin Energy  =      -1.3265983068856868 [Eh]
	 SCS Correlation Energy    =      -1.4426401839484118 [Eh]
	 SCS Total Energy          =    -344.7277624243250784 [Eh]
	-----------------------------------------------------------

  Dipole Moment: [D]
     X:    -9.4976      Y:    -1.1815      Z:    -0.5746     Total:     9.5880

*** Psi4 exiting successfully. Buy a developer a beer!
