                               Psi4 1.3.2 release

  ==> Input File <==

--------------------------------------------------------------------------
#psi4
#
memory 32 gb

molecule  {
-1 1
  O        1.8996640     1.2894670    -0.0585490
  O        2.6973380    -0.8133440     0.2844750
  C       -2.1007360    -0.3533330    -0.4966910
  C       -3.0415820     0.2042600     0.5765370
  C       -0.8927531     0.1098897    -0.3743947
  C        0.3877500    -0.5533880    -0.1062960
  C        1.7796670     0.0321010     0.0519970
  H       -2.0810980    -1.4485100    -0.4425170
  H       -2.4999350    -0.0921100    -1.4864390
  H       -3.0846480     1.2965650     0.5261450
  H       -4.0584310    -0.1803650     0.4515950
  H       -2.6909580    -0.0729930     1.5749670
  H       -0.5778430     1.2611610    -0.4426850
  H        0.3073520    -1.6376590    -0.0083210
units angstrom
no_reorient  #important for SAPT in psi4, default
symmetry c1  #important for SAPT in psi4, default
}

set PROPERTIES_ORIGIN ["COM"]
properties('MP2/aug-cc-pvtz', properties = ['dipole'])
--------------------------------------------------------------------------

    Molecular point group: c1
  Charge       = -1
  Multiplicity = 1
  Basis Set: AUG-CC-PVTZ
    Blend: AUG-CC-PVTZ
  Basis Set: (AUG-CC-PVTZ AUX)
    Blend: AUG-CC-PVTZ-JKFIT

    Orbital Energies [Eh]
    ---------------------

    Doubly Occupied:

       1A    -20.298719     2A    -20.294687     3A    -11.148263
       4A    -11.119402     5A    -11.106489     6A    -11.100037
       7A    -11.088768     8A     -1.164409     9A     -1.063708
      10A     -0.993347    11A     -0.843794    12A     -0.763112
      13A     -0.627328    14A     -0.552173    15A     -0.512590
      16A     -0.484751    17A     -0.452304    18A     -0.424028
      19A     -0.416856    20A     -0.401051    21A     -0.386155
      22A     -0.358665    23A     -0.310325    24A     -0.216832
      25A     -0.210955    26A     -0.193786    27A     -0.174188

  @DF-RHF Final Energy:  -343.21970989963160

   => Energetics <=

    Nuclear Repulsion Energy =            270.8558731882504844
    One-Electron Energy =               -1014.7377200035643909
    Two-Electron Energy =                 400.6621369156823107
    Total Energy =                       -343.2197098996315958
  Basis Set: (AUG-CC-PVTZ AUX)
    Blend: AUG-CC-PVTZ-RI
    Molecular point group: c1

    Geometry (in Angstrom), charge = -1, multiplicity = 1:

       Center              X                  Y                   Z               Mass
    ------------   -----------------  -----------------  -----------------  -----------------
         O            1.775312659769     1.289374579502    -0.054526483210    15.994914619570
         O            2.572986659769    -0.813436420498     0.288497516790    15.994914619570
         C           -2.225087340231    -0.353425420498    -0.492668483210    12.000000000000
         C           -3.165933340231     0.204167579502     0.580559516790    12.000000000000
         C           -1.017104440231     0.109797279502    -0.370372183210    12.000000000000
         C            0.263398659769    -0.553480420498    -0.102273483210    12.000000000000
         C            1.655315659769     0.032008579502     0.056019516790    12.000000000000
         H           -2.205449340231    -1.448602420498    -0.438494483210     1.007825032230
         H           -2.624286340231    -0.092202420498    -1.482416483210     1.007825032230
         H           -3.208999340231     1.296472579502     0.530167516790     1.007825032230
         H           -4.182782340231    -0.180457420498     0.455617516790     1.007825032230
         H           -2.815309340231    -0.073085420498     1.578989516790     1.007825032230
         H           -0.702194340231     1.261068579502    -0.438662483210     1.007825032230
         H            0.183000659769    -1.637751420498    -0.004298483210     1.007825032230

  Basis Set: AUG-CC-PVTZ
    Blend: AUG-CC-PVTZ
  Basis Set: (AUG-CC-PVTZ AUX)
    Blend: AUG-CC-PVTZ-JKFIT
	 Reference Energy          =    -343.2197098996315958 [Eh]
	 Singles Energy            =      -0.0000000000000000 [Eh]
	 Same-Spin Energy          =      -0.3536816446724492 [Eh]
	 Opposite-Spin Energy      =      -1.1142656086734399 [Eh]
	 Correlation Energy        =      -1.4679472533458893 [Eh]
	 Total Energy              =    -344.6876571529774651 [Eh]

	 ================> DF-SCS-MP2 Energies <==================
	-----------------------------------------------------------
	 SCS Same-Spin Scale       =       0.3333333333333333 [-]
	 SCS Opposite-Spin Scale   =       1.2000000000000000 [-]
	 SCS Same-Spin Energy      =      -0.1178938815574831 [Eh]
	 SCS Opposite-Spin Energy  =      -1.3371187304081278 [Eh]
	 SCS Correlation Energy    =      -1.4550126119656108 [Eh]
	 SCS Total Energy          =    -344.6747225115972242 [Eh]
	-----------------------------------------------------------

  Dipole Moment: [D]
     X:    -9.5475      Y:    -1.2176      Z:    -0.5857     Total:     9.6426

*** Psi4 exiting successfully. Buy a developer a beer!
