                               Psi4 1.3.2 release

  ==> Input File <==

--------------------------------------------------------------------------
#psi4
#
memory 32 gb

molecule  {
-1 1
  O        1.8996640     1.2894670    -0.0585490
  O        2.6973380    -0.8133440     0.2844750
  C       -2.1007360    -0.3533330    -0.4966910
  C       -3.0415820     0.2042600     0.5765370
  C       -0.7068410     0.1811810    -0.3555730
  C        0.3877500    -0.5533880    -0.1062960
  C        1.6350641     0.1653228     0.0153641
  H       -2.0810980    -1.4485100    -0.4425170
  H       -2.4999350    -0.0921100    -1.4864390
  H       -3.0846480     1.2965650     0.5261450
  H       -4.0584310    -0.1803650     0.4515950
  H       -2.6909580    -0.0729930     1.5749670
  H       -0.5778430     1.2611610    -0.4426850
  H        0.3073520    -1.6376590    -0.0083210
units angstrom
no_reorient  #important for SAPT in psi4, default
symmetry c1  #important for SAPT in psi4, default
}

set PROPERTIES_ORIGIN ["COM"]
properties('MP2/aug-cc-pvtz', properties = ['dipole'])
--------------------------------------------------------------------------

    Molecular point group: c1
  Charge       = -1
  Multiplicity = 1
  Basis Set: AUG-CC-PVTZ
    Blend: AUG-CC-PVTZ
  Basis Set: (AUG-CC-PVTZ AUX)
    Blend: AUG-CC-PVTZ-JKFIT

    Orbital Energies [Eh]
    ---------------------

    Doubly Occupied:

       1A    -20.327199     2A    -20.253357     3A    -11.139116
       4A    -11.121490     5A    -11.120169     6A    -11.095600
       7A    -11.077373     8A     -1.218823     9A     -0.979278
      10A     -0.961105    11A     -0.878380    12A     -0.756379
      13A     -0.641350    14A     -0.568314    15A     -0.503363
      16A     -0.494303    17A     -0.468752    18A     -0.423730
      19A     -0.416901    20A     -0.387678    21A     -0.377913
      22A     -0.370141    23A     -0.363979    24A     -0.219741
      25A     -0.197086    26A     -0.169200    27A     -0.154784

  @DF-RHF Final Energy:  -343.23131471467849

   => Energetics <=

    Nuclear Repulsion Energy =            271.6302073722161481
    One-Electron Energy =               -1016.3520330486278453
    Two-Electron Energy =                 401.4905109617332641
    Total Energy =                       -343.2313147146784900
  Basis Set: (AUG-CC-PVTZ AUX)
    Blend: AUG-CC-PVTZ-RI
    Molecular point group: c1

    Geometry (in Angstrom), charge = -1, multiplicity = 1:

       Center              X                  Y                   Z               Mass
    ------------   -----------------  -----------------  -----------------  -----------------
         O            1.770307738979     1.264596276703    -0.052368522146    15.994914619570
         O            2.567981738979    -0.838214723297     0.290655477854    15.994914619570
         C           -2.230092261021    -0.378203723297    -0.490510522146    12.000000000000
         C           -3.170938261021     0.179389276703     0.582717477854    12.000000000000
         C           -0.836197261021     0.156310276703    -0.349392522146    12.000000000000
         C            0.258393738979    -0.578258723297    -0.100115522146    12.000000000000
         C            1.505707838979     0.140452076703     0.021544577854    12.000000000000
         H           -2.210454261021    -1.473380723297    -0.436336522146     1.007825032230
         H           -2.629291261021    -0.116980723297    -1.480258522146     1.007825032230
         H           -3.214004261021     1.271694276703     0.532325477854     1.007825032230
         H           -4.187787261021    -0.205235723297     0.457775477854     1.007825032230
         H           -2.820314261021    -0.097863723297     1.581147477854     1.007825032230
         H           -0.707199261021     1.236290276703    -0.436504522146     1.007825032230
         H            0.177995738979    -1.662529723297    -0.002140522146     1.007825032230

  Basis Set: AUG-CC-PVTZ
    Blend: AUG-CC-PVTZ
  Basis Set: (AUG-CC-PVTZ AUX)
    Blend: AUG-CC-PVTZ-JKFIT
	 Reference Energy          =    -343.2313147146784900 [Eh]
	 Singles Energy            =      -0.0000000000000000 [Eh]
	 Same-Spin Energy          =      -0.3509251633097337 [Eh]
	 Opposite-Spin Energy      =      -1.1112358424116056 [Eh]
	 Correlation Energy        =      -1.4621610057213392 [Eh]
	 Total Energy              =    -344.6934757203998174 [Eh]

	 ================> DF-SCS-MP2 Energies <==================
	-----------------------------------------------------------
	 SCS Same-Spin Scale       =       0.3333333333333333 [-]
	 SCS Opposite-Spin Scale   =       1.2000000000000000 [-]
	 SCS Same-Spin Energy      =      -0.1169750544365779 [Eh]
	 SCS Opposite-Spin Energy  =      -1.3334830108939266 [Eh]
	 SCS Correlation Energy    =      -1.4504580653305046 [Eh]
	 SCS Total Energy          =    -344.6817727800089983 [Eh]
	-----------------------------------------------------------

  Dipole Moment: [D]
     X:   -10.7144      Y:     0.2856      Z:    -0.9025     Total:    10.7562

*** Psi4 exiting successfully. Buy a developer a beer!
