                               Psi4 1.3.2 release

  ==> Input File <==

--------------------------------------------------------------------------
#psi4
#
memory 32 gb

molecule  {
-1 1
  O        1.8996640     1.2894670    -0.0585490
  O        2.6973380    -0.8133440     0.2844750
  C       -2.1007360    -0.3533330    -0.4966910
  C       -3.0415820     0.2042600     0.5765370
  C       -0.7068410     0.1811810    -0.3555730
  C        0.3877500    -0.5533880    -0.1062960
  C        1.7696876     0.0563160     0.0479648
  H       -2.0810980    -1.4485100    -0.4425170
  H       -2.4999350    -0.0921100    -1.4864390
  H       -3.0846480     1.2965650     0.5261450
  H       -4.0584310    -0.1803650     0.4515950
  H       -2.6909580    -0.0729930     1.5749670
  H       -0.5778430     1.2611610    -0.4426850
  H        0.2885918    -1.6363778    -0.0113898
units angstrom
no_reorient  #important for SAPT in psi4, default
symmetry c1  #important for SAPT in psi4, default
}

set PROPERTIES_ORIGIN ["COM"]
properties('MP2/aug-cc-pvtz', properties = ['dipole'])
--------------------------------------------------------------------------

    Molecular point group: c1
  Charge       = -1
  Multiplicity = 1
  Basis Set: AUG-CC-PVTZ
    Blend: AUG-CC-PVTZ
  Basis Set: (AUG-CC-PVTZ AUX)
    Blend: AUG-CC-PVTZ-JKFIT

    Orbital Energies [Eh]
    ---------------------

    Doubly Occupied:

       1A    -20.297972     2A    -20.289362     3A    -11.142322
       4A    -11.115997     5A    -11.114173     6A    -11.085155
       7A    -11.070283     8A     -1.165102     9A     -1.058188
      10A     -0.954703    11A     -0.863134    12A     -0.743919
      13A     -0.631622    14A     -0.550630    15A     -0.494998
      16A     -0.486274    17A     -0.447295    18A     -0.418352
      19A     -0.409128    20A     -0.383602    21A     -0.375116
      22A     -0.359082    23A     -0.349997    24A     -0.212708
      25A     -0.207041    26A     -0.204876    27A     -0.190691

  @DF-RHF Final Energy:  -343.28453840558922

   => Energetics <=

    Nuclear Repulsion Energy =            270.9171943458645728
    One-Electron Energy =               -1015.1600203418414594
    Two-Electron Energy =                 400.9582875903876698
    Total Energy =                       -343.2845384055892168
  Basis Set: (AUG-CC-PVTZ AUX)
    Blend: AUG-CC-PVTZ-RI
    Molecular point group: c1

    Geometry (in Angstrom), charge = -1, multiplicity = 1:

       Center              X                  Y                   Z               Mass
    ------------   -----------------  -----------------  -----------------  -----------------
         O            1.754187981528     1.277790234937    -0.056287116083    15.994914619570
         O            2.551861981528    -0.825020765063     0.286736883917    15.994914619570
         C           -2.246212018472    -0.365009765063    -0.494429116083    12.000000000000
         C           -3.187058018472     0.192583234937     0.578798883917    12.000000000000
         C           -0.852317018472     0.169504234937    -0.353311116083    12.000000000000
         C            0.242273981528    -0.565064765063    -0.104034116083    12.000000000000
         C            1.624211581528     0.044639234937     0.050226683917    12.000000000000
         H           -2.226574018472    -1.460186765063    -0.440255116083     1.007825032230
         H           -2.645411018472    -0.103786765063    -1.484177116083     1.007825032230
         H           -3.230124018472     1.284888234937     0.528406883917     1.007825032230
         H           -4.203907018472    -0.192041765063     0.453856883917     1.007825032230
         H           -2.836434018472    -0.084669765063     1.577228883917     1.007825032230
         H           -0.723319018472     1.249484234937    -0.440423116083     1.007825032230
         H            0.143115781528    -1.648054565063    -0.009127916083     1.007825032230

  Basis Set: AUG-CC-PVTZ
    Blend: AUG-CC-PVTZ
  Basis Set: (AUG-CC-PVTZ AUX)
    Blend: AUG-CC-PVTZ-JKFIT
	 Reference Energy          =    -343.2845384055892168 [Eh]
	 Singles Energy            =      -0.0000000000000000 [Eh]
	 Same-Spin Energy          =      -0.3482280012223896 [Eh]
	 Opposite-Spin Energy      =      -1.1056698452160032 [Eh]
	 Correlation Energy        =      -1.4538978464383927 [Eh]
	 Total Energy              =    -344.7384362520276113 [Eh]

	 ================> DF-SCS-MP2 Energies <==================
	-----------------------------------------------------------
	 SCS Same-Spin Scale       =       0.3333333333333333 [-]
	 SCS Opposite-Spin Scale   =       1.2000000000000000 [-]
	 SCS Same-Spin Energy      =      -0.1160760004074632 [Eh]
	 SCS Opposite-Spin Energy  =      -1.3268038142592038 [Eh]
	 SCS Correlation Energy    =      -1.4428798146666670 [Eh]
	 SCS Total Energy          =    -344.7274182202558563 [Eh]
	-----------------------------------------------------------

  Dipole Moment: [D]
     X:    -9.6108      Y:    -0.9051      Z:    -0.6208     Total:     9.6733

*** Psi4 exiting successfully. Buy a developer a beer!
