                               Psi4 1.3.2 release

  ==> Input File <==

--------------------------------------------------------------------------
#psi4
#
memory 32 gb

molecule  {
-1 1
  O        1.8996640     1.2894670    -0.0585490
  O        2.6973380    -0.8133440     0.2844750
  C       -2.1007360    -0.3533330    -0.4966910
  C       -3.0415820     0.2042600     0.5765370
  C       -0.6936409     0.2005200    -0.3554476
  C        0.3877500    -0.5533880    -0.1062960
  C        1.7796670     0.0321010     0.0519970
  H       -2.0810980    -1.4485100    -0.4425170
  H       -2.4999350    -0.0921100    -1.4864390
  H       -3.0846480     1.2965650     0.5261450
  H       -4.0584310    -0.1803650     0.4515950
  H       -2.6909580    -0.0729930     1.5749670
  H       -0.5778430     1.2611610    -0.4426850
  H        0.3261294    -1.6386051    -0.0052355
units angstrom
no_reorient  #important for SAPT in psi4, default
symmetry c1  #important for SAPT in psi4, default
}

set PROPERTIES_ORIGIN ["COM"]
properties('MP2/aug-cc-pvtz', properties = ['dipole'])
--------------------------------------------------------------------------

    Molecular point group: c1
  Charge       = -1
  Multiplicity = 1
  Basis Set: AUG-CC-PVTZ
    Blend: AUG-CC-PVTZ
  Basis Set: (AUG-CC-PVTZ AUX)
    Blend: AUG-CC-PVTZ-JKFIT

    Orbital Energies [Eh]
    ---------------------

    Doubly Occupied:

       1A    -20.295027     2A    -20.291060     3A    -11.140904
       4A    -11.115367     5A    -11.114315     6A    -11.085144
       7A    -11.070019     8A     -1.161469     9A     -1.060685
      10A     -0.951414    11A     -0.862445    12A     -0.741558
      13A     -0.635901    14A     -0.548232    15A     -0.493020
      16A     -0.486052    17A     -0.446206    18A     -0.420537
      19A     -0.407669    20A     -0.382493    21A     -0.373335
      22A     -0.357735    23A     -0.352178    24A     -0.210315
      25A     -0.208473    26A     -0.204985    27A     -0.190912

  @DF-RHF Final Energy:  -343.28548460840318

   => Energetics <=

    Nuclear Repulsion Energy =            270.7805633004365404
    One-Electron Energy =               -1014.9171937835908466
    Two-Electron Energy =                 400.8511458747510687
    Total Energy =                       -343.2854846084031806
  Basis Set: (AUG-CC-PVTZ AUX)
    Blend: AUG-CC-PVTZ-RI
    Molecular point group: c1

    Geometry (in Angstrom), charge = -1, multiplicity = 1:

       Center              X                  Y                   Z               Mass
    ------------   -----------------  -----------------  -----------------  -----------------
         O            1.750997647893     1.278403662887    -0.056853463517    15.994914619570
         O            2.548671647893    -0.824407337113     0.286170536483    15.994914619570
         C           -2.249402352107    -0.364396337113    -0.494995463517    12.000000000000
         C           -3.190248352107     0.193196662887     0.578232536483    12.000000000000
         C           -0.842307252107     0.189456662887    -0.353752063517    12.000000000000
         C            0.239083647893    -0.564451337113    -0.104600463517    12.000000000000
         C            1.631000647893     0.021037662887     0.053692536483    12.000000000000
         H           -2.229764352107    -1.459573337113    -0.440821463517     1.007825032230
         H           -2.648601352107    -0.103173337113    -1.484743463517     1.007825032230
         H           -3.233314352107     1.285501662887     0.527840536483     1.007825032230
         H           -4.207097352107    -0.191428337113     0.453290536483     1.007825032230
         H           -2.839624352107    -0.084056337113     1.576662536483     1.007825032230
         H           -0.726509352107     1.250097662887    -0.440989463517     1.007825032230
         H            0.177463047893    -1.649668437113    -0.003539963517     1.007825032230

  Basis Set: AUG-CC-PVTZ
    Blend: AUG-CC-PVTZ
  Basis Set: (AUG-CC-PVTZ AUX)
    Blend: AUG-CC-PVTZ-JKFIT
	 Reference Energy          =    -343.2854846084031806 [Eh]
	 Singles Energy            =      -0.0000000000000000 [Eh]
	 Same-Spin Energy          =      -0.3479063757069284 [Eh]
	 Opposite-Spin Energy      =      -1.1053208999579178 [Eh]
	 Correlation Energy        =      -1.4532272756648461 [Eh]
	 Total Energy              =    -344.7387118840680387 [Eh]

	 ================> DF-SCS-MP2 Energies <==================
	-----------------------------------------------------------
	 SCS Same-Spin Scale       =       0.3333333333333333 [-]
	 SCS Opposite-Spin Scale   =       1.2000000000000000 [-]
	 SCS Same-Spin Energy      =      -0.1159687919023095 [Eh]
	 SCS Opposite-Spin Energy  =      -1.3263850799495014 [Eh]
	 SCS Correlation Energy    =      -1.4423538718518110 [Eh]
	 SCS Total Energy          =    -344.7278384802550022 [Eh]
	-----------------------------------------------------------

  Dipole Moment: [D]
     X:    -9.4966      Y:    -1.1447      Z:    -0.5800     Total:     9.5829

*** Psi4 exiting successfully. Buy a developer a beer!
