                               Psi4 1.3.2 release

  ==> Input File <==

--------------------------------------------------------------------------
#psi4
#
memory 32 gb

molecule  {
-1 1
  O        1.8996640     1.2894670    -0.0585490
  O        2.6973380    -0.8133440     0.2844750
  C       -2.1176332    -0.3045030    -0.5050361
  C       -3.0415820     0.2042600     0.5765370
  C       -0.7068410     0.1811810    -0.3555730
  C        0.4132943    -0.5141522    -0.1072413
  C        1.7796670     0.0321010     0.0519970
  H       -2.0810980    -1.4485100    -0.4425170
  H       -2.4999350    -0.0921100    -1.4864390
  H       -3.0846480     1.2965650     0.5261450
  H       -4.0584310    -0.1803650     0.4515950
  H       -2.6909580    -0.0729930     1.5749670
  H       -0.5778430     1.2611610    -0.4426850
  H        0.3073520    -1.6376590    -0.0083210
units angstrom
no_reorient  #important for SAPT in psi4, default
symmetry c1  #important for SAPT in psi4, default
}

set PROPERTIES_ORIGIN ["COM"]
properties('MP2/aug-cc-pvtz', properties = ['dipole'])
--------------------------------------------------------------------------

    Molecular point group: c1
  Charge       = -1
  Multiplicity = 1
  Basis Set: AUG-CC-PVTZ
    Blend: AUG-CC-PVTZ
  Basis Set: (AUG-CC-PVTZ AUX)
    Blend: AUG-CC-PVTZ-JKFIT

    Orbital Energies [Eh]
    ---------------------

    Doubly Occupied:

       1A    -20.295892     2A    -20.290646     3A    -11.140029
       4A    -11.117393     5A    -11.116300     6A    -11.086637
       7A    -11.073604     8A     -1.163336     9A     -1.061507
      10A     -0.956920    11A     -0.865963    12A     -0.746809
      13A     -0.636409    14A     -0.549225    15A     -0.501115
      16A     -0.481411    17A     -0.446608    18A     -0.424876
      19A     -0.413345    20A     -0.381269    21A     -0.373177
      22A     -0.360780    23A     -0.333150    24A     -0.215423
      25A     -0.208446    26A     -0.206103    27A     -0.190778

  @DF-RHF Final Energy:  -343.27905070117856

   => Energetics <=

    Nuclear Repulsion Energy =            271.3268404767014772
    One-Electron Energy =               -1015.9374766255498344
    Two-Electron Energy =                 401.3315854476697950
    Total Energy =                       -343.2790507011785621
  Basis Set: (AUG-CC-PVTZ AUX)
    Blend: AUG-CC-PVTZ-RI
    Molecular point group: c1

    Geometry (in Angstrom), charge = -1, multiplicity = 1:

       Center              X                  Y                   Z               Mass
    ------------   -----------------  -----------------  -----------------  -----------------
         O            1.751740346945     1.270067266294    -0.055681272010    15.994914619570
         O            2.549414346945    -0.832743733706     0.287342727990    15.994914619570
         C           -2.265556853055    -0.323902733706    -0.502168372010    12.000000000000
         C           -3.189505653055     0.184860266294     0.579404727990    12.000000000000
         C           -0.854764653055     0.161781266294    -0.352705272010    12.000000000000
         C            0.265370646945    -0.533551933706    -0.104373572010    12.000000000000
         C            1.631743346945     0.012701266294     0.054864727990    12.000000000000
         H           -2.229021653055    -1.467909733706    -0.439649272010     1.007825032230
         H           -2.647858653055    -0.111509733706    -1.483571272010     1.007825032230
         H           -3.232571653055     1.277165266294     0.529012727990     1.007825032230
         H           -4.206354653055    -0.199764733706     0.454462727990     1.007825032230
         H           -2.838881653055    -0.092392733706     1.577834727990     1.007825032230
         H           -0.725766653055     1.241761266294    -0.439817272010     1.007825032230
         H            0.159428346945    -1.657058733706    -0.005453272010     1.007825032230

  Basis Set: AUG-CC-PVTZ
    Blend: AUG-CC-PVTZ
  Basis Set: (AUG-CC-PVTZ AUX)
    Blend: AUG-CC-PVTZ-JKFIT
	 Reference Energy          =    -343.2790507011785621 [Eh]
	 Singles Energy            =      -0.0000000000000000 [Eh]
	 Same-Spin Energy          =      -0.3486976670043171 [Eh]
	 Opposite-Spin Energy      =      -1.1066476828541045 [Eh]
	 Correlation Energy        =      -1.4553453498584217 [Eh]
	 Total Energy              =    -344.7343960510369811 [Eh]

	 ================> DF-SCS-MP2 Energies <==================
	-----------------------------------------------------------
	 SCS Same-Spin Scale       =       0.3333333333333333 [-]
	 SCS Opposite-Spin Scale   =       1.2000000000000000 [-]
	 SCS Same-Spin Energy      =      -0.1162325556681057 [Eh]
	 SCS Opposite-Spin Energy  =      -1.3279772194249253 [Eh]
	 SCS Correlation Energy    =      -1.4442097750930309 [Eh]
	 SCS Total Energy          =    -344.7232604762716051 [Eh]
	-----------------------------------------------------------

  Dipole Moment: [D]
     X:    -9.5496      Y:    -1.0474      Z:    -0.5871     Total:     9.6248

*** Psi4 exiting successfully. Buy a developer a beer!
