                               Psi4 1.3.2 release

  ==> Input File <==

--------------------------------------------------------------------------
#psi4
#
memory 32 gb

molecule  {
-1 1
  O        1.8996640     1.2894670    -0.0585490
  O        2.6973380    -0.8133440     0.2844750
  C       -2.1007360    -0.3533330    -0.4966910
  C       -3.0415820     0.2042600     0.5765370
  C       -0.7068410     0.1811810    -0.3555730
  C        0.3877500    -0.5533880    -0.1062960
  C        1.8713420     0.0706627     0.0624226
  H       -2.0810980    -1.4485100    -0.4425170
  H       -2.4999350    -0.0921100    -1.4864390
  H       -3.0846480     1.2965650     0.5261450
  H       -4.0584310    -0.1803650     0.4515950
  H       -2.6909580    -0.0729930     1.5749670
  H       -0.5778430     1.2611610    -0.4426850
  H        0.3073520    -1.6376590    -0.0083210
units angstrom
no_reorient  #important for SAPT in psi4, default
symmetry c1  #important for SAPT in psi4, default
}

set PROPERTIES_ORIGIN ["COM"]
properties('MP2/aug-cc-pvtz', properties = ['dipole'])
--------------------------------------------------------------------------

    Molecular point group: c1
  Charge       = -1
  Multiplicity = 1
  Basis Set: AUG-CC-PVTZ
    Blend: AUG-CC-PVTZ
  Basis Set: (AUG-CC-PVTZ AUX)
    Blend: AUG-CC-PVTZ-JKFIT

    Orbital Energies [Eh]
    ---------------------

    Doubly Occupied:

       1A    -20.301506     2A    -20.300124     3A    -11.145380
       4A    -11.110066     5A    -11.106641     6A    -11.072517
       7A    -11.059918     8A     -1.189360     9A     -1.097563
      10A     -0.945374    11A     -0.848659    12A     -0.730501
      13A     -0.614721    14A     -0.535700    15A     -0.491476
      16A     -0.477493    17A     -0.452647    18A     -0.420183
      19A     -0.403932    20A     -0.391910    21A     -0.377613
      22A     -0.374896    23A     -0.343826    24A     -0.228233
      25A     -0.208950    26A     -0.196319    27A     -0.193609

  @DF-RHF Final Energy:  -343.28492145348662

   => Energetics <=

    Nuclear Repulsion Energy =            270.8247048855665753
    One-Electron Energy =               -1014.9810136912511780
    Two-Electron Energy =                 400.8713873521979849
    Total Energy =                       -343.2849214534866178
  Basis Set: (AUG-CC-PVTZ AUX)
    Blend: AUG-CC-PVTZ-RI
    Molecular point group: c1

    Geometry (in Angstrom), charge = -1, multiplicity = 1:

       Center              X                  Y                   Z               Mass
    ------------   -----------------  -----------------  -----------------  -----------------
         O            1.741680891355     1.276065060956    -0.058070013944    15.994914619570
         O            2.539354891355    -0.826745939044     0.284953986056    15.994914619570
         C           -2.258719108645    -0.366734939044    -0.496212013944    12.000000000000
         C           -3.199565108645     0.190858060956     0.577015986056    12.000000000000
         C           -0.864824108645     0.167779060956    -0.355094013944    12.000000000000
         C            0.229766891355    -0.566789939044    -0.105817013944    12.000000000000
         C            1.713358891355     0.057260760956     0.062901586056    12.000000000000
         H           -2.239081108645    -1.461911939044    -0.442038013944     1.007825032230
         H           -2.657918108645    -0.105511939044    -1.485960013944     1.007825032230
         H           -3.242631108645     1.283163060956     0.526623986056     1.007825032230
         H           -4.216414108645    -0.193766939044     0.452073986056     1.007825032230
         H           -2.848941108645    -0.086394939044     1.575445986056     1.007825032230
         H           -0.735826108645     1.247759060956    -0.442206013944     1.007825032230
         H            0.149368891355    -1.651060939044    -0.007842013944     1.007825032230

  Basis Set: AUG-CC-PVTZ
    Blend: AUG-CC-PVTZ
  Basis Set: (AUG-CC-PVTZ AUX)
    Blend: AUG-CC-PVTZ-JKFIT
	 Reference Energy          =    -343.2849214534866178 [Eh]
	 Singles Energy            =      -0.0000000000000000 [Eh]
	 Same-Spin Energy          =      -0.3467931748209103 [Eh]
	 Opposite-Spin Energy      =      -1.1022202503907703 [Eh]
	 Correlation Energy        =      -1.4490134252116806 [Eh]
	 Total Energy              =    -344.7339348786982782 [Eh]

	 ================> DF-SCS-MP2 Energies <==================
	-----------------------------------------------------------
	 SCS Same-Spin Scale       =       0.3333333333333333 [-]
	 SCS Opposite-Spin Scale   =       1.2000000000000000 [-]
	 SCS Same-Spin Energy      =      -0.1155977249403034 [Eh]
	 SCS Opposite-Spin Energy  =      -1.3226643004689242 [Eh]
	 SCS Correlation Energy    =      -1.4382620254092278 [Eh]
	 SCS Total Energy          =    -344.7231834788958622 [Eh]
	-----------------------------------------------------------

  Dipole Moment: [D]
     X:    -8.7039      Y:    -0.9244      Z:    -0.4995     Total:     8.7671

*** Psi4 exiting successfully. Buy a developer a beer!
