                               Psi4 1.3.2 release

  ==> Input File <==

--------------------------------------------------------------------------
#psi4
#
memory 32 gb

molecule  {
-1 1
  O        1.8996640     1.2894670    -0.0585490
  O        2.6973380    -0.8133440     0.2844750
  C       -2.1007360    -0.3533330    -0.4966910
  C       -3.0415820     0.2042600     0.5765370
  C       -0.7322566     0.1418505    -0.3554724
  C        0.3877500    -0.5533880    -0.1062960
  C        1.7983296    -0.0168427     0.0600505
  H       -2.0810980    -1.4485100    -0.4425170
  H       -2.4999350    -0.0921100    -1.4864390
  H       -3.0846480     1.2965650     0.5261450
  H       -4.0584310    -0.1803650     0.4515950
  H       -2.6909580    -0.0729930     1.5749670
  H       -0.5778430     1.2611610    -0.4426850
  H        0.3073520    -1.6376590    -0.0083210
units angstrom
no_reorient  #important for SAPT in psi4, default
symmetry c1  #important for SAPT in psi4, default
}

set PROPERTIES_ORIGIN ["COM"]
properties('MP2/aug-cc-pvtz', properties = ['dipole'])
--------------------------------------------------------------------------

    Molecular point group: c1
  Charge       = -1
  Multiplicity = 1
  Basis Set: AUG-CC-PVTZ
    Blend: AUG-CC-PVTZ
  Basis Set: (AUG-CC-PVTZ AUX)
    Blend: AUG-CC-PVTZ-JKFIT

    Orbital Energies [Eh]
    ---------------------

    Doubly Occupied:

       1A    -20.308105     2A    -20.280288     3A    -11.142971
       4A    -11.116215     5A    -11.112911     6A    -11.086899
       7A    -11.070097     8A     -1.175962     9A     -1.050666
      10A     -0.959384    11A     -0.861010    12A     -0.748489
      13A     -0.630965    14A     -0.547805    15A     -0.499044
      16A     -0.484171    17A     -0.449285    18A     -0.418824
      19A     -0.411255    20A     -0.385346    21A     -0.380981
      22A     -0.362069    23A     -0.336402    24A     -0.216786
      25A     -0.207338    26A     -0.200860    27A     -0.186335

  @DF-RHF Final Energy:  -343.27804713929612

   => Energetics <=

    Nuclear Repulsion Energy =            270.9489727407884061
    One-Electron Energy =               -1015.1931199651995712
    Two-Electron Energy =                 400.9661000851149879
    Total Energy =                       -343.2780471392961203
  Basis Set: (AUG-CC-PVTZ AUX)
    Blend: AUG-CC-PVTZ-RI
    Molecular point group: c1

    Geometry (in Angstrom), charge = -1, multiplicity = 1:

       Center              X                  Y                   Z               Mass
    ------------   -----------------  -----------------  -----------------  -----------------
         O            1.753606185079     1.291432185780    -0.057794804606    15.994914619570
         O            2.551280185079    -0.811378814220     0.285229195394    15.994914619570
         C           -2.246793814921    -0.351367814220    -0.495936804606    12.000000000000
         C           -3.187639814921     0.206225185780     0.577291195394    12.000000000000
         C           -0.878314414921     0.143815685780    -0.354718204606    12.000000000000
         C            0.241692185079    -0.551422814220    -0.105541804606    12.000000000000
         C            1.652271785079    -0.014877514220     0.060804695394    12.000000000000
         H           -2.227155814921    -1.446544814220    -0.441762804606     1.007825032230
         H           -2.645992814921    -0.090144814220    -1.485684804606     1.007825032230
         H           -3.230705814921     1.298530185780     0.526899195394     1.007825032230
         H           -4.204488814921    -0.178399814220     0.452349195394     1.007825032230
         H           -2.837015814921    -0.071027814220     1.575721195394     1.007825032230
         H           -0.723900814921     1.263126185780    -0.441930804606     1.007825032230
         H            0.161294185079    -1.635693814220    -0.007566804606     1.007825032230

  Basis Set: AUG-CC-PVTZ
    Blend: AUG-CC-PVTZ
  Basis Set: (AUG-CC-PVTZ AUX)
    Blend: AUG-CC-PVTZ-JKFIT
	 Reference Energy          =    -343.2780471392961203 [Eh]
	 Singles Energy            =      -0.0000000000000000 [Eh]
	 Same-Spin Energy          =      -0.3485911397126619 [Eh]
	 Opposite-Spin Energy      =      -1.1061943120266946 [Eh]
	 Correlation Energy        =      -1.4547854517393564 [Eh]
	 Total Energy              =    -344.7328325910355034 [Eh]

	 ================> DF-SCS-MP2 Energies <==================
	-----------------------------------------------------------
	 SCS Same-Spin Scale       =       0.3333333333333333 [-]
	 SCS Opposite-Spin Scale   =       1.2000000000000000 [-]
	 SCS Same-Spin Energy      =      -0.1161970465708873 [Eh]
	 SCS Opposite-Spin Energy  =      -1.3274331744320336 [Eh]
	 SCS Correlation Energy    =      -1.4436302210029208 [Eh]
	 SCS Total Energy          =    -344.7216773602990543 [Eh]
	-----------------------------------------------------------

  Dipole Moment: [D]
     X:    -9.3443      Y:    -1.6724      Z:    -0.4940     Total:     9.5057

*** Psi4 exiting successfully. Buy a developer a beer!
