                               Psi4 1.3.2 release

  ==> Input File <==

--------------------------------------------------------------------------
#psi4
#
memory 32 gb

molecule  {
-1 1
  O        1.9430998     1.2851865    -0.0512274
  O        2.7265929    -0.7800968     0.2856835
  C       -2.1007360    -0.3533330    -0.4966910
  C       -3.0415820     0.2042600     0.5765370
  C       -0.7068410     0.1811810    -0.3555730
  C        0.3877500    -0.5533880    -0.1062960
  C        1.7796670     0.0321010     0.0519970
  H       -2.0810980    -1.4485100    -0.4425170
  H       -2.4999350    -0.0921100    -1.4864390
  H       -3.0846480     1.2965650     0.5261450
  H       -4.0584310    -0.1803650     0.4515950
  H       -2.6909580    -0.0729930     1.5749670
  H       -0.5778430     1.2611610    -0.4426850
  H        0.3073520    -1.6376590    -0.0083210
units angstrom
no_reorient  #important for SAPT in psi4, default
symmetry c1  #important for SAPT in psi4, default
}

set PROPERTIES_ORIGIN ["COM"]
properties('MP2/aug-cc-pvtz', properties = ['dipole'])
--------------------------------------------------------------------------

    Molecular point group: c1
  Charge       = -1
  Multiplicity = 1
  Basis Set: AUG-CC-PVTZ
    Blend: AUG-CC-PVTZ
  Basis Set: (AUG-CC-PVTZ AUX)
    Blend: AUG-CC-PVTZ-JKFIT

    Orbital Energies [Eh]
    ---------------------

    Doubly Occupied:

       1A    -20.291167     2A    -20.287613     3A    -11.139980
       4A    -11.117474     5A    -11.116222     6A    -11.089215
       7A    -11.074586     8A     -1.161137     9A     -1.053078
      10A     -0.956835    11A     -0.865474    12A     -0.746313
      13A     -0.635614    14A     -0.550920    15A     -0.495887
      16A     -0.488268    17A     -0.445051    18A     -0.420202
      19A     -0.410572    20A     -0.383579    21A     -0.374076
      22A     -0.355909    23A     -0.351427    24A     -0.213959
      25A     -0.207695    26A     -0.201495    27A     -0.186051

  @DF-RHF Final Energy:  -343.28393707517040

   => Energetics <=

    Nuclear Repulsion Energy =            270.4964621698187557
    One-Electron Energy =               -1014.3212035671112972
    Two-Electron Energy =                 400.5408043221221419
    Total Energy =                       -343.2839370751703996
  Basis Set: (AUG-CC-PVTZ AUX)
    Blend: AUG-CC-PVTZ-RI
    Molecular point group: c1

    Geometry (in Angstrom), charge = -1, multiplicity = 1:

       Center              X                  Y                   Z               Mass
    ------------   -----------------  -----------------  -----------------  -----------------
         O            1.784484839267     1.271778710124    -0.050862817159    15.994914619570
         O            2.567977939267    -0.793504589876     0.286048082841    15.994914619570
         C           -2.259350960733    -0.366740789876    -0.496326417159    12.000000000000
         C           -3.200196960733     0.190852210124     0.576901582841    12.000000000000
         C           -0.865455960733     0.167773210124    -0.355208417159    12.000000000000
         C            0.229135039267    -0.566795789876    -0.105931417159    12.000000000000
         C            1.621052039267     0.018693210124     0.052361582841    12.000000000000
         H           -2.239712960733    -1.461917789876    -0.442152417159     1.007825032230
         H           -2.658549960733    -0.105517789876    -1.486074417159     1.007825032230
         H           -3.243262960733     1.283157210124     0.526509582841     1.007825032230
         H           -4.217045960733    -0.193772789876     0.451959582841     1.007825032230
         H           -2.849572960733    -0.086400789876     1.575331582841     1.007825032230
         H           -0.736457960733     1.247753210124    -0.442320417159     1.007825032230
         H            0.148737039267    -1.651066789876    -0.007956417159     1.007825032230

  Basis Set: AUG-CC-PVTZ
    Blend: AUG-CC-PVTZ
  Basis Set: (AUG-CC-PVTZ AUX)
    Blend: AUG-CC-PVTZ-JKFIT
	 Reference Energy          =    -343.2839370751703996 [Eh]
	 Singles Energy            =      -0.0000000000000000 [Eh]
	 Same-Spin Energy          =      -0.3480572470832837 [Eh]
	 Opposite-Spin Energy      =      -1.1055072558878649 [Eh]
	 Correlation Energy        =      -1.4535645029711486 [Eh]
	 Total Energy              =    -344.7375015781415755 [Eh]

	 ================> DF-SCS-MP2 Energies <==================
	-----------------------------------------------------------
	 SCS Same-Spin Scale       =       0.3333333333333333 [-]
	 SCS Opposite-Spin Scale   =       1.2000000000000000 [-]
	 SCS Same-Spin Energy      =      -0.1160190823610946 [Eh]
	 SCS Opposite-Spin Energy  =      -1.3266087070654378 [Eh]
	 SCS Correlation Energy    =      -1.4426277894265322 [Eh]
	 SCS Total Energy          =    -344.7265648645969236 [Eh]
	-----------------------------------------------------------

  Dipole Moment: [D]
     X:    -9.7608      Y:    -1.2264      Z:    -0.6038     Total:     9.8561

*** Psi4 exiting successfully. Buy a developer a beer!
