                               Psi4 1.3.2 release

  ==> Input File <==

--------------------------------------------------------------------------
#psi4
#
memory 32 gb

molecule  {
-1 1
  O        1.8996640     1.2894670    -0.0585490
  O        2.6973380    -0.8133440     0.2844750
  C       -2.1007360    -0.3533330    -0.4966910
  C       -3.0212668     0.2183967     0.5866685
  C       -0.7145433     0.1951482    -0.3348239
  C        0.3877500    -0.5533880    -0.1062960
  C        1.7796670     0.0321010     0.0519970
  H       -2.0810980    -1.4485100    -0.4425170
  H       -2.4999350    -0.0921100    -1.4864390
  H       -3.0846480     1.2965650     0.5261450
  H       -4.0584310    -0.1803650     0.4515950
  H       -2.6909580    -0.0729930     1.5749670
  H       -0.5778430     1.2611610    -0.4426850
  H        0.3073520    -1.6376590    -0.0083210
units angstrom
no_reorient  #important for SAPT in psi4, default
symmetry c1  #important for SAPT in psi4, default
}

set PROPERTIES_ORIGIN ["COM"]
properties('MP2/aug-cc-pvtz', properties = ['dipole'])
--------------------------------------------------------------------------

    Molecular point group: c1
  Charge       = -1
  Multiplicity = 1
  Basis Set: AUG-CC-PVTZ
    Blend: AUG-CC-PVTZ
  Basis Set: (AUG-CC-PVTZ AUX)
    Blend: AUG-CC-PVTZ-JKFIT

    Orbital Energies [Eh]
    ---------------------

    Doubly Occupied:

       1A    -20.295207     2A    -20.291466     3A    -11.141734
       4A    -11.115520     5A    -11.114132     6A    -11.085739
       7A    -11.071284     8A     -1.161656     9A     -1.060892
      10A     -0.954465    11A     -0.859984    12A     -0.743032
      13A     -0.635182    14A     -0.549073    15A     -0.496098
      16A     -0.484154    17A     -0.446007    18A     -0.416344
      19A     -0.411084    20A     -0.385429    21A     -0.372806
      22A     -0.357724    23A     -0.351969    24A     -0.210942
      25A     -0.208872    26A     -0.202062    27A     -0.191038

  @DF-RHF Final Energy:  -343.28407456569448

   => Energetics <=

    Nuclear Repulsion Energy =            270.9089512663452979
    One-Electron Energy =               -1015.1582633165136258
    Two-Electron Energy =                 400.9652374844738461
    Total Energy =                       -343.2840745656944819
  Basis Set: (AUG-CC-PVTZ AUX)
    Blend: AUG-CC-PVTZ-RI
    Molecular point group: c1

    Geometry (in Angstrom), charge = -1, multiplicity = 1:

       Center              X                  Y                   Z               Mass
    ------------   -----------------  -----------------  -----------------  -----------------
         O            1.751259860398     1.277332102212    -0.060548291295    15.994914619570
         O            2.548933860398    -0.825478897788     0.282475708705    15.994914619570
         C           -2.249140139602    -0.365467897788    -0.498690291295    12.000000000000
         C           -3.169670939602     0.206261802212     0.584669208705    12.000000000000
         C           -0.862947439602     0.183013302212    -0.336823191295    12.000000000000
         C            0.239345860398    -0.565522897788    -0.108295291295    12.000000000000
         C            1.631262860398     0.019966102212     0.049997708705    12.000000000000
         H           -2.229502139602    -1.460644897788    -0.444516291295     1.007825032230
         H           -2.648339139602    -0.104244897788    -1.488438291295     1.007825032230
         H           -3.233052139602     1.284430102212     0.524145708705     1.007825032230
         H           -4.206835139602    -0.192499897788     0.449595708705     1.007825032230
         H           -2.839362139602    -0.085127897788     1.572967708705     1.007825032230
         H           -0.726247139602     1.249026102212    -0.444684291295     1.007825032230
         H            0.158947860398    -1.649793897788    -0.010320291295     1.007825032230

  Basis Set: AUG-CC-PVTZ
    Blend: AUG-CC-PVTZ
  Basis Set: (AUG-CC-PVTZ AUX)
    Blend: AUG-CC-PVTZ-JKFIT
	 Reference Energy          =    -343.2840745656944819 [Eh]
	 Singles Energy            =      -0.0000000000000000 [Eh]
	 Same-Spin Energy          =      -0.3482565195036730 [Eh]
	 Opposite-Spin Energy      =      -1.1058841098838657 [Eh]
	 Correlation Energy        =      -1.4541406293875387 [Eh]
	 Total Energy              =    -344.7382151950820344 [Eh]

	 ================> DF-SCS-MP2 Energies <==================
	-----------------------------------------------------------
	 SCS Same-Spin Scale       =       0.3333333333333333 [-]
	 SCS Opposite-Spin Scale   =       1.2000000000000000 [-]
	 SCS Same-Spin Energy      =      -0.1160855065012243 [Eh]
	 SCS Opposite-Spin Energy  =      -1.3270609318606388 [Eh]
	 SCS Correlation Energy    =      -1.4431464383618631 [Eh]
	 SCS Total Energy          =    -344.7272210040563323 [Eh]
	-----------------------------------------------------------

  Dipole Moment: [D]
     X:    -9.4826      Y:    -1.1324      Z:    -0.5924     Total:     9.5684

*** Psi4 exiting successfully. Buy a developer a beer!
