                               Psi4 1.3.2 release

  ==> Input File <==

--------------------------------------------------------------------------
#psi4
#
memory 32 gb

molecule  {
-1 1
  O        1.8996640     1.2894670    -0.0585490
  O        2.6973380    -0.8133440     0.2844750
  C       -2.1007360    -0.3533330    -0.4966910
  C       -3.0415820     0.2042600     0.5765370
  C       -0.7068410     0.1811810    -0.3555730
  C        0.3877500    -0.5533880    -0.1062960
  C        1.7796670     0.0321010     0.0519970
  H       -2.0810980    -1.4485100    -0.4425170
  H       -2.4999350    -0.0921100    -1.4864390
  H       -3.0846480     1.2965650     0.5261450
  H       -4.0584310    -0.1803650     0.4515950
  H       -2.6909580    -0.0729930     1.5749670
  H       -0.6014876     1.0632065    -0.4267178
  H        0.3073520    -1.6376590    -0.0083210
units angstrom
no_reorient  #important for SAPT in psi4, default
symmetry c1  #important for SAPT in psi4, default
}

set PROPERTIES_ORIGIN ["COM"]
properties('MP2/aug-cc-pvtz', properties = ['dipole'])
--------------------------------------------------------------------------

    Molecular point group: c1
  Charge       = -1
  Multiplicity = 1
  Basis Set: AUG-CC-PVTZ
    Blend: AUG-CC-PVTZ
  Basis Set: (AUG-CC-PVTZ AUX)
    Blend: AUG-CC-PVTZ-JKFIT

    Orbital Energies [Eh]
    ---------------------

    Doubly Occupied:

       1A    -20.295202     2A    -20.291798     3A    -11.141742
       4A    -11.115916     5A    -11.112593     6A    -11.069350
       7A    -11.061692     8A     -1.161782     9A     -1.060994
      10A     -0.959474    11A     -0.867701    12A     -0.743655
      13A     -0.662792    14A     -0.559718    15A     -0.494293
      16A     -0.489133    17A     -0.449430    18A     -0.424163
      19A     -0.408725    20A     -0.382978    21A     -0.375338
      22A     -0.363647    23A     -0.357826    24A     -0.211051
      25A     -0.208847    26A     -0.204129    27A     -0.191106

  @DF-RHF Final Energy:  -343.25176967122900

   => Energetics <=

    Nuclear Repulsion Energy =            271.8519467963352554
    One-Electron Energy =               -1016.8772794466590312
    Two-Electron Energy =                 401.7735629790947769
    Total Energy =                       -343.2517696712289990
  Basis Set: (AUG-CC-PVTZ AUX)
    Blend: AUG-CC-PVTZ-RI
    Molecular point group: c1

    Geometry (in Angstrom), charge = -1, multiplicity = 1:

       Center              X                  Y                   Z               Mass
    ------------   -----------------  -----------------  -----------------  -----------------
         O            1.753028603084     1.282751380760    -0.056969347666    15.994914619570
         O            2.550702603084    -0.820059619240     0.286054652334    15.994914619570
         C           -2.247371396916    -0.360048619240    -0.495111347666    12.000000000000
         C           -3.188217396916     0.197544380760     0.578116652334    12.000000000000
         C           -0.853476396916     0.174465380760    -0.353993347666    12.000000000000
         C            0.241114603084    -0.560103619240    -0.104716347666    12.000000000000
         C            1.633031603084     0.025385380760     0.053576652334    12.000000000000
         H           -2.227733396916    -1.455225619240    -0.440937347666     1.007825032230
         H           -2.646570396916    -0.098825619240    -1.484859347666     1.007825032230
         H           -3.231283396916     1.289849380760     0.527724652334     1.007825032230
         H           -4.205066396916    -0.187080619240     0.453174652334     1.007825032230
         H           -2.837593396916    -0.079708619240     1.576546652334     1.007825032230
         H           -0.748122996916     1.056490880760    -0.425138147666     1.007825032230
         H            0.160716603084    -1.644374619240    -0.006741347666     1.007825032230

  Basis Set: AUG-CC-PVTZ
    Blend: AUG-CC-PVTZ
  Basis Set: (AUG-CC-PVTZ AUX)
    Blend: AUG-CC-PVTZ-JKFIT
	 Reference Energy          =    -343.2517696712289990 [Eh]
	 Singles Energy            =      -0.0000000000000000 [Eh]
	 Same-Spin Energy          =      -0.3477556711932737 [Eh]
	 Opposite-Spin Energy      =      -1.1049889944987128 [Eh]
	 Correlation Energy        =      -1.4527446656919865 [Eh]
	 Total Energy              =    -344.7045143369209654 [Eh]

	 ================> DF-SCS-MP2 Energies <==================
	-----------------------------------------------------------
	 SCS Same-Spin Scale       =       0.3333333333333333 [-]
	 SCS Opposite-Spin Scale   =       1.2000000000000000 [-]
	 SCS Same-Spin Energy      =      -0.1159185570644246 [Eh]
	 SCS Opposite-Spin Energy  =      -1.3259867933984553 [Eh]
	 SCS Correlation Energy    =      -1.4419053504628798 [Eh]
	 SCS Total Energy          =    -344.6936750216918881 [Eh]
	-----------------------------------------------------------

  Dipole Moment: [D]
     X:    -9.5417      Y:    -1.1320      Z:    -0.5844     Total:     9.6264

*** Psi4 exiting successfully. Buy a developer a beer!
