                               Psi4 1.3.2 release

  ==> Input File <==

--------------------------------------------------------------------------
#psi4
#
memory 32 gb

molecule  {
-1 1
  O        1.8996640     1.2894670    -0.0585490
  O        2.6973380    -0.8133440     0.2844750
  C       -2.1007360    -0.3533330    -0.4966910
  C       -3.0415820     0.2042600     0.5765370
  C       -0.7068410     0.1811810    -0.3555730
  C        0.3877500    -0.5533880    -0.1062960
  C        1.7796670     0.0321010     0.0519970
  H       -2.0810980    -1.4485100    -0.4425170
  H       -2.4999350    -0.0921100    -1.4864390
  H       -3.0846480     1.2965650     0.5261450
  H       -4.0584310    -0.1803650     0.4515950
  H       -2.6909580    -0.0729930     1.5749670
  H       -0.5778430     1.2611610    -0.4426850
  H        0.2412394    -1.7126376    -0.0110295
units angstrom
no_reorient  #important for SAPT in psi4, default
symmetry c1  #important for SAPT in psi4, default
}

set PROPERTIES_ORIGIN ["COM"]
properties('MP2/aug-cc-pvtz', properties = ['dipole'])
--------------------------------------------------------------------------

    Molecular point group: c1
  Charge       = -1
  Multiplicity = 1
  Basis Set: AUG-CC-PVTZ
    Blend: AUG-CC-PVTZ
  Basis Set: (AUG-CC-PVTZ AUX)
    Blend: AUG-CC-PVTZ-JKFIT

    Orbital Energies [Eh]
    ---------------------

    Doubly Occupied:

       1A    -20.295745     2A    -20.293576     3A    -11.144669
       4A    -11.115854     5A    -11.114083     6A    -11.085905
       7A    -11.079765     8A     -1.162918     9A     -1.062116
      10A     -0.954274    11A     -0.861174    12A     -0.742465
      13A     -0.629495    14A     -0.548447    15A     -0.494703
      16A     -0.479239    17A     -0.446557    18A     -0.416320
      19A     -0.408274    20A     -0.381865    21A     -0.376142
      22A     -0.359151    23A     -0.343688    24A     -0.212643
      25A     -0.210157    26A     -0.205493    27A     -0.192154

  @DF-RHF Final Energy:  -343.28024963681025

   => Energetics <=

    Nuclear Repulsion Energy =            270.4942861232431710
    One-Electron Energy =               -1014.3153275206707349
    Two-Electron Energy =                 400.5407917606172532
    Total Energy =                       -343.2802496368102538
  Basis Set: (AUG-CC-PVTZ AUX)
    Blend: AUG-CC-PVTZ-RI
    Molecular point group: c1

    Geometry (in Angstrom), charge = -1, multiplicity = 1:

       Center              X                  Y                   Z               Mass
    ------------   -----------------  -----------------  -----------------  -----------------
         O            1.753460734785     1.281500043638    -0.056779313711    15.994914619570
         O            2.551134734785    -0.821310956362     0.286244686289    15.994914619570
         C           -2.246939265215    -0.361299956362    -0.494921313711    12.000000000000
         C           -3.187785265215     0.196293043638     0.578306686289    12.000000000000
         C           -0.853044265215     0.173214043638    -0.353803313711    12.000000000000
         C            0.241546734785    -0.561354956362    -0.104526313711    12.000000000000
         C            1.633463734785     0.024134043638     0.053766686289    12.000000000000
         H           -2.227301265215    -1.456476956362    -0.440747313711     1.007825032230
         H           -2.646138265215    -0.100076956362    -1.484669313711     1.007825032230
         H           -3.230851265215     1.288598043638     0.527914686289     1.007825032230
         H           -4.204634265215    -0.188331956362     0.453364686289     1.007825032230
         H           -2.837161265215    -0.080959956362     1.576736686289     1.007825032230
         H           -0.724046265215     1.253194043638    -0.440915313711     1.007825032230
         H            0.095036134785    -1.720604556362    -0.009259813711     1.007825032230

  Basis Set: AUG-CC-PVTZ
    Blend: AUG-CC-PVTZ
  Basis Set: (AUG-CC-PVTZ AUX)
    Blend: AUG-CC-PVTZ-JKFIT
	 Reference Energy          =    -343.2802496368102538 [Eh]
	 Singles Energy            =      -0.0000000000000000 [Eh]
	 Same-Spin Energy          =      -0.3484235340420166 [Eh]
	 Opposite-Spin Energy      =      -1.1063719811516741 [Eh]
	 Correlation Energy        =      -1.4547955151936907 [Eh]
	 Total Energy              =    -344.7350451520039201 [Eh]

	 ================> DF-SCS-MP2 Energies <==================
	-----------------------------------------------------------
	 SCS Same-Spin Scale       =       0.3333333333333333 [-]
	 SCS Opposite-Spin Scale   =       1.2000000000000000 [-]
	 SCS Same-Spin Energy      =      -0.1161411780140055 [Eh]
	 SCS Opposite-Spin Energy  =      -1.3276463773820089 [Eh]
	 SCS Correlation Energy    =      -1.4437875553960144 [Eh]
	 SCS Total Energy          =    -344.7240371922062536 [Eh]
	-----------------------------------------------------------

  Dipole Moment: [D]
     X:    -9.4796      Y:    -1.0675      Z:    -0.5826     Total:     9.5573

*** Psi4 exiting successfully. Buy a developer a beer!
