                               Psi4 1.3.2 release

  ==> Input File <==

--------------------------------------------------------------------------
#psi4
#
memory 32 gb

molecule  {
-1 1
  O        1.8996640     1.2894670    -0.0585490
  O        2.6973380    -0.8133440     0.2844750
  C       -2.1007360    -0.3533330    -0.4966910
  C       -3.0415820     0.2042600     0.5765370
  C       -0.7068410     0.1811810    -0.3555730
  C        0.3877500    -0.5533880    -0.1062960
  C        1.7796670     0.0321010     0.0519970
  H       -2.0810980    -1.4485100    -0.4425170
  H       -2.4999350    -0.0921100    -1.4864390
  H       -3.0846480     1.2965650     0.5261450
  H       -4.0584310    -0.1803650     0.4515950
  H       -2.6909580    -0.0729930     1.5749670
  H       -0.5778430     1.2611610    -0.4426850
  H        0.3734646    -1.5626804    -0.0056125
units angstrom
no_reorient  #important for SAPT in psi4, default
symmetry c1  #important for SAPT in psi4, default
}

set PROPERTIES_ORIGIN ["COM"]
properties('MP2/aug-cc-pvtz', properties = ['dipole'])
--------------------------------------------------------------------------

    Molecular point group: c1
  Charge       = -1
  Multiplicity = 1
  Basis Set: AUG-CC-PVTZ
    Blend: AUG-CC-PVTZ
  Basis Set: (AUG-CC-PVTZ AUX)
    Blend: AUG-CC-PVTZ-JKFIT

    Orbital Energies [Eh]
    ---------------------

    Doubly Occupied:

       1A    -20.295227     2A    -20.289925     3A    -11.139531
       4A    -11.115731     5A    -11.113932     6A    -11.085520
       7A    -11.060358     8A     -1.161010     9A     -1.060189
      10A     -0.954361    11A     -0.864211    12A     -0.746033
      13A     -0.638642    14A     -0.549120    15A     -0.496329
      16A     -0.492178    17A     -0.445721    18A     -0.422601
      19A     -0.409030    20A     -0.383751    21A     -0.375679
      22A     -0.357077    23A     -0.352136    24A     -0.210475
      25A     -0.207370    26A     -0.204161    27A     -0.190433

  @DF-RHF Final Energy:  -343.28253108646851

   => Energetics <=

    Nuclear Repulsion Energy =            271.2398381114442145
    One-Electron Energy =               -1015.8032748212785918
    Two-Electron Energy =                 401.2809056233658680
    Total Energy =                       -343.2825310864685093
  Basis Set: (AUG-CC-PVTZ AUX)
    Blend: AUG-CC-PVTZ-RI
    Molecular point group: c1

    Geometry (in Angstrom), charge = -1, multiplicity = 1:

       Center              X                  Y                   Z               Mass
    ------------   -----------------  -----------------  -----------------  -----------------
         O            1.752115281722     1.279974159207    -0.056834434211    15.994914619570
         O            2.549789281722    -0.822836840793     0.286189565789    15.994914619570
         C           -2.248284718278    -0.362825840793    -0.494976434211    12.000000000000
         C           -3.189130718278     0.194767159207     0.578251565789    12.000000000000
         C           -0.854389718278     0.171688159207    -0.353858434211    12.000000000000
         C            0.240201281722    -0.562880840793    -0.104581434211    12.000000000000
         C            1.632118281722     0.022608159207     0.053711565789    12.000000000000
         H           -2.228646718278    -1.458002840793    -0.440802434211     1.007825032230
         H           -2.647483718278    -0.101602840793    -1.484724434211     1.007825032230
         H           -3.232196718278     1.287072159207     0.527859565789     1.007825032230
         H           -4.205979718278    -0.189857840793     0.453309565789     1.007825032230
         H           -2.838506718278    -0.082485840793     1.576681565789     1.007825032230
         H           -0.725391718278     1.251668159207    -0.440970434211     1.007825032230
         H            0.225915881722    -1.572173240793    -0.003897934211     1.007825032230

  Basis Set: AUG-CC-PVTZ
    Blend: AUG-CC-PVTZ
  Basis Set: (AUG-CC-PVTZ AUX)
    Blend: AUG-CC-PVTZ-JKFIT
	 Reference Energy          =    -343.2825310864685093 [Eh]
	 Singles Energy            =      -0.0000000000000000 [Eh]
	 Same-Spin Energy          =      -0.3479672189922306 [Eh]
	 Opposite-Spin Energy      =      -1.1051056347239387 [Eh]
	 Correlation Energy        =      -1.4530728537161695 [Eh]
	 Total Energy              =    -344.7356039401846601 [Eh]

	 ================> DF-SCS-MP2 Energies <==================
	-----------------------------------------------------------
	 SCS Same-Spin Scale       =       0.3333333333333333 [-]
	 SCS Opposite-Spin Scale   =       1.2000000000000000 [-]
	 SCS Same-Spin Energy      =      -0.1159890729974102 [Eh]
	 SCS Opposite-Spin Energy  =      -1.3261267616687265 [Eh]
	 SCS Correlation Energy    =      -1.4421158346661367 [Eh]
	 SCS Total Energy          =    -344.7246469211346493 [Eh]
	-----------------------------------------------------------

  Dipole Moment: [D]
     X:    -9.5335      Y:    -1.2146      Z:    -0.5767     Total:     9.6279

*** Psi4 exiting successfully. Buy a developer a beer!
