                               Psi4 1.4a3.dev225

  ==> Input File <==

--------------------------------------------------------------------------
#psi4
#
memory 32 gb

molecule  {
-1 1
  O        1.8994270     1.2905180    -0.0615170
  O        2.6993700    -0.8109500     0.2832770
  C       -2.1001690    -0.3616000    -0.4913260
  C       -3.0433460     0.2119310     0.5709670
  C       -0.6615883     0.1950514    -0.3501334
  C        0.3885780    -0.5541740    -0.1016650
  C        1.7798570     0.0330080     0.0518740
  H       -2.0812530    -1.4558260    -0.4203270
  H       -2.4968010    -0.1155520    -1.4857470
  H       -3.0817280     1.3037570     0.5071420
  H       -4.0608920    -0.1705790     0.4451360
  H       -2.6986290    -0.0550030     1.5741980
  H       -0.5806440     1.2564400    -0.4499950
  H        0.3081890    -1.6372690     0.0045550
units angstrom
no_reorient  #important for SAPT in psi4, default
symmetry c1  #important for SAPT in psi4, default
}

set PROPERTIES_ORIGIN ["COM"]
properties('MP2/aug-cc-pvtz', properties = ['dipole'])
--------------------------------------------------------------------------

    Molecular point group: c1
  Charge       = -1
  Multiplicity = 1
  Basis Set: AUG-CC-PVTZ
    Blend: AUG-CC-PVTZ
  Basis Set: (AUG-CC-PVTZ AUX)
    Blend: AUG-CC-PVTZ-JKFIT

    Orbital Energies [Eh]
    ---------------------

    Doubly Occupied:

       1A    -20.294583     2A    -20.290956     3A    -11.140608
       4A    -11.115263     5A    -11.114638     6A    -11.082604
       7A    -11.065619     8A     -1.161204     9A     -1.060306
      10A     -0.949020    11A     -0.867923    12A     -0.738842
      13A     -0.634458    14A     -0.550031    15A     -0.492254
      16A     -0.485125    17A     -0.446524    18A     -0.422278
      19A     -0.406469    20A     -0.381892    21A     -0.373795
      22A     -0.358067    23A     -0.346061    24A     -0.211795
      25A     -0.209414    26A     -0.208574    27A     -0.190751

  @DF-RHF Final Energy:  -343.28480355116602

   => Energetics <=

    Nuclear Repulsion Energy =            270.9519359443815461
    One-Electron Energy =               -1015.2753745758100195
    Two-Electron Energy =                 401.0386350802623951
    Total Energy =                       -343.2848035511660214
  Basis Set: (AUG-CC-PVTZ AUX)
    Blend: AUG-CC-PVTZ-RI
    Molecular point group: c1

    Geometry (in Angstrom), charge = -1, multiplicity = 1:

       Center              X                  Y                   Z               Mass
    ------------   -----------------  -----------------  -----------------  -----------------
         O            1.746863169092     1.279610038970    -0.060305046544    15.994914619570
         O            2.546806169092    -0.821857961030     0.284488953456    15.994914619570
         C           -2.252732830908    -0.372507961030    -0.490114046544    12.000000000000
         C           -3.195909830908     0.201023038970     0.572178953456    12.000000000000
         C           -0.814152130908     0.184143438970    -0.348921446544    12.000000000000
         C            0.236014169092    -0.565081961030    -0.100453046544    12.000000000000
         C            1.627293169092     0.022100038970     0.053085953456    12.000000000000
         H           -2.233816830908    -1.466733961030    -0.419115046544     1.007825032230
         H           -2.649364830908    -0.126459961030    -1.484535046544     1.007825032230
         H           -3.234291830908     1.292849038970     0.508353953456     1.007825032230
         H           -4.213455830908    -0.181486961030     0.446347953456     1.007825032230
         H           -2.851192830908    -0.065910961030     1.575409953456     1.007825032230
         H           -0.733207830908     1.245532038970    -0.448783046544     1.007825032230
         H            0.155625169092    -1.648176961030     0.005766953456     1.007825032230

  Basis Set: AUG-CC-PVTZ
    Blend: AUG-CC-PVTZ
  Basis Set: (AUG-CC-PVTZ AUX)
    Blend: AUG-CC-PVTZ-JKFIT
	 Reference Energy          =    -343.2848035511660214 [Eh]
	 Singles Energy            =      -0.0000000000000000 [Eh]
	 Same-Spin Energy          =      -0.3474769474210107 [Eh]
	 Opposite-Spin Energy      =      -1.1045636719110781 [Eh]
	 Correlation Energy        =      -1.4520406193320887 [Eh]
	 Total Energy              =    -344.7368441704981024 [Eh]

	 ================> DF-SCS-MP2 Energies <==================
	-----------------------------------------------------------
	 SCS Same-Spin Scale       =       0.3333333333333333 [-]
	 SCS Opposite-Spin Scale   =       1.2000000000000000 [-]
	 SCS Same-Spin Energy      =      -0.1158256491403369 [Eh]
	 SCS Opposite-Spin Energy  =      -1.3254764062932936 [Eh]
	 SCS Correlation Energy    =      -1.4413020554336304 [Eh]
	 SCS Total Energy          =    -344.7261056065996740 [Eh]
	-----------------------------------------------------------

  Dipole Moment: [D]
     X:    -9.4856      Y:    -1.1457      Z:    -0.5657     Total:     9.5713

*** Psi4 exiting successfully. Buy a developer a beer!
