                               Psi4 1.3.2 release

  ==> Input File <==

--------------------------------------------------------------------------
#psi4
#
memory 32 gb

molecule  {
-1 1
  O        1.8996640     1.2894670    -0.0585490
  O        2.7408037    -0.7631086     0.2860938
  C       -2.1007360    -0.3533330    -0.4966910
  C       -3.0415820     0.2042600     0.5765370
  C       -0.7068410     0.1811810    -0.3555730
  C        0.3603940    -0.4797202    -0.1182684
  C        1.7796670     0.0321010     0.0519970
  H       -2.0810980    -1.4485100    -0.4425170
  H       -2.4999350    -0.0921100    -1.4864390
  H       -3.0846480     1.2965650     0.5261450
  H       -4.0584310    -0.1803650     0.4515950
  H       -2.6909580    -0.0729930     1.5749670
  H       -0.5778430     1.2611610    -0.4426850
  H        0.3073520    -1.6376590    -0.0083210
units angstrom
no_reorient  #important for SAPT in psi4, default
symmetry c1  #important for SAPT in psi4, default
}

set PROPERTIES_ORIGIN ["COM"]
properties('MP2/aug-cc-pvtz', properties = ['dipole'])
--------------------------------------------------------------------------

    Molecular point group: c1
  Charge       = -1
  Multiplicity = 1
  Basis Set: AUG-CC-PVTZ
    Blend: AUG-CC-PVTZ
  Basis Set: (AUG-CC-PVTZ AUX)
    Blend: AUG-CC-PVTZ-JKFIT

    Orbital Energies [Eh]
    ---------------------

    Doubly Occupied:

       1A    -20.295967     2A    -20.287358     3A    -11.141883
       4A    -11.117124     5A    -11.115966     6A    -11.078013
       7A    -11.070317     8A     -1.162523     9A     -1.056497
      10A     -0.960972    11A     -0.874386    12A     -0.745139
      13A     -0.634000    14A     -0.550750    15A     -0.498289
      16A     -0.481563    17A     -0.447384    18A     -0.419878
      19A     -0.409604    20A     -0.382725    21A     -0.378726
      22A     -0.358304    23A     -0.334471    24A     -0.222410
      25A     -0.214164    26A     -0.202942    27A     -0.187799

  @DF-RHF Final Energy:  -343.27664175352027

   => Energetics <=

    Nuclear Repulsion Energy =            271.4994830590344463
    One-Electron Energy =               -1016.2939414941340601
    Two-Electron Energy =                 401.5178166815793475
    Total Energy =                       -343.2766417535202663
  Basis Set: (AUG-CC-PVTZ AUX)
    Blend: AUG-CC-PVTZ-RI
    Molecular point group: c1

    Geometry (in Angstrom), charge = -1, multiplicity = 1:

       Center              X                  Y                   Z               Mass
    ------------   -----------------  -----------------  -----------------  -----------------
         O            1.749083029448     1.263699075545    -0.055617750809    15.994914619570
         O            2.590222729448    -0.788876524455     0.289025049191    15.994914619570
         C           -2.251316970552    -0.379100924455    -0.493759750809    12.000000000000
         C           -3.192162970552     0.178492075545     0.579468249191    12.000000000000
         C           -0.857421970552     0.155413075545    -0.352641750809    12.000000000000
         C            0.209813029448    -0.505488124455    -0.115337150809    12.000000000000
         C            1.629086029448     0.006333075545     0.054928249191    12.000000000000
         H           -2.231678970552    -1.474277924455    -0.439585750809     1.007825032230
         H           -2.650515970552    -0.117877924455    -1.483507750809     1.007825032230
         H           -3.235228970552     1.270797075545     0.529076249191     1.007825032230
         H           -4.209011970552    -0.206132924455     0.454526249191     1.007825032230
         H           -2.841538970552    -0.098760924455     1.577898249191     1.007825032230
         H           -0.728423970552     1.235393075545    -0.439753750809     1.007825032230
         H            0.156771029448    -1.663426924455    -0.005389750809     1.007825032230

  Basis Set: AUG-CC-PVTZ
    Blend: AUG-CC-PVTZ
  Basis Set: (AUG-CC-PVTZ AUX)
    Blend: AUG-CC-PVTZ-JKFIT
	 Reference Energy          =    -343.2766417535202663 [Eh]
	 Singles Energy            =      -0.0000000000000000 [Eh]
	 Same-Spin Energy          =      -0.3479359296542346 [Eh]
	 Opposite-Spin Energy      =      -1.1048959808805581 [Eh]
	 Correlation Energy        =      -1.4528319105347927 [Eh]
	 Total Energy              =    -344.7294736640550354 [Eh]

	 ================> DF-SCS-MP2 Energies <==================
	-----------------------------------------------------------
	 SCS Same-Spin Scale       =       0.3333333333333333 [-]
	 SCS Opposite-Spin Scale   =       1.2000000000000000 [-]
	 SCS Same-Spin Energy      =      -0.1159786432180782 [Eh]
	 SCS Opposite-Spin Energy  =      -1.3258751770566697 [Eh]
	 SCS Correlation Energy    =      -1.4418538202747480 [Eh]
	 SCS Total Energy          =    -344.7184955737949963 [Eh]
	-----------------------------------------------------------

  Dipole Moment: [D]
     X:    -9.6630      Y:    -1.1185      Z:    -0.5962     Total:     9.7458

*** Psi4 exiting successfully. Buy a developer a beer!
