                               Psi4 1.3.2 release

  ==> Input File <==

--------------------------------------------------------------------------
#psi4
#
memory 32 gb

molecule  {
-1 1
  O        1.8996640     1.2894670    -0.0585490
  O        2.6973380    -0.8133440     0.2844750
  C       -2.1007360    -0.3533330    -0.4966910
  C       -2.9798015     0.2461433     0.6059384
  C       -0.7312122     0.2225773    -0.2934799
  C        0.3877500    -0.5533880    -0.1062960
  C        1.7796670     0.0321010     0.0519970
  H       -2.0810980    -1.4485100    -0.4425170
  H       -2.4999350    -0.0921100    -1.4864390
  H       -3.0846480     1.2965650     0.5261450
  H       -4.0584310    -0.1803650     0.4515950
  H       -2.6909580    -0.0729930     1.5749670
  H       -0.5778430     1.2611610    -0.4426850
  H        0.3073520    -1.6376590    -0.0083210
units angstrom
no_reorient  #important for SAPT in psi4, default
symmetry c1  #important for SAPT in psi4, default
}

set PROPERTIES_ORIGIN ["COM"]
properties('MP2/aug-cc-pvtz', properties = ['dipole'])
--------------------------------------------------------------------------

    Molecular point group: c1
  Charge       = -1
  Multiplicity = 1
  Basis Set: AUG-CC-PVTZ
    Blend: AUG-CC-PVTZ
  Basis Set: (AUG-CC-PVTZ AUX)
    Blend: AUG-CC-PVTZ-JKFIT

    Orbital Energies [Eh]
    ---------------------

    Doubly Occupied:

       1A    -20.295226     2A    -20.291397     3A    -11.141533
       4A    -11.115899     5A    -11.114757     6A    -11.087034
       7A    -11.074671     8A     -1.161618     9A     -1.060884
      10A     -0.955472    11A     -0.855365    12A     -0.742142
      13A     -0.639903    14A     -0.549643    15A     -0.501711
      16A     -0.479592    17A     -0.446705    18A     -0.416704
      19A     -0.411244    20A     -0.389531    21A     -0.365605
      22A     -0.357878    23A     -0.353892    24A     -0.210806
      25A     -0.208873    26A     -0.196770    27A     -0.190766

  @DF-RHF Final Energy:  -343.27351178618068

   => Energetics <=

    Nuclear Repulsion Energy =            271.0061973142030070
    One-Electron Energy =               -1015.3281758939004931
    Two-Electron Energy =                 401.0484667935168659
    Total Energy =                       -343.2735117861806771
  Basis Set: (AUG-CC-PVTZ AUX)
    Blend: AUG-CC-PVTZ-RI
    Molecular point group: c1

    Geometry (in Angstrom), charge = -1, multiplicity = 1:

       Center              X                  Y                   Z               Mass
    ------------   -----------------  -----------------  -----------------  -----------------
         O            1.748255589730     1.270647150481    -0.067892121925    15.994914619570
         O            2.545929589730    -0.832163849519     0.275131878075    15.994914619570
         C           -2.252144410270    -0.372152849519    -0.506034121925    12.000000000000
         C           -3.131209910270     0.227323450481     0.596595278075    12.000000000000
         C           -0.882620610270     0.203757450481    -0.302823021925    12.000000000000
         C            0.236341589730    -0.572207849519    -0.115639121925    12.000000000000
         C            1.628258589730     0.013281150481     0.042653878075    12.000000000000
         H           -2.232506410270    -1.467329849519    -0.451860121925     1.007825032230
         H           -2.651343410270    -0.110929849519    -1.495782121925     1.007825032230
         H           -3.236056410270     1.277745150481     0.516801878075     1.007825032230
         H           -4.209839410270    -0.199184849519     0.442251878075     1.007825032230
         H           -2.842366410270    -0.091812849519     1.565623878075     1.007825032230
         H           -0.729251410270     1.242341150481    -0.452028121925     1.007825032230
         H            0.155943589730    -1.656478849519    -0.017664121925     1.007825032230

  Basis Set: AUG-CC-PVTZ
    Blend: AUG-CC-PVTZ
  Basis Set: (AUG-CC-PVTZ AUX)
    Blend: AUG-CC-PVTZ-JKFIT
	 Reference Energy          =    -343.2735117861806771 [Eh]
	 Singles Energy            =      -0.0000000000000000 [Eh]
	 Same-Spin Energy          =      -0.3487205605280899 [Eh]
	 Opposite-Spin Energy      =      -1.1071024849549114 [Eh]
	 Correlation Energy        =      -1.4558230454830012 [Eh]
	 Total Energy              =    -344.7293348316636639 [Eh]

	 ================> DF-SCS-MP2 Energies <==================
	-----------------------------------------------------------
	 SCS Same-Spin Scale       =       0.3333333333333333 [-]
	 SCS Opposite-Spin Scale   =       1.2000000000000000 [-]
	 SCS Same-Spin Energy      =      -0.1162401868426966 [Eh]
	 SCS Opposite-Spin Energy  =      -1.3285229819458937 [Eh]
	 SCS Correlation Energy    =      -1.4447631687885902 [Eh]
	 SCS Total Energy          =    -344.7182749549692744 [Eh]
	-----------------------------------------------------------

  Dipole Moment: [D]
     X:    -9.3909      Y:    -1.0958      Z:    -0.6222     Total:     9.4751

*** Psi4 exiting successfully. Buy a developer a beer!
