                               Psi4 1.3.2 release

  ==> Input File <==

--------------------------------------------------------------------------
#psi4
#
memory 32 gb

molecule  {
-1 1
  O        1.8996640     1.2894670    -0.0585490
  O        2.6898459    -0.8214949     0.2841431
  C       -2.1007360    -0.3533330    -0.4966910
  C       -3.0415820     0.2042600     0.5765370
  C       -0.7068410     0.1811810    -0.3555730
  C        0.3926824    -0.5655153    -0.1042575
  C        1.7796670     0.0321010     0.0519970
  H       -2.0810980    -1.4485100    -0.4425170
  H       -2.4999350    -0.0921100    -1.4864390
  H       -3.0846480     1.2965650     0.5261450
  H       -4.0584310    -0.1803650     0.4515950
  H       -2.6909580    -0.0729930     1.5749670
  H       -0.5778430     1.2611610    -0.4426850
  H        0.3073520    -1.6376590    -0.0083210
units angstrom
no_reorient  #important for SAPT in psi4, default
symmetry c1  #important for SAPT in psi4, default
}

set PROPERTIES_ORIGIN ["COM"]
properties('MP2/aug-cc-pvtz', properties = ['dipole'])
--------------------------------------------------------------------------

    Molecular point group: c1
  Charge       = -1
  Multiplicity = 1
  Basis Set: AUG-CC-PVTZ
    Blend: AUG-CC-PVTZ
  Basis Set: (AUG-CC-PVTZ AUX)
    Blend: AUG-CC-PVTZ-JKFIT

    Orbital Energies [Eh]
    ---------------------

    Doubly Occupied:

       1A    -20.295304     2A    -20.292439     3A    -11.142155
       4A    -11.115539     5A    -11.113672     6A    -11.086638
       7A    -11.070070     8A     -1.161834     9A     -1.061899
      10A     -0.953255    11A     -0.860395    12A     -0.743645
      13A     -0.632915    14A     -0.548897    15A     -0.494578
      16A     -0.486348    17A     -0.445712    18A     -0.419232
      19A     -0.408656    20A     -0.383531    21A     -0.374983
      22A     -0.358058    23A     -0.350671    24A     -0.210641
      25A     -0.209947    26A     -0.201762    27A     -0.191831

  @DF-RHF Final Energy:  -343.28510109613700

   => Energetics <=

    Nuclear Repulsion Energy =            270.7564294633604050
    One-Electron Energy =               -1014.8538398266795184
    Two-Electron Energy =                 400.8123092671821155
    Total Energy =                       -343.2851010961369980
  Basis Set: (AUG-CC-PVTZ AUX)
    Blend: AUG-CC-PVTZ-RI
    Molecular point group: c1

    Geometry (in Angstrom), charge = -1, multiplicity = 1:

       Center              X                  Y                   Z               Mass
    ------------   -----------------  -----------------  -----------------  -----------------
         O            1.753400325302     1.283522720599    -0.057000254387    15.994914619570
         O            2.543582225302    -0.827439179401     0.285691845613    15.994914619570
         C           -2.246999674698    -0.359277279401    -0.495142254387    12.000000000000
         C           -3.187845674698     0.198315720599     0.578085745613    12.000000000000
         C           -0.853104674698     0.175236720599    -0.354024254387    12.000000000000
         C            0.246418725302    -0.571459579401    -0.102708754387    12.000000000000
         C            1.633403325302     0.026156720599     0.053545745613    12.000000000000
         H           -2.227361674698    -1.454454279401    -0.440968254387     1.007825032230
         H           -2.646198674698    -0.098054279401    -1.484890254387     1.007825032230
         H           -3.230911674698     1.290620720599     0.527693745613     1.007825032230
         H           -4.204694674698    -0.186309279401     0.453143745613     1.007825032230
         H           -2.837221674698    -0.078937279401     1.576515745613     1.007825032230
         H           -0.724106674698     1.255216720599    -0.441136254387     1.007825032230
         H            0.161088325302    -1.643603279401    -0.006772254387     1.007825032230

  Basis Set: AUG-CC-PVTZ
    Blend: AUG-CC-PVTZ
  Basis Set: (AUG-CC-PVTZ AUX)
    Blend: AUG-CC-PVTZ-JKFIT
	 Reference Energy          =    -343.2851010961369980 [Eh]
	 Singles Energy            =      -0.0000000000000000 [Eh]
	 Same-Spin Energy          =      -0.3482352125091607 [Eh]
	 Opposite-Spin Energy      =      -1.1057990916504417 [Eh]
	 Correlation Energy        =      -1.4540343041596024 [Eh]
	 Total Energy              =    -344.7391354002966182 [Eh]

	 ================> DF-SCS-MP2 Energies <==================
	-----------------------------------------------------------
	 SCS Same-Spin Scale       =       0.3333333333333333 [-]
	 SCS Opposite-Spin Scale   =       1.2000000000000000 [-]
	 SCS Same-Spin Energy      =      -0.1160784041697202 [Eh]
	 SCS Opposite-Spin Energy  =      -1.3269589099805299 [Eh]
	 SCS Correlation Energy    =      -1.4430373141502502 [Eh]
	 SCS Total Energy          =    -344.7281384102872721 [Eh]
	-----------------------------------------------------------

  Dipole Moment: [D]
     X:    -9.4805      Y:    -1.1555      Z:    -0.5760     Total:     9.5680

*** Psi4 exiting successfully. Buy a developer a beer!
