                               Psi4 1.3.2 release

  ==> Input File <==

--------------------------------------------------------------------------
#psi4
#
memory 32 gb

molecule  {
-1 1
  O        1.9647604     1.2824643    -0.0476078
  O        2.6973380    -0.8133440     0.2844750
  C       -2.1007360    -0.3533330    -0.4966910
  C       -3.0415820     0.2042600     0.5765370
  C       -0.7068410     0.1811810    -0.3555730
  C        0.4189358    -0.6254607    -0.0939831
  C        1.7796670     0.0321010     0.0519970
  H       -2.0810980    -1.4485100    -0.4425170
  H       -2.4999350    -0.0921100    -1.4864390
  H       -3.0846480     1.2965650     0.5261450
  H       -4.0584310    -0.1803650     0.4515950
  H       -2.6909580    -0.0729930     1.5749670
  H       -0.5778430     1.2611610    -0.4426850
  H        0.3073520    -1.6376590    -0.0083210
units angstrom
no_reorient  #important for SAPT in psi4, default
symmetry c1  #important for SAPT in psi4, default
}

set PROPERTIES_ORIGIN ["COM"]
properties('MP2/aug-cc-pvtz', properties = ['dipole'])
--------------------------------------------------------------------------

    Molecular point group: c1
  Charge       = -1
  Multiplicity = 1
  Basis Set: AUG-CC-PVTZ
    Blend: AUG-CC-PVTZ
  Basis Set: (AUG-CC-PVTZ AUX)
    Blend: AUG-CC-PVTZ-JKFIT

    Orbital Energies [Eh]
    ---------------------

    Doubly Occupied:

       1A    -20.290785     2A    -20.289105     3A    -11.140391
       4A    -11.117006     5A    -11.115524     6A    -11.098492
       7A    -11.077575     8A     -1.161101     9A     -1.055020
      10A     -0.952689    11A     -0.855845    12A     -0.747029
      13A     -0.637255    14A     -0.552785    15A     -0.499677
      16A     -0.487458    17A     -0.443642    18A     -0.421347
      19A     -0.410101    20A     -0.385843    21A     -0.369038
      22A     -0.361602    23A     -0.355578    24A     -0.212234
      25A     -0.202884    26A     -0.192809    27A     -0.187184

  @DF-RHF Final Energy:  -343.27204236587721

   => Energetics <=

    Nuclear Repulsion Energy =            269.7505654981723069
    One-Electron Energy =               -1012.8052160386268952
    Two-Electron Energy =                 399.7826081745773195
    Total Energy =                       -343.2720423658772120
  Basis Set: (AUG-CC-PVTZ AUX)
    Blend: AUG-CC-PVTZ-RI
    Molecular point group: c1

    Geometry (in Angstrom), charge = -1, multiplicity = 1:

       Center              X                  Y                   Z               Mass
    ------------   -----------------  -----------------  -----------------  -----------------
         O            1.803593463606     1.283597432264    -0.049124391198    15.994914619570
         O            2.536171063606    -0.812210867736     0.282958408802    15.994914619570
         C           -2.261902936394    -0.352199867736    -0.498207591198    12.000000000000
         C           -3.202748936394     0.205393132264     0.575020408802    12.000000000000
         C           -0.868007936394     0.182314132264    -0.357089591198    12.000000000000
         C            0.257768863606    -0.624327567736    -0.095499691198    12.000000000000
         C            1.618500063606     0.033234132264     0.050480408802    12.000000000000
         H           -2.242264936394    -1.447376867736    -0.444033591198     1.007825032230
         H           -2.661101936394    -0.090976867736    -1.487955591198     1.007825032230
         H           -3.245814936394     1.297698132264     0.524628408802     1.007825032230
         H           -4.219597936394    -0.179231867736     0.450078408802     1.007825032230
         H           -2.852124936394    -0.071859867736     1.573450408802     1.007825032230
         H           -0.739009936394     1.262294132264    -0.444201591198     1.007825032230
         H            0.146185063606    -1.636525867736    -0.009837591198     1.007825032230

  Basis Set: AUG-CC-PVTZ
    Blend: AUG-CC-PVTZ
  Basis Set: (AUG-CC-PVTZ AUX)
    Blend: AUG-CC-PVTZ-JKFIT
	 Reference Energy          =    -343.2720423658772120 [Eh]
	 Singles Energy            =      -0.0000000000000000 [Eh]
	 Same-Spin Energy          =      -0.3487639065208327 [Eh]
	 Opposite-Spin Energy      =      -1.1073787413370311 [Eh]
	 Correlation Energy        =      -1.4561426478578636 [Eh]
	 Total Energy              =    -344.7281850137350716 [Eh]

	 ================> DF-SCS-MP2 Energies <==================
	-----------------------------------------------------------
	 SCS Same-Spin Scale       =       0.3333333333333333 [-]
	 SCS Opposite-Spin Scale   =       1.2000000000000000 [-]
	 SCS Same-Spin Energy      =      -0.1162546355069442 [Eh]
	 SCS Opposite-Spin Energy  =      -1.3288544896044372 [Eh]
	 SCS Correlation Energy    =      -1.4451091251113815 [Eh]
	 SCS Total Energy          =    -344.7171514909886127 [Eh]
	-----------------------------------------------------------

  Dipole Moment: [D]
     X:    -9.6861      Y:    -1.2572      Z:    -0.5959     Total:     9.7855

*** Psi4 exiting successfully. Buy a developer a beer!
