                               Psi4 1.3.2 release

  ==> Input File <==

--------------------------------------------------------------------------
#psi4
#
memory 32 gb

molecule  {
-1 1
  O        1.8996640     1.2894670    -0.0585490
  O        2.6973380    -0.8133440     0.2844750
  C       -2.1007360    -0.3533330    -0.4966910
  C       -3.0360156     0.2290540     0.5682020
  C       -0.7068410     0.1811810    -0.3555730
  C        0.3877500    -0.5533880    -0.1062960
  C        1.7796670     0.0321010     0.0519970
  H       -2.0687292    -1.4488433    -0.4571206
  H       -2.4999350    -0.0921100    -1.4864390
  H       -3.0846480     1.2965650     0.5261450
  H       -4.0584310    -0.1803650     0.4515950
  H       -2.6909580    -0.0729930     1.5749670
  H       -0.5778430     1.2611610    -0.4426850
  H        0.3073520    -1.6376590    -0.0083210
units angstrom
no_reorient  #important for SAPT in psi4, default
symmetry c1  #important for SAPT in psi4, default
}

set PROPERTIES_ORIGIN ["COM"]
properties('MP2/aug-cc-pvtz', properties = ['dipole'])
--------------------------------------------------------------------------

    Molecular point group: c1
  Charge       = -1
  Multiplicity = 1
  Basis Set: AUG-CC-PVTZ
    Blend: AUG-CC-PVTZ
  Basis Set: (AUG-CC-PVTZ AUX)
    Blend: AUG-CC-PVTZ-JKFIT

    Orbital Energies [Eh]
    ---------------------

    Doubly Occupied:

       1A    -20.295244     2A    -20.291546     3A    -11.141895
       4A    -11.116231     5A    -11.114097     6A    -11.085194
       7A    -11.069763     8A     -1.161716     9A     -1.060936
      10A     -0.954468    11A     -0.862177    12A     -0.744236
      13A     -0.633076    14A     -0.549038    15A     -0.493624
      16A     -0.486386    17A     -0.446785    18A     -0.418872
      19A     -0.409495    20A     -0.384268    21A     -0.374236
      22A     -0.357836    23A     -0.348739    24A     -0.211114
      25A     -0.208912    26A     -0.204356    27A     -0.191108

  @DF-RHF Final Energy:  -343.28476412563748

   => Energetics <=

    Nuclear Repulsion Energy =            270.9026448505385360
    One-Electron Energy =               -1015.1441300468236477
    Two-Electron Energy =                 400.9567210706476317
    Total Energy =                       -343.2847641256374800
  Basis Set: (AUG-CC-PVTZ AUX)
    Blend: AUG-CC-PVTZ-RI
    Molecular point group: c1

    Geometry (in Angstrom), charge = -1, multiplicity = 1:

       Center              X                  Y                   Z               Mass
    ------------   -----------------  -----------------  -----------------  -----------------
         O            1.751987738651     1.277736513015    -0.055648427479    15.994914619570
         O            2.549661738651    -0.825074486985     0.287375572521    15.994914619570
         C           -2.248412261349    -0.365063486985    -0.493790427479    12.000000000000
         C           -3.183691861349     0.217323513015     0.571102572521    12.000000000000
         C           -0.854517261349     0.169450513015    -0.352672427479    12.000000000000
         C            0.240073738651    -0.565118486985    -0.103395427479    12.000000000000
         C            1.631990738651     0.020370513015     0.054897572521    12.000000000000
         H           -2.216405461349    -1.460573786985    -0.454220027479     1.007825032230
         H           -2.647611261349    -0.103840486985    -1.483538427479     1.007825032230
         H           -3.232324261349     1.284834513015     0.529045572521     1.007825032230
         H           -4.206107261349    -0.192095486985     0.454495572521     1.007825032230
         H           -2.838634261349    -0.084723486985     1.577867572521     1.007825032230
         H           -0.725519261349     1.249430513015    -0.439784427479     1.007825032230
         H            0.159675738651    -1.649389486985    -0.005420427479     1.007825032230

  Basis Set: AUG-CC-PVTZ
    Blend: AUG-CC-PVTZ
  Basis Set: (AUG-CC-PVTZ AUX)
    Blend: AUG-CC-PVTZ-JKFIT
	 Reference Energy          =    -343.2847641256374800 [Eh]
	 Singles Energy            =      -0.0000000000000000 [Eh]
	 Same-Spin Energy          =      -0.3481734539302642 [Eh]
	 Opposite-Spin Energy      =      -1.1056062370615567 [Eh]
	 Correlation Energy        =      -1.4537796909918210 [Eh]
	 Total Energy              =    -344.7385438166293170 [Eh]

	 ================> DF-SCS-MP2 Energies <==================
	-----------------------------------------------------------
	 SCS Same-Spin Scale       =       0.3333333333333333 [-]
	 SCS Opposite-Spin Scale   =       1.2000000000000000 [-]
	 SCS Same-Spin Energy      =      -0.1160578179767547 [Eh]
	 SCS Opposite-Spin Energy  =      -1.3267274844738679 [Eh]
	 SCS Correlation Energy    =      -1.4427853024506225 [Eh]
	 SCS Total Energy          =    -344.7275494280880821 [Eh]
	-----------------------------------------------------------

  Dipole Moment: [D]
     X:    -9.5091      Y:    -1.1238      Z:    -0.5899     Total:     9.5934

*** Psi4 exiting successfully. Buy a developer a beer!
