                               Psi4 1.3.2 release

  ==> Input File <==

--------------------------------------------------------------------------
#psi4
#
memory 32 gb

molecule  {
-1 1
  O        1.8996640     1.2894670    -0.0585490
  O        2.6973380    -0.8133440     0.2844750
  C       -2.1007360    -0.3533330    -0.4966910
  C       -3.0415820     0.2042600     0.5765370
  C       -0.7133163     0.1714272    -0.3556072
  C        0.3877500    -0.5533880    -0.1062960
  C        1.7796670     0.0321010     0.0519970
  H       -2.0810980    -1.4485100    -0.4425170
  H       -2.4999350    -0.0921100    -1.4864390
  H       -3.0846480     1.2965650     0.5261450
  H       -4.0584310    -0.1803650     0.4515950
  H       -2.6909580    -0.0729930     1.5749670
  H       -0.5778430     1.2611610    -0.4426850
  H        0.2979721    -1.6370621    -0.0098750
units angstrom
no_reorient  #important for SAPT in psi4, default
symmetry c1  #important for SAPT in psi4, default
}

set PROPERTIES_ORIGIN ["COM"]
properties('MP2/aug-cc-pvtz', properties = ['dipole'])
--------------------------------------------------------------------------

    Molecular point group: c1
  Charge       = -1
  Multiplicity = 1
  Basis Set: AUG-CC-PVTZ
    Blend: AUG-CC-PVTZ
  Basis Set: (AUG-CC-PVTZ AUX)
    Blend: AUG-CC-PVTZ-JKFIT

    Orbital Energies [Eh]
    ---------------------

    Doubly Occupied:

       1A    -20.295539     2A    -20.291950     3A    -11.142564
       4A    -11.115981     5A    -11.113817     6A    -11.085585
       7A    -11.070065     8A     -1.162013     9A     -1.061230
      10A     -0.955699    11A     -0.862349    12A     -0.744976
      13A     -0.631597    14A     -0.549354    15A     -0.495582
      16A     -0.485897    17A     -0.445957    18A     -0.418725
      19A     -0.409443    20A     -0.383370    21A     -0.377264
      22A     -0.358127    23A     -0.346475    24A     -0.211741
      25A     -0.209261    26A     -0.204533    27A     -0.191346

  @DF-RHF Final Energy:  -343.28532333347579

   => Energetics <=

    Nuclear Repulsion Energy =            270.8913175028228011
    One-Electron Energy =               -1015.1123997341300083
    Two-Electron Energy =                 400.9357588978314766
    Total Energy =                       -343.2853233334757874
  Basis Set: (AUG-CC-PVTZ AUX)
    Blend: AUG-CC-PVTZ-RI
    Molecular point group: c1

    Geometry (in Angstrom), charge = -1, multiplicity = 1:

       Center              X                  Y                   Z               Mass
    ------------   -----------------  -----------------  -----------------  -----------------
         O            1.753667984488     1.281912774038    -0.056786917699    15.994914619570
         O            2.551341984488    -0.820898225962     0.286237082301    15.994914619570
         C           -2.246732015512    -0.360887225962    -0.494928917699    12.000000000000
         C           -3.187578015512     0.196705774038     0.578299082301    12.000000000000
         C           -0.859312315512     0.163872974038    -0.353845117699    12.000000000000
         C            0.241753984488    -0.560942225962    -0.104533917699    12.000000000000
         C            1.633670984488     0.024546774038     0.053759082301    12.000000000000
         H           -2.227094015512    -1.456064225962    -0.440754917699     1.007825032230
         H           -2.645931015512    -0.099664225962    -1.484676917699     1.007825032230
         H           -3.230644015512     1.289010774038     0.527907082301     1.007825032230
         H           -4.204427015512    -0.187919225962     0.453357082301     1.007825032230
         H           -2.836954015512    -0.080547225962     1.576729082301     1.007825032230
         H           -0.723839015512     1.253606774038    -0.440922917699     1.007825032230
         H            0.151976084488    -1.644616325962    -0.008112917699     1.007825032230

  Basis Set: AUG-CC-PVTZ
    Blend: AUG-CC-PVTZ
  Basis Set: (AUG-CC-PVTZ AUX)
    Blend: AUG-CC-PVTZ-JKFIT
	 Reference Energy          =    -343.2853233334757874 [Eh]
	 Singles Energy            =      -0.0000000000000000 [Eh]
	 Same-Spin Energy          =      -0.3482763389189003 [Eh]
	 Opposite-Spin Energy      =      -1.1057194065506994 [Eh]
	 Correlation Energy        =      -1.4539957454695998 [Eh]
	 Total Energy              =    -344.7393190789454138 [Eh]

	 ================> DF-SCS-MP2 Energies <==================
	-----------------------------------------------------------
	 SCS Same-Spin Scale       =       0.3333333333333333 [-]
	 SCS Opposite-Spin Scale   =       1.2000000000000000 [-]
	 SCS Same-Spin Energy      =      -0.1160921129729667 [Eh]
	 SCS Opposite-Spin Energy  =      -1.3268632878608393 [Eh]
	 SCS Correlation Energy    =      -1.4429554008338061 [Eh]
	 SCS Total Energy          =    -344.7282787343095833 [Eh]
	-----------------------------------------------------------

  Dipole Moment: [D]
     X:    -9.5168      Y:    -1.1579      Z:    -0.5786     Total:     9.6044

*** Psi4 exiting successfully. Buy a developer a beer!
