                               Psi4 1.3.2 release

  ==> Input File <==

--------------------------------------------------------------------------
#psi4
#
memory 32 gb

molecule  {
-1 1
  O        1.8996640     1.2894670    -0.0585490
  O        2.6973380    -0.8133440     0.2844750
  C       -2.1007360    -0.3533330    -0.4966910
  C       -3.0415820     0.2042600     0.5765370
  C       -0.7068410     0.1811810    -0.3555730
  C        0.3877500    -0.5533880    -0.1062960
  C        1.7796670     0.0321010     0.0519970
  H       -2.0810980    -1.4485100    -0.4425170
  H       -2.4999350    -0.0921100    -1.4864390
  H       -3.0846480     1.2965650     0.5261450
  H       -4.0584310    -0.1803650     0.4515950
  H       -2.6909580    -0.0729930     1.5749670
  H       -0.5896653     1.1621838    -0.4347014
  H        0.3073520    -1.6376590    -0.0083210
units angstrom
no_reorient  #important for SAPT in psi4, default
symmetry c1  #important for SAPT in psi4, default
}

set PROPERTIES_ORIGIN ["COM"]
properties('MP2/aug-cc-pvtz', properties = ['dipole'])
--------------------------------------------------------------------------

    Molecular point group: c1
  Charge       = -1
  Multiplicity = 1
  Basis Set: AUG-CC-PVTZ
    Blend: AUG-CC-PVTZ
  Basis Set: (AUG-CC-PVTZ AUX)
    Blend: AUG-CC-PVTZ-JKFIT

    Orbital Energies [Eh]
    ---------------------

    Doubly Occupied:

       1A    -20.295231     2A    -20.291697     3A    -11.141816
       4A    -11.115849     5A    -11.113190     6A    -11.073771
       7A    -11.069324     8A     -1.161764     9A     -1.060982
      10A     -0.956235    11A     -0.864463    12A     -0.743634
      13A     -0.645566    14A     -0.554615    15A     -0.494443
      16A     -0.487515    17A     -0.447619    18A     -0.421770
      19A     -0.408785    20A     -0.382941    21A     -0.375518
      22A     -0.357996    23A     -0.357196    24A     -0.211090
      25A     -0.208936    26A     -0.204252    27A     -0.191127

  @DF-RHF Final Energy:  -343.28000059242498

   => Energetics <=

    Nuclear Repulsion Energy =            271.3184331401067197
    One-Electron Energy =               -1015.9222185486632952
    Two-Electron Energy =                 401.3237848161316492
    Total Energy =                       -343.2800005924249831
  Basis Set: (AUG-CC-PVTZ AUX)
    Blend: AUG-CC-PVTZ-RI
    Molecular point group: c1

    Geometry (in Angstrom), charge = -1, multiplicity = 1:

       Center              X                  Y                   Z               Mass
    ------------   -----------------  -----------------  -----------------  -----------------
         O            1.752908305669     1.281744240582    -0.056888110813    15.994914619570
         O            2.550582305669    -0.821066759418     0.286135889187    15.994914619570
         C           -2.247491694331    -0.361055759418    -0.495030110813    12.000000000000
         C           -3.188337694331     0.196537240582     0.578197889187    12.000000000000
         C           -0.853596694331     0.173458240582    -0.353912110813    12.000000000000
         C            0.240994305669    -0.561110759418    -0.104635110813    12.000000000000
         C            1.632911305669     0.024378240582     0.053657889187    12.000000000000
         H           -2.227853694331    -1.456232759418    -0.440856110813     1.007825032230
         H           -2.646690694331    -0.099832759418    -1.484778110813     1.007825032230
         H           -3.231403694331     1.288842240582     0.527805889187     1.007825032230
         H           -4.205186694331    -0.188087759418     0.453255889187     1.007825032230
         H           -2.837713694331    -0.080715759418     1.576627889187     1.007825032230
         H           -0.736420994331     1.154461040582    -0.433040510813     1.007825032230
         H            0.160596305669    -1.645381759418    -0.006660110813     1.007825032230

  Basis Set: AUG-CC-PVTZ
    Blend: AUG-CC-PVTZ
  Basis Set: (AUG-CC-PVTZ AUX)
    Blend: AUG-CC-PVTZ-JKFIT
	 Reference Energy          =    -343.2800005924249831 [Eh]
	 Singles Energy            =      -0.0000000000000000 [Eh]
	 Same-Spin Energy          =      -0.3478895201999938 [Eh]
	 Opposite-Spin Energy      =      -1.1050398393602348 [Eh]
	 Correlation Energy        =      -1.4529293595602284 [Eh]
	 Total Energy              =    -344.7329299519852270 [Eh]

	 ================> DF-SCS-MP2 Energies <==================
	-----------------------------------------------------------
	 SCS Same-Spin Scale       =       0.3333333333333333 [-]
	 SCS Opposite-Spin Scale   =       1.2000000000000000 [-]
	 SCS Same-Spin Energy      =      -0.1159631733999979 [Eh]
	 SCS Opposite-Spin Energy  =      -1.3260478072322817 [Eh]
	 SCS Correlation Energy    =      -1.4420109806322796 [Eh]
	 SCS Total Energy          =    -344.7220115730572729 [Eh]
	-----------------------------------------------------------

  Dipole Moment: [D]
     X:    -9.5293      Y:    -1.1361      Z:    -0.5830     Total:     9.6145

*** Psi4 exiting successfully. Buy a developer a beer!
