                               Psi4 1.3.2 release

  ==> Input File <==

--------------------------------------------------------------------------
#psi4
#
memory 32 gb

molecule  {
-1 1
  O        1.8996640     1.2894670    -0.0585490
  O        2.6973380    -0.8133440     0.2844750
  C       -2.1007360    -0.3533330    -0.4966910
  C       -3.0415820     0.2042600     0.5765370
  C       -0.7068410     0.1811810    -0.3555730
  C        0.3877500    -0.5533880    -0.1062960
  C        1.8070496    -0.0415843     0.0637995
  H       -2.0810980    -1.4485100    -0.4425170
  H       -2.4999350    -0.0921100    -1.4864390
  H       -3.0846480     1.2965650     0.5261450
  H       -4.0584310    -0.1803650     0.4515950
  H       -2.6909580    -0.0729930     1.5749670
  H       -0.5778430     1.2611610    -0.4426850
  H        0.3637568    -1.6395197     0.0007027
units angstrom
no_reorient  #important for SAPT in psi4, default
symmetry c1  #important for SAPT in psi4, default
}

set PROPERTIES_ORIGIN ["COM"]
properties('MP2/aug-cc-pvtz', properties = ['dipole'])
--------------------------------------------------------------------------

    Molecular point group: c1
  Charge       = -1
  Multiplicity = 1
  Basis Set: AUG-CC-PVTZ
    Blend: AUG-CC-PVTZ
  Basis Set: (AUG-CC-PVTZ AUX)
    Blend: AUG-CC-PVTZ-JKFIT

    Orbital Energies [Eh]
    ---------------------

    Doubly Occupied:

       1A    -20.313317     2A    -20.272796     3A    -11.139694
       4A    -11.115196     5A    -11.113573     6A    -11.086511
       7A    -11.069720     8A     -1.188837     9A     -1.038828
      10A     -0.952899    11A     -0.860273    12A     -0.743905
      13A     -0.637691    14A     -0.545391    15A     -0.495397
      16A     -0.484808    17A     -0.452393    18A     -0.421103
      19A     -0.408981    20A     -0.381970    21A     -0.376996
      22A     -0.365896    23A     -0.347429    24A     -0.214549
      25A     -0.209673    26A     -0.193792    27A     -0.181246

  @DF-RHF Final Energy:  -343.27554343654248

   => Energetics <=

    Nuclear Repulsion Energy =            270.7905263014148431
    One-Electron Energy =               -1014.9064124329152037
    Two-Electron Energy =                 400.8403426949578829
    Total Energy =                       -343.2755434365424776
  Basis Set: (AUG-CC-PVTZ AUX)
    Blend: AUG-CC-PVTZ-RI
    Molecular point group: c1

    Geometry (in Angstrom), charge = -1, multiplicity = 1:

       Center              X                  Y                   Z               Mass
    ------------   -----------------  -----------------  -----------------  -----------------
         O            1.748896454833     1.289683564128    -0.058328656107    15.994914619570
         O            2.546570454833    -0.813127435872     0.284695343893    15.994914619570
         C           -2.251503545167    -0.353116435872    -0.496470656107    12.000000000000
         C           -3.192349545167     0.204476564128     0.576757343893    12.000000000000
         C           -0.857608545167     0.181397564128    -0.355352656107    12.000000000000
         C            0.236982454833    -0.553171435872    -0.106075656107    12.000000000000
         C            1.656282054833    -0.041367735872     0.064019843893    12.000000000000
         H           -2.231865545167    -1.448293435872    -0.442296656107     1.007825032230
         H           -2.650702545167    -0.091893435872    -1.486218656107     1.007825032230
         H           -3.235415545167     1.296781564128     0.526365343893     1.007825032230
         H           -4.209198545167    -0.180148435872     0.451815343893     1.007825032230
         H           -2.841725545167    -0.072776435872     1.575187343893     1.007825032230
         H           -0.728610545167     1.261377564128    -0.442464656107     1.007825032230
         H            0.212989254833    -1.639303135872     0.000923043893     1.007825032230

  Basis Set: AUG-CC-PVTZ
    Blend: AUG-CC-PVTZ
  Basis Set: (AUG-CC-PVTZ AUX)
    Blend: AUG-CC-PVTZ-JKFIT
	 Reference Energy          =    -343.2755434365424776 [Eh]
	 Singles Energy            =      -0.0000000000000000 [Eh]
	 Same-Spin Energy          =      -0.3479628807568175 [Eh]
	 Opposite-Spin Energy      =      -1.1054596238354839 [Eh]
	 Correlation Energy        =      -1.4534225045923015 [Eh]
	 Total Energy              =    -344.7289659411347884 [Eh]

	 ================> DF-SCS-MP2 Energies <==================
	-----------------------------------------------------------
	 SCS Same-Spin Scale       =       0.3333333333333333 [-]
	 SCS Opposite-Spin Scale   =       1.2000000000000000 [-]
	 SCS Same-Spin Energy      =      -0.1159876269189392 [Eh]
	 SCS Opposite-Spin Energy  =      -1.3265515486025807 [Eh]
	 SCS Correlation Energy    =      -1.4425391755215200 [Eh]
	 SCS Total Energy          =    -344.7180826120639949 [Eh]
	-----------------------------------------------------------

  Dipole Moment: [D]
     X:    -9.2409      Y:    -1.9058      Z:    -0.4572     Total:     9.4464

*** Psi4 exiting successfully. Buy a developer a beer!
