                               Psi4 1.3.2 release

  ==> Input File <==

--------------------------------------------------------------------------
#psi4
#
memory 32 gb

molecule  {
-1 1
  O        1.8996640     1.2894670    -0.0585490
  O        2.6973380    -0.8133440     0.2844750
  C       -2.1007360    -0.3533330    -0.4966910
  C       -3.0415820     0.2042600     0.5765370
  C       -0.7068410     0.1811810    -0.3555730
  C        0.3877500    -0.5533880    -0.1062960
  C        1.7796670     0.0321010     0.0519970
  H       -2.0810980    -1.4485100    -0.4425170
  H       -2.4999350    -0.0921100    -1.4864390
  H       -3.0846480     1.2965650     0.5261450
  H       -4.0584310    -0.1803650     0.4515950
  H       -2.6909580    -0.0729930     1.5749670
  H       -0.5778430     1.2611610    -0.4426850
  H        0.1751269    -1.7876162    -0.0137380
units angstrom
no_reorient  #important for SAPT in psi4, default
symmetry c1  #important for SAPT in psi4, default
}

set PROPERTIES_ORIGIN ["COM"]
properties('MP2/aug-cc-pvtz', properties = ['dipole'])
--------------------------------------------------------------------------

    Molecular point group: c1
  Charge       = -1
  Multiplicity = 1
  Basis Set: AUG-CC-PVTZ
    Blend: AUG-CC-PVTZ
  Basis Set: (AUG-CC-PVTZ AUX)
    Blend: AUG-CC-PVTZ-JKFIT

    Orbital Energies [Eh]
    ---------------------

    Doubly Occupied:

       1A    -20.296381     2A    -20.295722     3A    -11.147511
       4A    -11.115994     5A    -11.114207     6A    -11.089791
       7A    -11.086535     8A     -1.164281     9A     -1.063418
      10A     -0.954490    11A     -0.860591    12A     -0.741783
      13A     -0.627786    14A     -0.547937    15A     -0.495030
      16A     -0.473744    17A     -0.447499    18A     -0.414755
      19A     -0.407195    20A     -0.380666    21A     -0.376378
      22A     -0.360564    23A     -0.336281    24A     -0.214336
      25A     -0.211136    26A     -0.206658    27A     -0.193318

  @DF-RHF Final Energy:  -343.26875986890462

   => Energetics <=

    Nuclear Repulsion Energy =            270.1616303469367040
    One-Electron Energy =               -1013.6128082179583316
    Two-Electron Energy =                 400.1824180021170037
    Total Energy =                       -343.2687598689046240
  Basis Set: (AUG-CC-PVTZ AUX)
    Blend: AUG-CC-PVTZ-RI
    Molecular point group: c1

    Geometry (in Angstrom), charge = -1, multiplicity = 1:

       Center              X                  Y                   Z               Mass
    ------------   -----------------  -----------------  -----------------  -----------------
         O            1.754133460299     1.282262985853    -0.056751753460    15.994914619570
         O            2.551807460299    -0.820548014147     0.286272246540    15.994914619570
         C           -2.246266539701    -0.360537014147    -0.494893753460    12.000000000000
         C           -3.187112539701     0.197055985853     0.578334246540    12.000000000000
         C           -0.852371539701     0.173976985853    -0.353775753460    12.000000000000
         C            0.242219460299    -0.560592014147    -0.104498753460    12.000000000000
         C            1.634136460299     0.024896985853     0.053794246540    12.000000000000
         H           -2.226628539701    -1.455714014147    -0.440719753460     1.007825032230
         H           -2.645465539701    -0.099314014147    -1.484641753460     1.007825032230
         H           -3.230178539701     1.289360985853     0.527942246540     1.007825032230
         H           -4.203961539701    -0.187569014147     0.453392246540     1.007825032230
         H           -2.836488539701    -0.080197014147     1.576764246540     1.007825032230
         H           -0.723373539701     1.253956985853    -0.440887753460     1.007825032230
         H            0.029596360299    -1.794820214147    -0.011940753460     1.007825032230

  Basis Set: AUG-CC-PVTZ
    Blend: AUG-CC-PVTZ
  Basis Set: (AUG-CC-PVTZ AUX)
    Blend: AUG-CC-PVTZ-JKFIT
	 Reference Energy          =    -343.2687598689046240 [Eh]
	 Singles Energy            =      -0.0000000000000000 [Eh]
	 Same-Spin Energy          =      -0.3487814713047507 [Eh]
	 Opposite-Spin Energy      =      -1.1075042525859617 [Eh]
	 Correlation Energy        =      -1.4562857238907125 [Eh]
	 Total Energy              =    -344.7250455927953112 [Eh]

	 ================> DF-SCS-MP2 Energies <==================
	-----------------------------------------------------------
	 SCS Same-Spin Scale       =       0.3333333333333333 [-]
	 SCS Opposite-Spin Scale   =       1.2000000000000000 [-]
	 SCS Same-Spin Energy      =      -0.1162604904349169 [Eh]
	 SCS Opposite-Spin Energy  =      -1.3290051031031540 [Eh]
	 SCS Correlation Energy    =      -1.4452655935380709 [Eh]
	 SCS Total Energy          =    -344.7140254624426916 [Eh]
	-----------------------------------------------------------

  Dipole Moment: [D]
     X:    -9.4391      Y:    -0.9568      Z:    -0.5869     Total:     9.5056

*** Psi4 exiting successfully. Buy a developer a beer!
