                               Psi4 1.3.2 release

  ==> Input File <==

--------------------------------------------------------------------------
#psi4
#
memory 32 gb

molecule  {
-1 1
  O        1.8996640     1.2894670    -0.0585490
  O        2.6973380    -0.8133440     0.2844750
  C       -2.1007360    -0.3533330    -0.4966910
  C       -3.0240298     0.2781022     0.5505614
  C       -0.7068410     0.1811810    -0.3555730
  C        0.3877500    -0.5533880    -0.1062960
  C        1.7796670     0.0321010     0.0519970
  H       -2.0440246    -1.4485089    -0.4863596
  H       -2.4999350    -0.0921100    -1.4864390
  H       -3.0846480     1.2965650     0.5261450
  H       -4.0584310    -0.1803650     0.4515950
  H       -2.6909580    -0.0729930     1.5749670
  H       -0.5778430     1.2611610    -0.4426850
  H        0.3073520    -1.6376590    -0.0083210
units angstrom
no_reorient  #important for SAPT in psi4, default
symmetry c1  #important for SAPT in psi4, default
}

set PROPERTIES_ORIGIN ["COM"]
properties('MP2/aug-cc-pvtz', properties = ['dipole'])
--------------------------------------------------------------------------

    Molecular point group: c1
  Charge       = -1
  Multiplicity = 1
  Basis Set: AUG-CC-PVTZ
    Blend: AUG-CC-PVTZ
  Basis Set: (AUG-CC-PVTZ AUX)
    Blend: AUG-CC-PVTZ-JKFIT

    Orbital Energies [Eh]
    ---------------------

    Doubly Occupied:

       1A    -20.295075     2A    -20.291404     3A    -11.141751
       4A    -11.117998     5A    -11.114687     6A    -11.084881
       7A    -11.069353     8A     -1.161566     9A     -1.060791
      10A     -0.955307    11A     -0.862226    12A     -0.745976
      13A     -0.633614    14A     -0.549180    15A     -0.497618
      16A     -0.483166    17A     -0.450450    18A     -0.419723
      19A     -0.411084    20A     -0.382316    21A     -0.369711
      22A     -0.357546    23A     -0.347884    24A     -0.210908
      25A     -0.208780    26A     -0.203811    27A     -0.190991

  @DF-RHF Final Energy:  -343.27715091805635

   => Energetics <=

    Nuclear Repulsion Energy =            271.0120871957504392
    One-Electron Energy =               -1015.3428760238513178
    Two-Electron Energy =                 401.0536379100444719
    Total Energy =                       -343.2771509180563498
  Basis Set: (AUG-CC-PVTZ AUX)
    Blend: AUG-CC-PVTZ-RI
    Molecular point group: c1

    Geometry (in Angstrom), charge = -1, multiplicity = 1:

       Center              X                  Y                   Z               Mass
    ------------   -----------------  -----------------  -----------------  -----------------
         O            1.750284187860     1.271790551396    -0.053213615432    15.994914619570
         O            2.547958187860    -0.831020448604     0.289810384568    15.994914619570
         C           -2.250115812140    -0.371009448604    -0.491355615432    12.000000000000
         C           -3.173409612140     0.260425751396     0.555896784568    12.000000000000
         C           -0.856220812140     0.163504551396    -0.350237615432    12.000000000000
         C            0.238370187860    -0.571064448604    -0.100960615432    12.000000000000
         C            1.630287187860     0.014424551396     0.057332384568    12.000000000000
         H           -2.193404412140    -1.466185348604    -0.481024215432     1.007825032230
         H           -2.649314812140    -0.109786448604    -1.481103615432     1.007825032230
         H           -3.234027812140     1.278888551396     0.531480384568     1.007825032230
         H           -4.207810812140    -0.198041448604     0.456930384568     1.007825032230
         H           -2.840337812140    -0.090669448604     1.580302384568     1.007825032230
         H           -0.727222812140     1.243484551396    -0.437349615432     1.007825032230
         H            0.157972187860    -1.655335448604    -0.002985615432     1.007825032230

  Basis Set: AUG-CC-PVTZ
    Blend: AUG-CC-PVTZ
  Basis Set: (AUG-CC-PVTZ AUX)
    Blend: AUG-CC-PVTZ-JKFIT
	 Reference Energy          =    -343.2771509180563498 [Eh]
	 Singles Energy            =      -0.0000000000000000 [Eh]
	 Same-Spin Energy          =      -0.3483312045820951 [Eh]
	 Opposite-Spin Energy      =      -1.1059552462308586 [Eh]
	 Correlation Energy        =      -1.4542864508129538 [Eh]
	 Total Energy              =    -344.7314373688693081 [Eh]

	 ================> DF-SCS-MP2 Energies <==================
	-----------------------------------------------------------
	 SCS Same-Spin Scale       =       0.3333333333333333 [-]
	 SCS Opposite-Spin Scale   =       1.2000000000000000 [-]
	 SCS Same-Spin Energy      =      -0.1161104015273650 [Eh]
	 SCS Opposite-Spin Energy  =      -1.3271462954770303 [Eh]
	 SCS Correlation Energy    =      -1.4432566970043954 [Eh]
	 SCS Total Energy          =    -344.7204076150607648 [Eh]
	-----------------------------------------------------------

  Dipole Moment: [D]
     X:    -9.4961      Y:    -1.0725      Z:    -0.6160     Total:     9.5763

*** Psi4 exiting successfully. Buy a developer a beer!
