                               Psi4 1.3.2 release

  ==> Input File <==

--------------------------------------------------------------------------
#psi4
#
memory 32 gb

molecule  {
-1 1
  O        1.8996640     1.2894670    -0.0585490
  O        2.6973380    -0.8133440     0.2844750
  C       -2.0821406    -0.4015118    -0.4881740
  C       -3.0415820     0.2042600     0.5765370
  C       -0.7068410     0.1811810    -0.3555730
  C        0.3608721    -0.5917288    -0.1056544
  C        1.7796670     0.0321010     0.0519970
  H       -2.0810980    -1.4485100    -0.4425170
  H       -2.4999350    -0.0921100    -1.4864390
  H       -3.0846480     1.2965650     0.5261450
  H       -4.0584310    -0.1803650     0.4515950
  H       -2.6909580    -0.0729930     1.5749670
  H       -0.5778430     1.2611610    -0.4426850
  H        0.3073520    -1.6376590    -0.0083210
units angstrom
no_reorient  #important for SAPT in psi4, default
symmetry c1  #important for SAPT in psi4, default
}

set PROPERTIES_ORIGIN ["COM"]
properties('MP2/aug-cc-pvtz', properties = ['dipole'])
--------------------------------------------------------------------------

    Molecular point group: c1
  Charge       = -1
  Multiplicity = 1
  Basis Set: AUG-CC-PVTZ
    Blend: AUG-CC-PVTZ
  Basis Set: (AUG-CC-PVTZ AUX)
    Blend: AUG-CC-PVTZ-JKFIT

    Orbital Energies [Eh]
    ---------------------

    Doubly Occupied:

       1A    -20.294991     2A    -20.293004     3A    -11.143991
       4A    -11.115408     5A    -11.111831     6A    -11.085103
       7A    -11.066945     8A     -1.160677     9A     -1.060843
      10A     -0.952421    11A     -0.858972    12A     -0.741981
      13A     -0.633738    14A     -0.546403    15A     -0.494658
      16A     -0.486259    17A     -0.446098    18A     -0.420198
      19A     -0.401594    20A     -0.386999    21A     -0.372826
      22A     -0.360756    23A     -0.355481    24A     -0.209866
      25A     -0.206134    26A     -0.203307    27A     -0.191771

  @DF-RHF Final Energy:  -343.28091173835048

   => Energetics <=

    Nuclear Repulsion Energy =            270.4040617907710953
    One-Electron Energy =               -1014.1654388764939085
    Two-Electron Energy =                 400.4804653473723874
    Total Energy =                       -343.2809117383504827
  Basis Set: (AUG-CC-PVTZ AUX)
    Blend: AUG-CC-PVTZ-RI
    Molecular point group: c1

    Geometry (in Angstrom), charge = -1, multiplicity = 1:

       Center              X                  Y                   Z               Mass
    ------------   -----------------  -----------------  -----------------  -----------------
         O            1.753791495527     1.291219602772    -0.057916507349    15.994914619570
         O            2.551465495527    -0.811591397228     0.285107492651    15.994914619570
         C           -2.228013104473    -0.399759197228    -0.487541507349    12.000000000000
         C           -3.187454504473     0.206012602772     0.577169492651    12.000000000000
         C           -0.852713504473     0.182933602772    -0.354940507349    12.000000000000
         C            0.214999595527    -0.589976197228    -0.105021907349    12.000000000000
         C            1.633794495527     0.033853602772     0.052629492651    12.000000000000
         H           -2.226970504473    -1.446757397228    -0.441884507349     1.007825032230
         H           -2.645807504473    -0.090357397228    -1.485806507349     1.007825032230
         H           -3.230520504473     1.298317602772     0.526777492651     1.007825032230
         H           -4.204303504473    -0.178612397228     0.452227492651     1.007825032230
         H           -2.836830504473    -0.071240397228     1.575599492651     1.007825032230
         H           -0.723715504473     1.262913602772    -0.442052507349     1.007825032230
         H            0.161479495527    -1.635906397228    -0.007688507349     1.007825032230

  Basis Set: AUG-CC-PVTZ
    Blend: AUG-CC-PVTZ
  Basis Set: (AUG-CC-PVTZ AUX)
    Blend: AUG-CC-PVTZ-JKFIT
	 Reference Energy          =    -343.2809117383504827 [Eh]
	 Singles Energy            =      -0.0000000000000000 [Eh]
	 Same-Spin Energy          =      -0.3479114836302534 [Eh]
	 Opposite-Spin Energy      =      -1.1052584562121381 [Eh]
	 Correlation Energy        =      -1.4531699398423914 [Eh]
	 Total Energy              =    -344.7340816781928652 [Eh]

	 ================> DF-SCS-MP2 Energies <==================
	-----------------------------------------------------------
	 SCS Same-Spin Scale       =       0.3333333333333333 [-]
	 SCS Opposite-Spin Scale   =       1.2000000000000000 [-]
	 SCS Same-Spin Energy      =      -0.1159704945434178 [Eh]
	 SCS Opposite-Spin Energy  =      -1.3263101474545658 [Eh]
	 SCS Correlation Energy    =      -1.4422806419979834 [Eh]
	 SCS Total Energy          =    -344.7231923803484506 [Eh]
	-----------------------------------------------------------

  Dipole Moment: [D]
     X:    -9.4522      Y:    -1.2324      Z:    -0.5657     Total:     9.5489

*** Psi4 exiting successfully. Buy a developer a beer!
