                               Psi4 1.3.2 release

  ==> Input File <==

--------------------------------------------------------------------------
#psi4
#
memory 32 gb

molecule  {
-1 1
  O        1.8996640     1.2894670    -0.0585490
  O        2.6973380    -0.8133440     0.2844750
  C       -2.1007360    -0.3533330    -0.4966910
  C       -3.0415820     0.2042600     0.5765370
  C       -0.7068410     0.1811810    -0.3555730
  C        0.3877500    -0.5533880    -0.1062960
  C        1.7592873     0.0803453     0.0438856
  H       -2.0810980    -1.4485100    -0.4425170
  H       -2.4999350    -0.0921100    -1.4864390
  H       -3.0846480     1.2965650     0.5261450
  H       -4.0584310    -0.1803650     0.4515950
  H       -2.6909580    -0.0729930     1.5749670
  H       -0.5778430     1.2611610    -0.4426850
  H        0.2698617    -1.6347668    -0.0144875
units angstrom
no_reorient  #important for SAPT in psi4, default
symmetry c1  #important for SAPT in psi4, default
}

set PROPERTIES_ORIGIN ["COM"]
properties('MP2/aug-cc-pvtz', properties = ['dipole'])
--------------------------------------------------------------------------

    Molecular point group: c1
  Charge       = -1
  Multiplicity = 1
  Basis Set: AUG-CC-PVTZ
    Blend: AUG-CC-PVTZ
  Basis Set: (AUG-CC-PVTZ AUX)
    Blend: AUG-CC-PVTZ-JKFIT

    Orbital Energies [Eh]
    ---------------------

    Doubly Occupied:

       1A    -20.304282     2A    -20.283394     3A    -11.142418
       4A    -11.116244     5A    -11.114368     6A    -11.084961
       7A    -11.070629     8A     -1.174386     9A     -1.050334
      10A     -0.955185    11A     -0.863945    12A     -0.744087
      13A     -0.630390    14A     -0.552531    15A     -0.495633
      16A     -0.486373    17A     -0.450317    18A     -0.417511
      19A     -0.409619    20A     -0.384059    21A     -0.374585
      22A     -0.362008    23A     -0.351281    24A     -0.214724
      25A     -0.206430    26A     -0.202314    27A     -0.187899

  @DF-RHF Final Energy:  -343.28108416865916

   => Energetics <=

    Nuclear Repulsion Energy =            271.0028267813006551
    One-Electron Energy =               -1015.3080072452983131
    Two-Electron Energy =                 401.0240962953384951
    Total Energy =                       -343.2810841686591630
  Basis Set: (AUG-CC-PVTZ AUX)
    Blend: AUG-CC-PVTZ-RI
    Molecular point group: c1

    Geometry (in Angstrom), charge = -1, multiplicity = 1:

       Center              X                  Y                   Z               Mass
    ------------   -----------------  -----------------  -----------------  -----------------
         O            1.755638643726     1.274862511537    -0.055761369730    15.994914619570
         O            2.553312643726    -0.827948488463     0.287262630270    15.994914619570
         C           -2.244761356274    -0.367937488463    -0.493903369730    12.000000000000
         C           -3.185607356274     0.189655511537     0.579324630270    12.000000000000
         C           -0.850866356274     0.166576511537    -0.352785369730    12.000000000000
         C            0.243724643726    -0.567992488463    -0.103508369730    12.000000000000
         C            1.615261943726     0.065740811537     0.046673230270    12.000000000000
         H           -2.225123356274    -1.463114488463    -0.439729369730     1.007825032230
         H           -2.643960356274    -0.106714488463    -1.483651369730     1.007825032230
         H           -3.228673356274     1.281960511537     0.528932630270     1.007825032230
         H           -4.202456356274    -0.194969488463     0.454382630270     1.007825032230
         H           -2.834983356274    -0.087597488463     1.577754630270     1.007825032230
         H           -0.721868356274     1.246556511537    -0.439897369730     1.007825032230
         H            0.125836343726    -1.649371288463    -0.011699869730     1.007825032230

  Basis Set: AUG-CC-PVTZ
    Blend: AUG-CC-PVTZ
  Basis Set: (AUG-CC-PVTZ AUX)
    Blend: AUG-CC-PVTZ-JKFIT
	 Reference Energy          =    -343.2810841686591630 [Eh]
	 Singles Energy            =      -0.0000000000000000 [Eh]
	 Same-Spin Energy          =      -0.3483263666596739 [Eh]
	 Opposite-Spin Energy      =      -1.1058154873350914 [Eh]
	 Correlation Energy        =      -1.4541418539947653 [Eh]
	 Total Energy              =    -344.7352260226539329 [Eh]

	 ================> DF-SCS-MP2 Energies <==================
	-----------------------------------------------------------
	 SCS Same-Spin Scale       =       0.3333333333333333 [-]
	 SCS Opposite-Spin Scale   =       1.2000000000000000 [-]
	 SCS Same-Spin Energy      =      -0.1161087888865580 [Eh]
	 SCS Opposite-Spin Energy  =      -1.3269785848021096 [Eh]
	 SCS Correlation Energy    =      -1.4430873736886676 [Eh]
	 SCS Total Energy          =    -344.7241715423478468 [Eh]
	-----------------------------------------------------------

  Dipole Moment: [D]
     X:    -9.7163      Y:    -0.6568      Z:    -0.6631     Total:     9.7610

*** Psi4 exiting successfully. Buy a developer a beer!
