                               Psi4 1.3.2 release

  ==> Input File <==

--------------------------------------------------------------------------
#psi4
#
memory 32 gb

molecule  {
-1 1
  O        1.8996640     1.2894670    -0.0585490
  O        2.6973380    -0.8133440     0.2844750
  C       -2.1007360    -0.3533330    -0.4966910
  C       -3.0415820     0.2042600     0.5765370
  C       -0.7444545     0.1218645    -0.3553082
  C        0.3877500    -0.5533880    -0.1062960
  C        1.8070178    -0.0415634     0.0640019
  H       -2.0810980    -1.4485100    -0.4425170
  H       -2.4999350    -0.0921100    -1.4864390
  H       -3.0846480     1.2965650     0.5261450
  H       -4.0584310    -0.1803650     0.4515950
  H       -2.6909580    -0.0729930     1.5749670
  H       -0.5778430     1.2611610    -0.4426850
  H        0.3073520    -1.6376590    -0.0083210
units angstrom
no_reorient  #important for SAPT in psi4, default
symmetry c1  #important for SAPT in psi4, default
}

set PROPERTIES_ORIGIN ["COM"]
properties('MP2/aug-cc-pvtz', properties = ['dipole'])
--------------------------------------------------------------------------

    Molecular point group: c1
  Charge       = -1
  Multiplicity = 1
  Basis Set: AUG-CC-PVTZ
    Blend: AUG-CC-PVTZ
  Basis Set: (AUG-CC-PVTZ AUX)
    Blend: AUG-CC-PVTZ-JKFIT

    Orbital Energies [Eh]
    ---------------------

    Doubly Occupied:

       1A    -20.314480     2A    -20.274707     3A    -11.143182
       4A    -11.116469     5A    -11.112359     6A    -11.087851
       7A    -11.070440     8A     -1.189964     9A     -1.040132
      10A     -0.962150    11A     -0.860516    12A     -0.750991
      13A     -0.630521    14A     -0.547579    15A     -0.501820
      16A     -0.483083    17A     -0.453492    18A     -0.419629
      19A     -0.412163    20A     -0.388668    21A     -0.381295
      22A     -0.366886    23A     -0.329662    24A     -0.217297
      25A     -0.208989    26A     -0.195699    27A     -0.182313

  @DF-RHF Final Energy:  -343.26904787626052

   => Energetics <=

    Nuclear Repulsion Energy =            271.0349522693321660
    One-Electron Energy =               -1015.3233285060467779
    Two-Electron Energy =                 401.0193283604540966
    Total Energy =                       -343.2690478762605153
  Basis Set: (AUG-CC-PVTZ AUX)
    Blend: AUG-CC-PVTZ-RI
    Molecular point group: c1

    Geometry (in Angstrom), charge = -1, multiplicity = 1:

       Center              X                  Y                   Z               Mass
    ------------   -----------------  -----------------  -----------------  -----------------
         O            1.754031411675     1.296848739291    -0.058293440552    15.994914619570
         O            2.551705411675    -0.805962260709     0.284730559448    15.994914619570
         C           -2.246368588325    -0.345951260709    -0.496435440552    12.000000000000
         C           -3.187214588325     0.211641739291     0.576792559448    12.000000000000
         C           -0.890087088325     0.129246239291    -0.355052640552    12.000000000000
         C            0.242117411675    -0.546006260709    -0.106040440552    12.000000000000
         C            1.661385211675    -0.034181660709     0.064257459448    12.000000000000
         H           -2.226730588325    -1.441128260709    -0.442261440552     1.007825032230
         H           -2.645567588325    -0.084728260709    -1.486183440552     1.007825032230
         H           -3.230280588325     1.303946739291     0.526400559448     1.007825032230
         H           -4.204063588325    -0.172983260709     0.451850559448     1.007825032230
         H           -2.836590588325    -0.065611260709     1.575222559448     1.007825032230
         H           -0.723475588325     1.268542739291    -0.442429440552     1.007825032230
         H            0.161719411675    -1.630277260709    -0.008065440552     1.007825032230

  Basis Set: AUG-CC-PVTZ
    Blend: AUG-CC-PVTZ
  Basis Set: (AUG-CC-PVTZ AUX)
    Blend: AUG-CC-PVTZ-JKFIT
	 Reference Energy          =    -343.2690478762605153 [Eh]
	 Singles Energy            =      -0.0000000000000000 [Eh]
	 Same-Spin Energy          =      -0.3488891269031053 [Eh]
	 Opposite-Spin Energy      =      -1.1066868362154778 [Eh]
	 Correlation Energy        =      -1.4555759631185832 [Eh]
	 Total Energy              =    -344.7246238393790918 [Eh]

	 ================> DF-SCS-MP2 Energies <==================
	-----------------------------------------------------------
	 SCS Same-Spin Scale       =       0.3333333333333333 [-]
	 SCS Opposite-Spin Scale   =       1.2000000000000000 [-]
	 SCS Same-Spin Energy      =      -0.1162963756343684 [Eh]
	 SCS Opposite-Spin Energy  =      -1.3280242034585734 [Eh]
	 SCS Correlation Energy    =      -1.4443205790929419 [Eh]
	 SCS Total Energy          =    -344.7133684553534749 [Eh]
	-----------------------------------------------------------

  Dipole Moment: [D]
     X:    -9.2627      Y:    -1.9362      Z:    -0.4510     Total:     9.4737

*** Psi4 exiting successfully. Buy a developer a beer!
