                               Psi4 1.3.2 release

  ==> Input File <==

--------------------------------------------------------------------------
#psi4
#
memory 32 gb

molecule  {
-1 1
  O        1.8996640     1.2894670    -0.0585490
  O        2.6973380    -0.8133440     0.2844750
  C       -2.1007360    -0.3533330    -0.4966910
  C       -3.0415820     0.2042600     0.5765370
  C       -0.7068410     0.1811810    -0.3555730
  C        0.3877500    -0.5533880    -0.1062960
  C        1.7892224     0.0077077     0.0559810
  H       -2.0810980    -1.4485100    -0.4425170
  H       -2.4999350    -0.0921100    -1.4864390
  H       -3.0846480     1.2965650     0.5261450
  H       -4.0584310    -0.1803650     0.4515950
  H       -2.6909580    -0.0729930     1.5749670
  H       -0.5778430     1.2611610    -0.4426850
  H        0.3261367    -1.6386099    -0.0052820
units angstrom
no_reorient  #important for SAPT in psi4, default
symmetry c1  #important for SAPT in psi4, default
}

set PROPERTIES_ORIGIN ["COM"]
properties('MP2/aug-cc-pvtz', properties = ['dipole'])
--------------------------------------------------------------------------

    Molecular point group: c1
  Charge       = -1
  Multiplicity = 1
  Basis Set: AUG-CC-PVTZ
    Blend: AUG-CC-PVTZ
  Basis Set: (AUG-CC-PVTZ AUX)
    Blend: AUG-CC-PVTZ-JKFIT

    Orbital Energies [Eh]
    ---------------------

    Doubly Occupied:

       1A    -20.301360     2A    -20.285325     3A    -11.141445
       4A    -11.115558     5A    -11.113836     6A    -11.085715
       7A    -11.069835     8A     -1.165556     9A     -1.057884
      10A     -0.953783    11A     -0.861625    12A     -0.743772
      13A     -0.634421    14A     -0.547519    15A     -0.494608
      16A     -0.485653    17A     -0.446446    18A     -0.419985
      19A     -0.408814    20A     -0.382396    21A     -0.376520
      22A     -0.358779    23A     -0.347898    24A     -0.213762
      25A     -0.205953    26A     -0.204771    27A     -0.189212

  @DF-RHF Final Energy:  -343.28464872452940

   => Energetics <=

    Nuclear Repulsion Energy =            270.8105333492459295
    One-Electron Energy =               -1014.9654940069339091
    Two-Electron Energy =                 400.8703119331585754
    Total Energy =                       -343.2846487245294043
  Basis Set: (AUG-CC-PVTZ AUX)
    Blend: AUG-CC-PVTZ-RI
    Molecular point group: c1

    Geometry (in Angstrom), charge = -1, multiplicity = 1:

       Center              X                  Y                   Z               Mass
    ------------   -----------------  -----------------  -----------------  -----------------
         O            1.751439156475     1.283702209339    -0.057320488817    15.994914619570
         O            2.549113156475    -0.819108790661     0.285703511183    15.994914619570
         C           -2.248960843525    -0.359097790661    -0.495462488817    12.000000000000
         C           -3.189806843525     0.198495209339     0.577765511183    12.000000000000
         C           -0.855065843525     0.175416209339    -0.354344488817    12.000000000000
         C            0.239525156475    -0.559152790661    -0.105067488817    12.000000000000
         C            1.640997556475     0.001942909339     0.057209511183    12.000000000000
         H           -2.229322843525    -1.454274790661    -0.441288488817     1.007825032230
         H           -2.648159843525    -0.097874790661    -1.485210488817     1.007825032230
         H           -3.232872843525     1.290800209339     0.527373511183     1.007825032230
         H           -4.206655843525    -0.186129790661     0.452823511183     1.007825032230
         H           -2.839182843525    -0.078757790661     1.576195511183     1.007825032230
         H           -0.726067843525     1.255396209339    -0.441456488817     1.007825032230
         H            0.177911856475    -1.644374690661    -0.004053488817     1.007825032230

  Basis Set: AUG-CC-PVTZ
    Blend: AUG-CC-PVTZ
  Basis Set: (AUG-CC-PVTZ AUX)
    Blend: AUG-CC-PVTZ-JKFIT
	 Reference Energy          =    -343.2846487245294043 [Eh]
	 Singles Energy            =      -0.0000000000000000 [Eh]
	 Same-Spin Energy          =      -0.3480672054236634 [Eh]
	 Opposite-Spin Energy      =      -1.1054884255583080 [Eh]
	 Correlation Energy        =      -1.4535556309819713 [Eh]
	 Total Energy              =    -344.7382043555113569 [Eh]

	 ================> DF-SCS-MP2 Energies <==================
	-----------------------------------------------------------
	 SCS Same-Spin Scale       =       0.3333333333333333 [-]
	 SCS Opposite-Spin Scale   =       1.2000000000000000 [-]
	 SCS Same-Spin Energy      =      -0.1160224018078878 [Eh]
	 SCS Opposite-Spin Energy  =      -1.3265861106699695 [Eh]
	 SCS Correlation Energy    =      -1.4426085124778572 [Eh]
	 SCS Total Energy          =    -344.7272572370072794 [Eh]
	-----------------------------------------------------------

  Dipole Moment: [D]
     X:    -9.4162      Y:    -1.4024      Z:    -0.5381     Total:     9.5352

*** Psi4 exiting successfully. Buy a developer a beer!
