                               Psi4 1.3.2 release

  ==> Input File <==

--------------------------------------------------------------------------
#psi4
#
memory 32 gb

molecule  {
-1 1
  O        1.8996640     1.2894670    -0.0585490
  O        2.6973380    -0.8133440     0.2844750
  C       -2.1007360    -0.3533330    -0.4966910
  C       -3.0415820     0.2042600     0.5765370
  C       -0.7161903     0.2055199    -0.3578410
  C        0.3877500    -0.5533880    -0.1062960
  C        1.7796670     0.0321010     0.0519970
  H       -2.1001031    -1.4487951    -0.4447725
  H       -2.4999350    -0.0921100    -1.4864390
  H       -3.0846480     1.2965650     0.5261450
  H       -4.0584310    -0.1803650     0.4515950
  H       -2.6909580    -0.0729930     1.5749670
  H       -0.5778430     1.2611610    -0.4426850
  H        0.3073520    -1.6376590    -0.0083210
units angstrom
no_reorient  #important for SAPT in psi4, default
symmetry c1  #important for SAPT in psi4, default
}

set PROPERTIES_ORIGIN ["COM"]
properties('MP2/aug-cc-pvtz', properties = ['dipole'])
--------------------------------------------------------------------------

    Molecular point group: c1
  Charge       = -1
  Multiplicity = 1
  Basis Set: AUG-CC-PVTZ
    Blend: AUG-CC-PVTZ
  Basis Set: (AUG-CC-PVTZ AUX)
    Blend: AUG-CC-PVTZ-JKFIT

    Orbital Energies [Eh]
    ---------------------

    Doubly Occupied:

       1A    -20.295322     2A    -20.291513     3A    -11.141756
       4A    -11.115304     5A    -11.114053     6A    -11.086893
       7A    -11.073342     8A     -1.161733     9A     -1.060980
      10A     -0.953408    11A     -0.858768    12A     -0.742803
      13A     -0.637257    14A     -0.548110    15A     -0.493513
      16A     -0.487023    17A     -0.445970    18A     -0.418988
      19A     -0.408341    20A     -0.382731    21A     -0.373249
      22A     -0.357692    23A     -0.356204    24A     -0.210919
      25A     -0.208959    26A     -0.200037    27A     -0.191038

  @DF-RHF Final Energy:  -343.28394848309085

   => Energetics <=

    Nuclear Repulsion Energy =            270.6197762024088433
    One-Electron Energy =               -1014.5756366453855435
    Two-Electron Energy =                 400.6719119598858470
    Total Energy =                       -343.2839484830908532
  Basis Set: (AUG-CC-PVTZ AUX)
    Blend: AUG-CC-PVTZ-RI
    Molecular point group: c1

    Geometry (in Angstrom), charge = -1, multiplicity = 1:

       Center              X                  Y                   Z               Mass
    ------------   -----------------  -----------------  -----------------  -----------------
         O            1.754114132138     1.277791161351    -0.056509137910    15.994914619570
         O            2.551788132138    -0.825019838649     0.286514862090    15.994914619570
         C           -2.246285867862    -0.365008838649    -0.494651137910    12.000000000000
         C           -3.187131867862     0.192584161351     0.578576862090    12.000000000000
         C           -0.861740167862     0.193844061351    -0.355801137910    12.000000000000
         C            0.242200132138    -0.565063838649    -0.104256137910    12.000000000000
         C            1.634117132138     0.020425161351     0.054036862090    12.000000000000
         H           -2.245652967862    -1.460470938649    -0.442732637910     1.007825032230
         H           -2.645484867862    -0.103785838649    -1.484399137910     1.007825032230
         H           -3.230197867862     1.284889161351     0.528184862090     1.007825032230
         H           -4.203980867862    -0.192040838649     0.453634862090     1.007825032230
         H           -2.836507867862    -0.084668838649     1.577006862090     1.007825032230
         H           -0.723392867862     1.249485161351    -0.440645137910     1.007825032230
         H            0.161802132138    -1.649334838649    -0.006281137910     1.007825032230

  Basis Set: AUG-CC-PVTZ
    Blend: AUG-CC-PVTZ
  Basis Set: (AUG-CC-PVTZ AUX)
    Blend: AUG-CC-PVTZ-JKFIT
	 Reference Energy          =    -343.2839484830908532 [Eh]
	 Singles Energy            =      -0.0000000000000000 [Eh]
	 Same-Spin Energy          =      -0.3482856360194146 [Eh]
	 Opposite-Spin Energy      =      -1.1060252960755932 [Eh]
	 Correlation Energy        =      -1.4543109320950078 [Eh]
	 Total Energy              =    -344.7382594151858370 [Eh]

	 ================> DF-SCS-MP2 Energies <==================
	-----------------------------------------------------------
	 SCS Same-Spin Scale       =       0.3333333333333333 [-]
	 SCS Opposite-Spin Scale   =       1.2000000000000000 [-]
	 SCS Same-Spin Energy      =      -0.1160952120064715 [Eh]
	 SCS Opposite-Spin Energy  =      -1.3272303552907119 [Eh]
	 SCS Correlation Energy    =      -1.4433255672971834 [Eh]
	 SCS Total Energy          =    -344.7272740503880186 [Eh]
	-----------------------------------------------------------

  Dipole Moment: [D]
     X:    -9.5093      Y:    -1.1455      Z:    -0.5872     Total:     9.5960

*** Psi4 exiting successfully. Buy a developer a beer!
