                               Psi4 1.3.2 release

  ==> Input File <==

--------------------------------------------------------------------------
#psi4
#
memory 32 gb

molecule  {
-1 1
  O        1.8996640     1.2894670    -0.0585490
  O        2.6973380    -0.8133440     0.2844750
  C       -2.0962455    -0.3654411    -0.4945775
  C       -3.0415820     0.2042600     0.5765370
  C       -0.7068410     0.1811810    -0.3555730
  C        0.3811543    -0.5630589    -0.1061071
  C        1.7796670     0.0321010     0.0519970
  H       -2.0810980    -1.4485100    -0.4425170
  H       -2.4999350    -0.0921100    -1.4864390
  H       -3.0846480     1.2965650     0.5261450
  H       -4.0584310    -0.1803650     0.4515950
  H       -2.6909580    -0.0729930     1.5749670
  H       -0.5778430     1.2611610    -0.4426850
  H        0.3073520    -1.6376590    -0.0083210
units angstrom
no_reorient  #important for SAPT in psi4, default
symmetry c1  #important for SAPT in psi4, default
}

set PROPERTIES_ORIGIN ["COM"]
properties('MP2/aug-cc-pvtz', properties = ['dipole'])
--------------------------------------------------------------------------

    Molecular point group: c1
  Charge       = -1
  Multiplicity = 1
  Basis Set: AUG-CC-PVTZ
    Blend: AUG-CC-PVTZ
  Basis Set: (AUG-CC-PVTZ AUX)
    Blend: AUG-CC-PVTZ-JKFIT

    Orbital Energies [Eh]
    ---------------------

    Doubly Occupied:

       1A    -20.295250     2A    -20.291954     3A    -11.142499
       4A    -11.115640     5A    -11.113362     6A    -11.085243
       7A    -11.069201     8A     -1.161502     9A     -1.060965
      10A     -0.953695    11A     -0.861493    12A     -0.743238
      13A     -0.632750    14A     -0.548541    15A     -0.493501
      16A     -0.487040    17A     -0.445899    18A     -0.419064
      19A     -0.406942    20A     -0.384517    21A     -0.374832
      22A     -0.357345    23A     -0.352392    24A     -0.210208
      25A     -0.209046    26A     -0.204323    27A     -0.191323

  @DF-RHF Final Energy:  -343.28564314964223

   => Energetics <=

    Nuclear Repulsion Energy =            270.7381731757846524
    One-Electron Energy =               -1014.8241033879925226
    Two-Electron Energy =                 400.8002870625655873
    Total Energy =                       -343.2856431496422260
  Basis Set: (AUG-CC-PVTZ AUX)
    Blend: AUG-CC-PVTZ-RI
    Molecular point group: c1

    Geometry (in Angstrom), charge = -1, multiplicity = 1:

       Center              X                  Y                   Z               Mass
    ------------   -----------------  -----------------  -----------------  -----------------
         O            1.753043069094     1.283375791348    -0.057085827066    15.994914619570
         O            2.550717069094    -0.819435208652     0.285938172934    15.994914619570
         C           -2.242866430906    -0.371532308652    -0.493114327066    12.000000000000
         C           -3.188202930906     0.198168791348     0.578000172934    12.000000000000
         C           -0.853461930906     0.175089791348    -0.354109827066    12.000000000000
         C            0.234533369094    -0.569150108652    -0.104643927066    12.000000000000
         C            1.633046069094     0.026009791348     0.053460172934    12.000000000000
         H           -2.227718930906    -1.454601208652    -0.441053827066     1.007825032230
         H           -2.646555930906    -0.098201208652    -1.484975827066     1.007825032230
         H           -3.231268930906     1.290473791348     0.527608172934     1.007825032230
         H           -4.205051930906    -0.186456208652     0.453058172934     1.007825032230
         H           -2.837578930906    -0.079084208652     1.576430172934     1.007825032230
         H           -0.724463930906     1.255069791348    -0.441221827066     1.007825032230
         H            0.160731069094    -1.643750208652    -0.006857827066     1.007825032230

  Basis Set: AUG-CC-PVTZ
    Blend: AUG-CC-PVTZ
  Basis Set: (AUG-CC-PVTZ AUX)
    Blend: AUG-CC-PVTZ-JKFIT
	 Reference Energy          =    -343.2856431496422260 [Eh]
	 Singles Energy            =      -0.0000000000000000 [Eh]
	 Same-Spin Energy          =      -0.3480532781419501 [Eh]
	 Opposite-Spin Energy      =      -1.1054105897062294 [Eh]
	 Correlation Energy        =      -1.4534638678481795 [Eh]
	 Total Energy              =    -344.7391070174904257 [Eh]

	 ================> DF-SCS-MP2 Energies <==================
	-----------------------------------------------------------
	 SCS Same-Spin Scale       =       0.3333333333333333 [-]
	 SCS Opposite-Spin Scale   =       1.2000000000000000 [-]
	 SCS Same-Spin Energy      =      -0.1160177593806500 [Eh]
	 SCS Opposite-Spin Energy  =      -1.3264927076474753 [Eh]
	 SCS Correlation Energy    =      -1.4425104670281252 [Eh]
	 SCS Total Energy          =    -344.7281536166703404 [Eh]
	-----------------------------------------------------------

  Dipole Moment: [D]
     X:    -9.4981      Y:    -1.1755      Z:    -0.5763     Total:     9.5879

*** Psi4 exiting successfully. Buy a developer a beer!
