                               Psi4 1.3.2 release

  ==> Input File <==

--------------------------------------------------------------------------
#psi4
#
memory 32 gb

molecule  {
-1 1
  O        1.8887778     1.2902994    -0.0603439
  O        2.6973380    -0.8133440     0.2844750
  C       -2.1007360    -0.3533330    -0.4966910
  C       -3.0415820     0.2042600     0.5765370
  C       -0.7068410     0.1811810    -0.3555730
  C        0.3829211    -0.5412145    -0.1083069
  C        1.7796670     0.0321010     0.0519970
  H       -2.0810980    -1.4485100    -0.4425170
  H       -2.4999350    -0.0921100    -1.4864390
  H       -3.0846480     1.2965650     0.5261450
  H       -4.0584310    -0.1803650     0.4515950
  H       -2.6909580    -0.0729930     1.5749670
  H       -0.5778430     1.2611610    -0.4426850
  H        0.3073520    -1.6376590    -0.0083210
units angstrom
no_reorient  #important for SAPT in psi4, default
symmetry c1  #important for SAPT in psi4, default
}

set PROPERTIES_ORIGIN ["COM"]
properties('MP2/aug-cc-pvtz', properties = ['dipole'])
--------------------------------------------------------------------------

    Molecular point group: c1
  Charge       = -1
  Multiplicity = 1
  Basis Set: AUG-CC-PVTZ
    Blend: AUG-CC-PVTZ
  Basis Set: (AUG-CC-PVTZ AUX)
    Blend: AUG-CC-PVTZ-JKFIT

    Orbital Energies [Eh]
    ---------------------

    Doubly Occupied:

       1A    -20.296449     2A    -20.291852     3A    -11.142394
       4A    -11.115567     5A    -11.113755     6A    -11.083202
       7A    -11.068837     8A     -1.162060     9A     -1.062134
      10A     -0.954593    11A     -0.863559    12A     -0.743368
      13A     -0.632388    14A     -0.548604    15A     -0.494650
      16A     -0.484937    17A     -0.446398    18A     -0.419026
      19A     -0.408639    20A     -0.382535    21A     -0.376938
      22A     -0.358476    23A     -0.346113    24A     -0.211929
      25A     -0.208996    26A     -0.206847    27A     -0.191797

  @DF-RHF Final Energy:  -343.28587733379021

   => Energetics <=

    Nuclear Repulsion Energy =            271.0492182838849544
    One-Electron Energy =               -1015.4381076448838712
    Two-Electron Energy =                 401.1030120272087629
    Total Energy =                       -343.2858773337902107
  Basis Set: (AUG-CC-PVTZ AUX)
    Blend: AUG-CC-PVTZ-RI
    Molecular point group: c1

    Geometry (in Angstrom), charge = -1, multiplicity = 1:

       Center              X                  Y                   Z               Mass
    ------------   -----------------  -----------------  -----------------  -----------------
         O            1.744244900448     1.279960164217    -0.058068276225    15.994914619570
         O            2.552805100448    -0.823683235783     0.286750623775    15.994914619570
         C           -2.245268899552    -0.363672235783    -0.494415376225    12.000000000000
         C           -3.186114899552     0.193920764217     0.578812623775    12.000000000000
         C           -0.851373899552     0.170841764217    -0.353297376225    12.000000000000
         C            0.238388200448    -0.551553735783    -0.106031276225    12.000000000000
         C            1.635134100448     0.021761764217     0.054272623775    12.000000000000
         H           -2.225630899552    -1.458849235783    -0.440241376225     1.007825032230
         H           -2.644467899552    -0.102449235783    -1.484163376225     1.007825032230
         H           -3.229180899552     1.286225764217     0.528420623775     1.007825032230
         H           -4.202963899552    -0.190704235783     0.453870623775     1.007825032230
         H           -2.835490899552    -0.083332235783     1.577242623775     1.007825032230
         H           -0.722375899552     1.250821764217    -0.440409376225     1.007825032230
         H            0.162819100448    -1.647998235783    -0.006045376225     1.007825032230

  Basis Set: AUG-CC-PVTZ
    Blend: AUG-CC-PVTZ
  Basis Set: (AUG-CC-PVTZ AUX)
    Blend: AUG-CC-PVTZ-JKFIT
	 Reference Energy          =    -343.2858773337902107 [Eh]
	 Singles Energy            =      -0.0000000000000000 [Eh]
	 Same-Spin Energy          =      -0.3480998181657409 [Eh]
	 Opposite-Spin Energy      =      -1.1053993820828660 [Eh]
	 Correlation Energy        =      -1.4534992002486069 [Eh]
	 Total Energy              =    -344.7393765340387972 [Eh]

	 ================> DF-SCS-MP2 Energies <==================
	-----------------------------------------------------------
	 SCS Same-Spin Scale       =       0.3333333333333333 [-]
	 SCS Opposite-Spin Scale   =       1.2000000000000000 [-]
	 SCS Same-Spin Energy      =      -0.1160332727219136 [Eh]
	 SCS Opposite-Spin Energy  =      -1.3264792584994392 [Eh]
	 SCS Correlation Energy    =      -1.4425125312213527 [Eh]
	 SCS Total Energy          =    -344.7283898650115361 [Eh]
	-----------------------------------------------------------

  Dipole Moment: [D]
     X:    -9.4767      Y:    -1.1315      Z:    -0.5761     Total:     9.5614

*** Psi4 exiting successfully. Buy a developer a beer!
