                               Psi4 1.3.2 release

  ==> Input File <==

--------------------------------------------------------------------------
#psi4
#
memory 32 gb

molecule  {
-1 1
  O        1.8996640     1.2894670    -0.0585490
  O        2.6973380    -0.8133440     0.2844750
  C       -2.1007360    -0.3533330    -0.4966910
  C       -3.0415820     0.2042600     0.5765370
  C       -0.7068410     0.1811810    -0.3555730
  C        0.5509283    -0.6628953    -0.0691345
  C        1.7796670     0.0321010     0.0519970
  H       -2.0810980    -1.4485100    -0.4425170
  H       -2.4999350    -0.0921100    -1.4864390
  H       -3.0846480     1.2965650     0.5261450
  H       -4.0584310    -0.1803650     0.4515950
  H       -2.6909580    -0.0729930     1.5749670
  H       -0.5778430     1.2611610    -0.4426850
  H        0.3073520    -1.6376590    -0.0083210
units angstrom
no_reorient  #important for SAPT in psi4, default
symmetry c1  #important for SAPT in psi4, default
}

set PROPERTIES_ORIGIN ["COM"]
properties('MP2/aug-cc-pvtz', properties = ['dipole'])
--------------------------------------------------------------------------

    Molecular point group: c1
  Charge       = -1
  Multiplicity = 1
  Basis Set: AUG-CC-PVTZ
    Blend: AUG-CC-PVTZ
  Basis Set: (AUG-CC-PVTZ AUX)
    Blend: AUG-CC-PVTZ-JKFIT

    Orbital Energies [Eh]
    ---------------------

    Doubly Occupied:

       1A    -20.290491     2A    -20.289735     3A    -11.133759
       4A    -11.118610     5A    -11.117964     6A    -11.113906
       7A    -11.085041     8A     -1.164609     9A     -1.060906
      10A     -0.948590    11A     -0.843017    12A     -0.755986
      13A     -0.641650    14A     -0.566490    15A     -0.503719
      16A     -0.481645    17A     -0.443383    18A     -0.418746
      19A     -0.410964    20A     -0.391312    21A     -0.370262
      22A     -0.361626    23A     -0.345839    24A     -0.214961
      25A     -0.204465    26A     -0.190384    27A     -0.164195

  @DF-RHF Final Energy:  -343.22713668745234

   => Energetics <=

    Nuclear Repulsion Energy =            270.0151840481292993
    One-Electron Energy =               -1013.2201348570138180
    Two-Electron Energy =                 399.9778141214321749
    Total Energy =                       -343.2271366874523437
  Basis Set: (AUG-CC-PVTZ AUX)
    Blend: AUG-CC-PVTZ-RI
    Molecular point group: c1

    Geometry (in Angstrom), charge = -1, multiplicity = 1:

       Center              X                  Y                   Z               Mass
    ------------   -----------------  -----------------  -----------------  -----------------
         O            1.733017727878     1.294004735809    -0.061309269648    15.994914619570
         O            2.530691727878    -0.808806264191     0.281714730352    15.994914619570
         C           -2.267382272122    -0.348795264191    -0.499451269648    12.000000000000
         C           -3.208228272122     0.208797735809     0.573776730352    12.000000000000
         C           -0.873487272122     0.185718735809    -0.358333269648    12.000000000000
         C            0.384282027878    -0.658357564191    -0.071894769648    12.000000000000
         C            1.613020727878     0.036638735809     0.049236730352    12.000000000000
         H           -2.247744272122    -1.443972264191    -0.445277269648     1.007825032230
         H           -2.666581272122    -0.087572264191    -1.489199269648     1.007825032230
         H           -3.251294272122     1.301102735809     0.523384730352     1.007825032230
         H           -4.225077272122    -0.175827264191     0.448834730352     1.007825032230
         H           -2.857604272122    -0.068455264191     1.572206730352     1.007825032230
         H           -0.744489272122     1.265698735809    -0.445445269648     1.007825032230
         H            0.140705727878    -1.633121264191    -0.011081269648     1.007825032230

  Basis Set: AUG-CC-PVTZ
    Blend: AUG-CC-PVTZ
  Basis Set: (AUG-CC-PVTZ AUX)
    Blend: AUG-CC-PVTZ-JKFIT
	 Reference Energy          =    -343.2271366874523437 [Eh]
	 Singles Energy            =      -0.0000000000000000 [Eh]
	 Same-Spin Energy          =      -0.3522488819068695 [Eh]
	 Opposite-Spin Energy      =      -1.1142254883082581 [Eh]
	 Correlation Energy        =      -1.4664743702151277 [Eh]
	 Total Energy              =    -344.6936110576674537 [Eh]

	 ================> DF-SCS-MP2 Energies <==================
	-----------------------------------------------------------
	 SCS Same-Spin Scale       =       0.3333333333333333 [-]
	 SCS Opposite-Spin Scale   =       1.2000000000000000 [-]
	 SCS Same-Spin Energy      =      -0.1174162939689565 [Eh]
	 SCS Opposite-Spin Energy  =      -1.3370705859699097 [Eh]
	 SCS Correlation Energy    =      -1.4544868799388662 [Eh]
	 SCS Total Energy          =    -344.6816235673912274 [Eh]
	-----------------------------------------------------------

  Dipole Moment: [D]
     X:    -9.3626      Y:    -1.3895      Z:    -0.5362     Total:     9.4803

*** Psi4 exiting successfully. Buy a developer a beer!
