                               Psi4 1.3.2 release

  ==> Input File <==

--------------------------------------------------------------------------
#psi4
#
memory 32 gb

molecule  {
-1 1
  O        1.8996640     1.2894670    -0.0585490
  O        2.6973380    -0.8133440     0.2844750
  C       -2.1007360    -0.3533330    -0.4966910
  C       -3.0415820     0.2042600     0.5765370
  C       -0.7002775     0.1908756    -0.3555507
  C        0.3877500    -0.5533880    -0.1062960
  C        1.7747354     0.0442278     0.0499531
  H       -2.0810980    -1.4485100    -0.4425170
  H       -2.4999350    -0.0921100    -1.4864390
  H       -3.0846480     1.2965650     0.5261450
  H       -4.0584310    -0.1803650     0.4515950
  H       -2.6909580    -0.0729930     1.5749670
  H       -0.5778430     1.2611610    -0.4426850
  H        0.3073520    -1.6376590    -0.0083210
units angstrom
no_reorient  #important for SAPT in psi4, default
symmetry c1  #important for SAPT in psi4, default
}

set PROPERTIES_ORIGIN ["COM"]
properties('MP2/aug-cc-pvtz', properties = ['dipole'])
--------------------------------------------------------------------------

    Molecular point group: c1
  Charge       = -1
  Multiplicity = 1
  Basis Set: AUG-CC-PVTZ
    Blend: AUG-CC-PVTZ
  Basis Set: (AUG-CC-PVTZ AUX)
    Blend: AUG-CC-PVTZ-JKFIT

    Orbital Energies [Eh]
    ---------------------

    Doubly Occupied:

       1A    -20.294511     2A    -20.292185     3A    -11.141637
       4A    -11.115673     5A    -11.114249     6A    -11.085123
       7A    -11.070126     8A     -1.162412     9A     -1.060169
      10A     -0.953038    11A     -0.862775    12A     -0.742713
      13A     -0.633720    14A     -0.549372    15A     -0.493961
      16A     -0.486198    17A     -0.446471    18A     -0.419358
      19A     -0.408388    20A     -0.383006    21A     -0.374208
      22A     -0.358167    23A     -0.351313    24A     -0.210851
      25A     -0.208690    26A     -0.204698    27A     -0.191143

  @DF-RHF Final Energy:  -343.28549844911169

   => Energetics <=

    Nuclear Repulsion Energy =            270.8453042302841141
    One-Electron Energy =               -1015.0332949723760976
    Two-Electron Energy =                 400.9024922929802983
    Total Energy =                       -343.2854984491116852
  Basis Set: (AUG-CC-PVTZ AUX)
    Blend: AUG-CC-PVTZ-RI
    Molecular point group: c1

    Geometry (in Angstrom), charge = -1, multiplicity = 1:

       Center              X                  Y                   Z               Mass
    ------------   -----------------  -----------------  -----------------  -----------------
         O            1.752590291275     1.278093274417    -0.056561941891    15.994914619570
         O            2.550264291275    -0.824717725583     0.286462058109    15.994914619570
         C           -2.247809708725    -0.364706725583    -0.494703941891    12.000000000000
         C           -3.188655708725     0.192886274417     0.578524058109    12.000000000000
         C           -0.847351208725     0.179501874417    -0.353563641891    12.000000000000
         C            0.240676291275    -0.564761725583    -0.104308941891    12.000000000000
         C            1.627661691275     0.032854074417     0.051940158109    12.000000000000
         H           -2.228171708725    -1.459883725583    -0.440529941891     1.007825032230
         H           -2.647008708725    -0.103483725583    -1.484451941891     1.007825032230
         H           -3.231721708725     1.285191274417     0.528132058109     1.007825032230
         H           -4.205504708725    -0.191738725583     0.453582058109     1.007825032230
         H           -2.838031708725    -0.084366725583     1.576954058109     1.007825032230
         H           -0.724916708725     1.249787274417    -0.440697941891     1.007825032230
         H            0.160278291275    -1.649032725583    -0.006333941891     1.007825032230

  Basis Set: AUG-CC-PVTZ
    Blend: AUG-CC-PVTZ
  Basis Set: (AUG-CC-PVTZ AUX)
    Blend: AUG-CC-PVTZ-JKFIT
	 Reference Energy          =    -343.2854984491116852 [Eh]
	 Singles Energy            =      -0.0000000000000000 [Eh]
	 Same-Spin Energy          =      -0.3480590335193848 [Eh]
	 Opposite-Spin Energy      =      -1.1054766718833686 [Eh]
	 Correlation Energy        =      -1.4535357054027536 [Eh]
	 Total Energy              =    -344.7390341545144565 [Eh]

	 ================> DF-SCS-MP2 Energies <==================
	-----------------------------------------------------------
	 SCS Same-Spin Scale       =       0.3333333333333333 [-]
	 SCS Opposite-Spin Scale   =       1.2000000000000000 [-]
	 SCS Same-Spin Energy      =      -0.1160196778397949 [Eh]
	 SCS Opposite-Spin Energy  =      -1.3265720062600423 [Eh]
	 SCS Correlation Energy    =      -1.4425916840998374 [Eh]
	 SCS Total Energy          =    -344.7280901332115377 [Eh]
	-----------------------------------------------------------

  Dipole Moment: [D]
     X:    -9.5535      Y:    -1.0248      Z:    -0.6004     Total:     9.6270

*** Psi4 exiting successfully. Buy a developer a beer!
