                               Psi4 1.3.2 release

  ==> Input File <==

--------------------------------------------------------------------------
#psi4
#
memory 32 gb

molecule  {
-1 1
  O        1.8996640     1.2894670    -0.0585490
  O        2.6822844    -0.8295808     0.2837935
  C       -2.1007360    -0.3533330    -0.4966910
  C       -3.0415820     0.2042600     0.5765370
  C       -0.7068410     0.1811810    -0.3555730
  C        0.3977205    -0.5775972    -0.1022071
  C        1.7796670     0.0321010     0.0519970
  H       -2.0810980    -1.4485100    -0.4425170
  H       -2.4999350    -0.0921100    -1.4864390
  H       -3.0846480     1.2965650     0.5261450
  H       -4.0584310    -0.1803650     0.4515950
  H       -2.6909580    -0.0729930     1.5749670
  H       -0.5778430     1.2611610    -0.4426850
  H        0.3073520    -1.6376590    -0.0083210
units angstrom
no_reorient  #important for SAPT in psi4, default
symmetry c1  #important for SAPT in psi4, default
}

set PROPERTIES_ORIGIN ["COM"]
properties('MP2/aug-cc-pvtz', properties = ['dipole'])
--------------------------------------------------------------------------

    Molecular point group: c1
  Charge       = -1
  Multiplicity = 1
  Basis Set: AUG-CC-PVTZ
    Blend: AUG-CC-PVTZ
  Basis Set: (AUG-CC-PVTZ AUX)
    Blend: AUG-CC-PVTZ-JKFIT

    Orbital Energies [Eh]
    ---------------------

    Doubly Occupied:

       1A    -20.295267     2A    -20.293255     3A    -11.142349
       4A    -11.115308     5A    -11.113348     6A    -11.087856
       7A    -11.070149     8A     -1.161886     9A     -1.062792
      10A     -0.952308    11A     -0.858451    12A     -0.743493
      13A     -0.632897    14A     -0.548936    15A     -0.494776
      16A     -0.486392    17A     -0.445484    18A     -0.419276
      19A     -0.408426    20A     -0.384134    21A     -0.374039
      22A     -0.358168    23A     -0.352349    24A     -0.211213
      25A     -0.209656    26A     -0.198872    27A     -0.192491

  @DF-RHF Final Energy:  -343.28385446766691

   => Energetics <=

    Nuclear Repulsion Energy =            270.6632440902025110
    One-Electron Energy =               -1014.6670505213731985
    Two-Electron Energy =                 400.7199519635037746
    Total Energy =                       -343.2838544676669130
  Basis Set: (AUG-CC-PVTZ AUX)
    Blend: AUG-CC-PVTZ-RI
    Molecular point group: c1

    Geometry (in Angstrom), charge = -1, multiplicity = 1:

       Center              X                  Y                   Z               Mass
    ------------   -----------------  -----------------  -----------------  -----------------
         O            1.754011043546     1.286292342242    -0.057192218179    15.994914619570
         O            2.536631443546    -0.832755457758     0.285150281821    15.994914619570
         C           -2.246388956454    -0.356507657758    -0.495334218179    12.000000000000
         C           -3.187234956454     0.201085342242     0.577893781821    12.000000000000
         C           -0.852493956454     0.178006342242    -0.354216218179    12.000000000000
         C            0.252067543546    -0.580771857758    -0.100850318179    12.000000000000
         C            1.634014043546     0.028926342242     0.053353781821    12.000000000000
         H           -2.226750956454    -1.451684657758    -0.441160218179     1.007825032230
         H           -2.645587956454    -0.095284657758    -1.485082218179     1.007825032230
         H           -3.230300956454     1.293390342242     0.527501781821     1.007825032230
         H           -4.204083956454    -0.183539657758     0.452951781821     1.007825032230
         H           -2.836610956454    -0.076167657758     1.576323781821     1.007825032230
         H           -0.723495956454     1.257986342242    -0.441328218179     1.007825032230
         H            0.161699043546    -1.640833657758    -0.006964218179     1.007825032230

  Basis Set: AUG-CC-PVTZ
    Blend: AUG-CC-PVTZ
  Basis Set: (AUG-CC-PVTZ AUX)
    Blend: AUG-CC-PVTZ-JKFIT
	 Reference Energy          =    -343.2838544676669130 [Eh]
	 Singles Energy            =      -0.0000000000000000 [Eh]
	 Same-Spin Energy          =      -0.3483463186097585 [Eh]
	 Opposite-Spin Energy      =      -1.1060753724870893 [Eh]
	 Correlation Energy        =      -1.4544216910968477 [Eh]
	 Total Energy              =    -344.7382761587637674 [Eh]

	 ================> DF-SCS-MP2 Energies <==================
	-----------------------------------------------------------
	 SCS Same-Spin Scale       =       0.3333333333333333 [-]
	 SCS Opposite-Spin Scale   =       1.2000000000000000 [-]
	 SCS Same-Spin Energy      =      -0.1161154395365862 [Eh]
	 SCS Opposite-Spin Energy  =      -1.3272904469845070 [Eh]
	 SCS Correlation Energy    =      -1.4434058865210933 [Eh]
	 SCS Total Energy          =    -344.7272603541879903 [Eh]
	-----------------------------------------------------------

  Dipole Moment: [D]
     X:    -9.4484      Y:    -1.1569      Z:    -0.5727     Total:     9.5361

*** Psi4 exiting successfully. Buy a developer a beer!
