                               Psi4 1.3.2 release

  ==> Input File <==

--------------------------------------------------------------------------
#psi4
#
memory 32 gb

molecule  {
-1 1
  O        1.8342527     1.2930142    -0.0692762
  O        2.6513708    -0.8612712     0.2821317
  C       -2.1007360    -0.3533330    -0.4966910
  C       -3.0415820     0.2042600     0.5765370
  C       -0.7068410     0.1811810    -0.3555730
  C        0.3877500    -0.5533880    -0.1062960
  C        1.7796670     0.0321010     0.0519970
  H       -2.0810980    -1.4485100    -0.4425170
  H       -2.4999350    -0.0921100    -1.4864390
  H       -3.0846480     1.2965650     0.5261450
  H       -4.0584310    -0.1803650     0.4515950
  H       -2.6909580    -0.0729930     1.5749670
  H       -0.5778430     1.2611610    -0.4426850
  H        0.3073520    -1.6376590    -0.0083210
units angstrom
no_reorient  #important for SAPT in psi4, default
symmetry c1  #important for SAPT in psi4, default
}

set PROPERTIES_ORIGIN ["COM"]
properties('MP2/aug-cc-pvtz', properties = ['dipole'])
--------------------------------------------------------------------------

    Molecular point group: c1
  Charge       = -1
  Multiplicity = 1
  Basis Set: AUG-CC-PVTZ
    Blend: AUG-CC-PVTZ
  Basis Set: (AUG-CC-PVTZ AUX)
    Blend: AUG-CC-PVTZ-JKFIT

    Orbital Energies [Eh]
    ---------------------

    Doubly Occupied:

       1A    -20.301289     2A    -20.297288     3A    -11.145131
       4A    -11.113135     5A    -11.110504     6A    -11.079448
       7A    -11.062922     8A     -1.163480     9A     -1.072086
      10A     -0.950215    11A     -0.857516    12A     -0.739931
      13A     -0.628987    14A     -0.546066    15A     -0.492867
      16A     -0.482606    17A     -0.447077    18A     -0.418432
      19A     -0.406201    20A     -0.383981    21A     -0.375547
      22A     -0.361250    23A     -0.344389    24A     -0.219782
      25A     -0.205573    26A     -0.201324    27A     -0.196948

  @DF-RHF Final Energy:  -343.28382983758934

   => Energetics <=

    Nuclear Repulsion Energy =            271.4917114633398114
    One-Electron Energy =               -1016.3431307468431442
    Two-Electron Energy =                 401.5675894459139954
    Total Energy =                       -343.2838298375893373
  Basis Set: (AUG-CC-PVTZ AUX)
    Blend: AUG-CC-PVTZ-RI
    Molecular point group: c1

    Geometry (in Angstrom), charge = -1, multiplicity = 1:

       Center              X                  Y                   Z               Mass
    ------------   -----------------  -----------------  -----------------  -----------------
         O            1.705363448749     1.291451317885    -0.065423292332    15.994914619570
         O            2.522481548749    -0.862834082115     0.285984607668    15.994914619570
         C           -2.229625251251    -0.354895882115    -0.492838092332    12.000000000000
         C           -3.170471251251     0.202697117885     0.580389907668    12.000000000000
         C           -0.835730251251     0.179618117885    -0.351720092332    12.000000000000
         C            0.258860748749    -0.554950882115    -0.102443092332    12.000000000000
         C            1.650777748749     0.030538117885     0.055849907668    12.000000000000
         H           -2.209987251251    -1.450072882115    -0.438664092332     1.007825032230
         H           -2.628824251251    -0.093672882115    -1.482586092332     1.007825032230
         H           -3.213537251251     1.295002117885     0.529997907668     1.007825032230
         H           -4.187320251251    -0.181927882115     0.455447907668     1.007825032230
         H           -2.819847251251    -0.074555882115     1.578819907668     1.007825032230
         H           -0.706732251251     1.259598117885    -0.438832092332     1.007825032230
         H            0.178462748749    -1.639221882115    -0.004468092332     1.007825032230

  Basis Set: AUG-CC-PVTZ
    Blend: AUG-CC-PVTZ
  Basis Set: (AUG-CC-PVTZ AUX)
    Blend: AUG-CC-PVTZ-JKFIT
	 Reference Energy          =    -343.2838298375893373 [Eh]
	 Singles Energy            =      -0.0000000000000000 [Eh]
	 Same-Spin Energy          =      -0.3484581953533219 [Eh]
	 Opposite-Spin Energy      =      -1.1059779675422265 [Eh]
	 Correlation Energy        =      -1.4544361628955484 [Eh]
	 Total Energy              =    -344.7382660004848844 [Eh]

	 ================> DF-SCS-MP2 Energies <==================
	-----------------------------------------------------------
	 SCS Same-Spin Scale       =       0.3333333333333333 [-]
	 SCS Opposite-Spin Scale   =       1.2000000000000000 [-]
	 SCS Same-Spin Energy      =      -0.1161527317844406 [Eh]
	 SCS Opposite-Spin Energy  =      -1.3271735610506719 [Eh]
	 SCS Correlation Energy    =      -1.4433262928351125 [Eh]
	 SCS Total Energy          =    -344.7271561304244756 [Eh]
	-----------------------------------------------------------

  Dipole Moment: [D]
     X:    -9.1249      Y:    -1.0409      Z:    -0.5413     Total:     9.2000

*** Psi4 exiting successfully. Buy a developer a beer!
