                               Psi4 1.3.2 release

  ==> Input File <==

--------------------------------------------------------------------------
#psi4
#
memory 32 gb

molecule  {
-1 1
  O        1.8996640     1.2894670    -0.0585490
  O        2.6973380    -0.8133440     0.2844750
  C       -2.1007360    -0.3533330    -0.4966910
  C       -3.0415820     0.2042600     0.5765370
  C       -0.6662273     0.2384841    -0.3551545
  C        0.3877500    -0.5533880    -0.1062960
  C        1.7485010     0.1041606     0.0395582
  H       -2.0810980    -1.4485100    -0.4425170
  H       -2.4999350    -0.0921100    -1.4864390
  H       -3.0846480     1.2965650     0.5261450
  H       -4.0584310    -0.1803650     0.4515950
  H       -2.6909580    -0.0729930     1.5749670
  H       -0.5778430     1.2611610    -0.4426850
  H        0.3073520    -1.6376590    -0.0083210
units angstrom
no_reorient  #important for SAPT in psi4, default
symmetry c1  #important for SAPT in psi4, default
}

set PROPERTIES_ORIGIN ["COM"]
properties('MP2/aug-cc-pvtz', properties = ['dipole'])
--------------------------------------------------------------------------

    Molecular point group: c1
  Charge       = -1
  Multiplicity = 1
  Basis Set: AUG-CC-PVTZ
    Blend: AUG-CC-PVTZ
  Basis Set: (AUG-CC-PVTZ AUX)
    Blend: AUG-CC-PVTZ-JKFIT

    Orbital Energies [Eh]
    ---------------------

    Doubly Occupied:

       1A    -20.308889     2A    -20.276540     3A    -11.139194
       4A    -11.115665     5A    -11.114938     6A    -11.084288
       7A    -11.071455     8A     -1.186553     9A     -1.038616
      10A     -0.947621    11A     -0.865319    12A     -0.737643
      13A     -0.639237    14A     -0.552039    15A     -0.493760
      16A     -0.484417    17A     -0.455465    18A     -0.422563
      19A     -0.406614    20A     -0.382135    21A     -0.374349
      22A     -0.365906    23A     -0.353374    24A     -0.212764
      25A     -0.209300    26A     -0.195091    27A     -0.183340

  @DF-RHF Final Energy:  -343.27125249367634

   => Energetics <=

    Nuclear Repulsion Energy =            270.9060757569635030
    One-Electron Energy =               -1015.1205119742228362
    Two-Electron Energy =                 400.9431837235830471
    Total Energy =                       -343.2712524936763430
  Basis Set: (AUG-CC-PVTZ AUX)
    Blend: AUG-CC-PVTZ-RI
    Molecular point group: c1

    Geometry (in Angstrom), charge = -1, multiplicity = 1:

       Center              X                  Y                   Z               Mass
    ------------   -----------------  -----------------  -----------------  -----------------
         O            1.751643348223     1.265063835741    -0.055350524059    15.994914619570
         O            2.549317348223    -0.837747164259     0.287673475941    15.994914619570
         C           -2.248756651777    -0.377736164259    -0.493492524059    12.000000000000
         C           -3.189602651777     0.179856835741     0.579735475941    12.000000000000
         C           -0.814247951777     0.214080935741    -0.351956024059    12.000000000000
         C            0.239729348223    -0.577791164259    -0.103097524059    12.000000000000
         C            1.600480348223     0.079757435741     0.042756675941    12.000000000000
         H           -2.229118651777    -1.472913164259    -0.439318524059     1.007825032230
         H           -2.647955651777    -0.116513164259    -1.483240524059     1.007825032230
         H           -3.232668651777     1.272161835741     0.529343475941     1.007825032230
         H           -4.206451651777    -0.204768164259     0.454793475941     1.007825032230
         H           -2.838978651777    -0.097396164259     1.578165475941     1.007825032230
         H           -0.725863651777     1.236757835741    -0.439486524059     1.007825032230
         H            0.159331348223    -1.662062164259    -0.005122524059     1.007825032230

  Basis Set: AUG-CC-PVTZ
    Blend: AUG-CC-PVTZ
  Basis Set: (AUG-CC-PVTZ AUX)
    Blend: AUG-CC-PVTZ-JKFIT
	 Reference Energy          =    -343.2712524936763430 [Eh]
	 Singles Energy            =      -0.0000000000000000 [Eh]
	 Same-Spin Energy          =      -0.3478365879097572 [Eh]
	 Opposite-Spin Energy      =      -1.1055227006680499 [Eh]
	 Correlation Energy        =      -1.4533592885778071 [Eh]
	 Total Energy              =    -344.7246117822541578 [Eh]

	 ================> DF-SCS-MP2 Energies <==================
	-----------------------------------------------------------
	 SCS Same-Spin Scale       =       0.3333333333333333 [-]
	 SCS Opposite-Spin Scale   =       1.2000000000000000 [-]
	 SCS Same-Spin Energy      =      -0.1159455293032524 [Eh]
	 SCS Opposite-Spin Energy  =      -1.3266272408016599 [Eh]
	 SCS Correlation Energy    =      -1.4425727701049122 [Eh]
	 SCS Total Energy          =    -344.7138252637812457 [Eh]
	-----------------------------------------------------------

  Dipole Moment: [D]
     X:    -9.7731      Y:    -0.3844      Z:    -0.7071     Total:     9.8062

*** Psi4 exiting successfully. Buy a developer a beer!
