                               Psi4 1.3.2 release

  ==> Input File <==

--------------------------------------------------------------------------
#psi4
#
memory 32 gb

molecule  {
-1 1
  O        1.8996640     1.2894670    -0.0585490
  O        2.7047603    -0.8051287     0.2847892
  C       -2.1007360    -0.3533330    -0.4966910
  C       -3.0415820     0.2042600     0.5765370
  C       -0.7068410     0.1811810    -0.3555730
  C        0.3829236    -0.5412161    -0.1083224
  C        1.7796670     0.0321010     0.0519970
  H       -2.0810980    -1.4485100    -0.4425170
  H       -2.4999350    -0.0921100    -1.4864390
  H       -3.0846480     1.2965650     0.5261450
  H       -4.0584310    -0.1803650     0.4515950
  H       -2.6909580    -0.0729930     1.5749670
  H       -0.5778430     1.2611610    -0.4426850
  H        0.3073520    -1.6376590    -0.0083210
units angstrom
no_reorient  #important for SAPT in psi4, default
symmetry c1  #important for SAPT in psi4, default
}

set PROPERTIES_ORIGIN ["COM"]
properties('MP2/aug-cc-pvtz', properties = ['dipole'])
--------------------------------------------------------------------------

    Molecular point group: c1
  Charge       = -1
  Multiplicity = 1
  Basis Set: AUG-CC-PVTZ
    Blend: AUG-CC-PVTZ
  Basis Set: (AUG-CC-PVTZ AUX)
    Blend: AUG-CC-PVTZ-JKFIT

    Orbital Energies [Eh]
    ---------------------

    Doubly Occupied:

       1A    -20.295425     2A    -20.290873     3A    -11.141883
       4A    -11.115996     5A    -11.114320     6A    -11.084167
       7A    -11.069997     8A     -1.161845     9A     -1.060206
      10A     -0.955254    11A     -0.864344    12A     -0.743998
      13A     -0.633047    14A     -0.549102    15A     -0.494967
      16A     -0.485490    17A     -0.446178    18A     -0.419227
      19A     -0.409057    20A     -0.382593    21A     -0.376662
      22A     -0.357948    23A     -0.346805    24A     -0.211883
      25A     -0.207986    26A     -0.207585    27A     -0.190576

  @DF-RHF Final Energy:  -343.28573949010661

   => Energetics <=

    Nuclear Repulsion Energy =            270.9529685489642361
    One-Electron Energy =               -1015.2425885233317331
    Two-Electron Energy =                 401.0038804842608897
    Total Energy =                       -343.2857394901066073
  Basis Set: (AUG-CC-PVTZ AUX)
    Blend: AUG-CC-PVTZ-RI
    Molecular point group: c1

    Geometry (in Angstrom), charge = -1, multiplicity = 1:

       Center              X                  Y                   Z               Mass
    ------------   -----------------  -----------------  -----------------  -----------------
         O            1.752174120651     1.277935678532    -0.056612101132    15.994914619570
         O            2.557270420651    -0.816660021468     0.286726098868    15.994914619570
         C           -2.248225879349    -0.364864321468    -0.494754101132    12.000000000000
         C           -3.189071879349     0.192728678532     0.578473898868    12.000000000000
         C           -0.854330879349     0.169649678532    -0.353636101132    12.000000000000
         C            0.235433720651    -0.552747421468    -0.106385501132    12.000000000000
         C            1.632177120651     0.020569678532     0.053933898868    12.000000000000
         H           -2.228587879349    -1.460041321468    -0.440580101132     1.007825032230
         H           -2.647424879349    -0.103641321468    -1.484502101132     1.007825032230
         H           -3.232137879349     1.285033678532     0.528081898868     1.007825032230
         H           -4.205920879349    -0.191896321468     0.453531898868     1.007825032230
         H           -2.838447879349    -0.084524321468     1.576903898868     1.007825032230
         H           -0.725332879349     1.249629678532    -0.440748101132     1.007825032230
         H            0.159862120651    -1.649190321468    -0.006384101132     1.007825032230

  Basis Set: AUG-CC-PVTZ
    Blend: AUG-CC-PVTZ
  Basis Set: (AUG-CC-PVTZ AUX)
    Blend: AUG-CC-PVTZ-JKFIT
	 Reference Energy          =    -343.2857394901066073 [Eh]
	 Singles Energy            =      -0.0000000000000000 [Eh]
	 Same-Spin Energy          =      -0.3480657631911186 [Eh]
	 Opposite-Spin Energy      =      -1.1053626393107527 [Eh]
	 Correlation Energy        =      -1.4534284025018713 [Eh]
	 Total Energy              =    -344.7391678926084637 [Eh]

	 ================> DF-SCS-MP2 Energies <==================
	-----------------------------------------------------------
	 SCS Same-Spin Scale       =       0.3333333333333333 [-]
	 SCS Opposite-Spin Scale   =       1.2000000000000000 [-]
	 SCS Same-Spin Energy      =      -0.1160219210637062 [Eh]
	 SCS Opposite-Spin Energy  =      -1.3264351671729033 [Eh]
	 SCS Correlation Energy    =      -1.4424570882366095 [Eh]
	 SCS Total Energy          =    -344.7281965783432156 [Eh]
	-----------------------------------------------------------

  Dipole Moment: [D]
     X:    -9.5399      Y:    -1.1503      Z:    -0.5823     Total:     9.6266

*** Psi4 exiting successfully. Buy a developer a beer!
