                               Psi4 1.3.2 release

  ==> Input File <==

--------------------------------------------------------------------------
#psi4
#
memory 32 gb

molecule  {
-1 1
  O        1.8996640     1.2894670    -0.0585490
  O        2.6669559    -0.8455551     0.2830415
  C       -2.1007360    -0.3533330    -0.4966910
  C       -3.0415820     0.2042600     0.5765370
  C       -0.7068410     0.1811810    -0.3555730
  C        0.4081119    -0.6016206    -0.0980713
  C        1.7796670     0.0321010     0.0519970
  H       -2.0810980    -1.4485100    -0.4425170
  H       -2.4999350    -0.0921100    -1.4864390
  H       -3.0846480     1.2965650     0.5261450
  H       -4.0584310    -0.1803650     0.4515950
  H       -2.6909580    -0.0729930     1.5749670
  H       -0.5778430     1.2611610    -0.4426850
  H        0.3073520    -1.6376590    -0.0083210
units angstrom
no_reorient  #important for SAPT in psi4, default
symmetry c1  #important for SAPT in psi4, default
}

set PROPERTIES_ORIGIN ["COM"]
properties('MP2/aug-cc-pvtz', properties = ['dipole'])
--------------------------------------------------------------------------

    Molecular point group: c1
  Charge       = -1
  Multiplicity = 1
  Basis Set: AUG-CC-PVTZ
    Blend: AUG-CC-PVTZ
  Basis Set: (AUG-CC-PVTZ AUX)
    Blend: AUG-CC-PVTZ-JKFIT

    Orbital Energies [Eh]
    ---------------------

    Doubly Occupied:

       1A    -20.295243     2A    -20.294951     3A    -11.142853
       4A    -11.114836     5A    -11.112697     6A    -11.090237
       7A    -11.070393     8A     -1.162107     9A     -1.064673
      10A     -0.950507    11A     -0.854644    12A     -0.743246
      13A     -0.632950    14A     -0.549356    15A     -0.495863
      16A     -0.485741    17A     -0.445044    18A     -0.419416
      19A     -0.407930    20A     -0.385546    21A     -0.371983
      22A     -0.358500    23A     -0.355189    24A     -0.213344
      25A     -0.207917    26A     -0.193886    27A     -0.193132

  @DF-RHF Final Energy:  -343.27949571796410

   => Energetics <=

    Nuclear Repulsion Energy =            270.4874435690491623
    One-Electron Energy =               -1014.3095092129461818
    Two-Electron Energy =                 400.5425699259329804
    Total Energy =                       -343.2794957179640960
  Basis Set: (AUG-CC-PVTZ AUX)
    Blend: AUG-CC-PVTZ-RI
    Molecular point group: c1

    Geometry (in Angstrom), charge = -1, multiplicity = 1:

       Center              X                  Y                   Z               Mass
    ------------   -----------------  -----------------  -----------------  -----------------
         O            1.755227477792     1.291782680333    -0.057571859498    15.994914619570
         O            2.522519377792    -0.843239419667     0.284018640502    15.994914619570
         C           -2.245172522208    -0.351017319667    -0.495713859498    12.000000000000
         C           -3.186018522208     0.206575680333     0.577514140502    12.000000000000
         C           -0.851277522208     0.183496680333    -0.354595859498    12.000000000000
         C            0.263675377792    -0.599304919667    -0.097094159498    12.000000000000
         C            1.635230477792     0.034416680333     0.052974140502    12.000000000000
         H           -2.225534522208    -1.446194319667    -0.441539859498     1.007825032230
         H           -2.644371522208    -0.089794319667    -1.485461859498     1.007825032230
         H           -3.229084522208     1.298880680333     0.527122140502     1.007825032230
         H           -4.202867522208    -0.178049319667     0.452572140502     1.007825032230
         H           -2.835394522208    -0.070677319667     1.575944140502     1.007825032230
         H           -0.722279522208     1.263476680333    -0.441707859498     1.007825032230
         H            0.162915477792    -1.635343319667    -0.007343859498     1.007825032230

  Basis Set: AUG-CC-PVTZ
    Blend: AUG-CC-PVTZ
  Basis Set: (AUG-CC-PVTZ AUX)
    Blend: AUG-CC-PVTZ-JKFIT
	 Reference Energy          =    -343.2794957179640960 [Eh]
	 Singles Energy            =      -0.0000000000000000 [Eh]
	 Same-Spin Energy          =      -0.3486228378254229 [Eh]
	 Opposite-Spin Energy      =      -1.1067494939441520 [Eh]
	 Correlation Energy        =      -1.4553723317695750 [Eh]
	 Total Energy              =    -344.7348680497336773 [Eh]

	 ================> DF-SCS-MP2 Energies <==================
	-----------------------------------------------------------
	 SCS Same-Spin Scale       =       0.3333333333333333 [-]
	 SCS Opposite-Spin Scale   =       1.2000000000000000 [-]
	 SCS Same-Spin Energy      =      -0.1162076126084743 [Eh]
	 SCS Opposite-Spin Energy  =      -1.3280993927329823 [Eh]
	 SCS Correlation Energy    =      -1.4443070053414566 [Eh]
	 SCS Total Energy          =    -344.7238027233055391 [Eh]
	-----------------------------------------------------------

  Dipole Moment: [D]
     X:    -9.3792      Y:    -1.1574      Z:    -0.5656     Total:     9.4673

*** Psi4 exiting successfully. Buy a developer a beer!
