                               Psi4 1.4a3.dev225

  ==> Input File <==

--------------------------------------------------------------------------
#psi4
#
memory 32 gb

molecule  {
-1 1
  O        1.8994270     1.2905180    -0.0615170
  O        2.6993700    -0.8109500     0.2832770
  C       -2.1001690    -0.3616000    -0.4913260
  C       -3.0433460     0.2119310     0.5709670
  C       -0.7080250     0.1770830    -0.3546910
  C        0.3885780    -0.5541740    -0.1016650
  C        1.7798570     0.0330080     0.0518740
  H       -2.0812530    -1.4558260    -0.4203270
  H       -2.4968010    -0.1155520    -1.4857470
  H       -3.0817280     1.3037570     0.5071420
  H       -4.0608920    -0.1705790     0.4451360
  H       -2.6986290    -0.0550030     1.5741980
  H       -0.5748063     1.3059056    -0.4543627
  H        0.3081890    -1.6372690     0.0045550
units angstrom
no_reorient  #important for SAPT in psi4, default
symmetry c1  #important for SAPT in psi4, default
}

set PROPERTIES_ORIGIN ["COM"]
properties('MP2/aug-cc-pvtz', properties = ['dipole'])
--------------------------------------------------------------------------

    Molecular point group: c1
  Charge       = -1
  Multiplicity = 1
  Basis Set: AUG-CC-PVTZ
    Blend: AUG-CC-PVTZ
  Basis Set: (AUG-CC-PVTZ AUX)
    Blend: AUG-CC-PVTZ-JKFIT

    Orbital Energies [Eh]
    ---------------------

    Doubly Occupied:

       1A    -20.295437     2A    -20.291607     3A    -11.142166
       4A    -11.115753     5A    -11.114452     6A    -11.091146
       7A    -11.070538     8A     -1.161725     9A     -1.060864
      10A     -0.953815    11A     -0.861708    12A     -0.743990
      13A     -0.628583    14A     -0.546290    15A     -0.494982
      16A     -0.485527    17A     -0.445198    18A     -0.417788
      19A     -0.409009    20A     -0.383088    21A     -0.376018
      22A     -0.357947    23A     -0.344042    24A     -0.211446
      25A     -0.208942    26A     -0.204889    27A     -0.191142

  @DF-RHF Final Energy:  -343.28324923479829

   => Energetics <=

    Nuclear Repulsion Energy =            270.6234488701790610
    One-Electron Energy =               -1014.5972113300915680
    Two-Electron Energy =                 400.6905132251141595
    Total Energy =                       -343.2832492347982907
  Basis Set: (AUG-CC-PVTZ AUX)
    Blend: AUG-CC-PVTZ-RI
    Molecular point group: c1

    Geometry (in Angstrom), charge = -1, multiplicity = 1:

       Center              X                  Y                   Z               Mass
    ------------   -----------------  -----------------  -----------------  -----------------
         O            1.752429923817     1.281283710454    -0.059708415585    15.994914619570
         O            2.552372923817    -0.820184289546     0.285085584415    15.994914619570
         C           -2.247166076183    -0.370834289546    -0.489517415585    12.000000000000
         C           -3.190343076183     0.202696710454     0.572775584415    12.000000000000
         C           -0.855022076183     0.167848710454    -0.352882415585    12.000000000000
         C            0.241580923817    -0.563408289546    -0.099856415585    12.000000000000
         C            1.632859923817     0.023773710454     0.053682584415    12.000000000000
         H           -2.228250076183    -1.465060289546    -0.418518415585     1.007825032230
         H           -2.643798076183    -0.124786289546    -1.483938415585     1.007825032230
         H           -3.228725076183     1.294522710454     0.508950584415     1.007825032230
         H           -4.207889076183    -0.179813289546     0.446944584415     1.007825032230
         H           -2.845626076183    -0.064237289546     1.576006584415     1.007825032230
         H           -0.721803376183     1.296671310454    -0.452554115585     1.007825032230
         H            0.161191923817    -1.646503289546     0.006363584415     1.007825032230

  Basis Set: AUG-CC-PVTZ
    Blend: AUG-CC-PVTZ
  Basis Set: (AUG-CC-PVTZ AUX)
    Blend: AUG-CC-PVTZ-JKFIT
	 Reference Energy          =    -343.2832492347982907 [Eh]
	 Singles Energy            =      -0.0000000000000000 [Eh]
	 Same-Spin Energy          =      -0.3483205174617997 [Eh]
	 Opposite-Spin Energy      =      -1.1060263001390092 [Eh]
	 Correlation Energy        =      -1.4543468176008088 [Eh]
	 Total Energy              =    -344.7375960523991125 [Eh]

	 ================> DF-SCS-MP2 Energies <==================
	-----------------------------------------------------------
	 SCS Same-Spin Scale       =       0.3333333333333333 [-]
	 SCS Opposite-Spin Scale   =       1.2000000000000000 [-]
	 SCS Same-Spin Energy      =      -0.1161068391539332 [Eh]
	 SCS Opposite-Spin Energy  =      -1.3272315601668110 [Eh]
	 SCS Correlation Energy    =      -1.4433383993207443 [Eh]
	 SCS Total Energy          =    -344.7265876341190278 [Eh]
	-----------------------------------------------------------

  Dipole Moment: [D]
     X:    -9.5081      Y:    -1.1789      Z:    -0.5662     Total:     9.5976

*** Psi4 exiting successfully. Buy a developer a beer!
