                               Psi4 1.3.2 release

  ==> Input File <==

--------------------------------------------------------------------------
#psi4
#
memory 32 gb

molecule  {
-1 1
  O        1.8996640     1.2894670    -0.0585490
  O        2.6973380    -0.8133440     0.2844750
  C       -2.1007360    -0.3533330    -0.4966910
  C       -3.0415820     0.2042600     0.5765370
  C       -0.6936311     0.2005136    -0.3555094
  C        0.3877500    -0.5533880    -0.1062960
  C        1.7696982     0.0563090     0.0478973
  H       -2.0810980    -1.4485100    -0.4425170
  H       -2.4999350    -0.0921100    -1.4864390
  H       -3.0846480     1.2965650     0.5261450
  H       -4.0584310    -0.1803650     0.4515950
  H       -2.6909580    -0.0729930     1.5749670
  H       -0.5778430     1.2611610    -0.4426850
  H        0.3073520    -1.6376590    -0.0083210
units angstrom
no_reorient  #important for SAPT in psi4, default
symmetry c1  #important for SAPT in psi4, default
}

set PROPERTIES_ORIGIN ["COM"]
properties('MP2/aug-cc-pvtz', properties = ['dipole'])
--------------------------------------------------------------------------

    Molecular point group: c1
  Charge       = -1
  Multiplicity = 1
  Basis Set: AUG-CC-PVTZ
    Blend: AUG-CC-PVTZ
  Basis Set: (AUG-CC-PVTZ AUX)
    Blend: AUG-CC-PVTZ-JKFIT

    Orbital Energies [Eh]
    ---------------------

    Doubly Occupied:

       1A    -20.297383     2A    -20.289024     3A    -11.141228
       4A    -11.115588     5A    -11.114487     6A    -11.084876
       7A    -11.070285     8A     -1.164722     9A     -1.057849
      10A     -0.951878    11A     -0.863221    12A     -0.741641
      13A     -0.634586    14A     -0.549832    15A     -0.493506
      16A     -0.486163    17A     -0.447520    18A     -0.419554
      19A     -0.407972    20A     -0.382952    21A     -0.372936
      22A     -0.358824    23A     -0.353279    24A     -0.211893
      25A     -0.206395    26A     -0.205146    27A     -0.190453

  @DF-RHF Final Energy:  -343.28440268141310

   => Energetics <=

    Nuclear Repulsion Energy =            270.8441753028943708
    One-Electron Energy =               -1015.0307769510917524
    Two-Electron Energy =                 400.9021989667843400
    Total Energy =                       -343.2844026814130984
  Basis Set: (AUG-CC-PVTZ AUX)
    Blend: AUG-CC-PVTZ-RI
    Molecular point group: c1

    Geometry (in Angstrom), charge = -1, multiplicity = 1:

       Center              X                  Y                   Z               Mass
    ------------   -----------------  -----------------  -----------------  -----------------
         O            1.752395324572     1.275461829712    -0.056317870039    15.994914619570
         O            2.550069324572    -0.827349170288     0.286706129961    15.994914619570
         C           -2.248004675428    -0.367338170288    -0.494459870039    12.000000000000
         C           -3.188850675428     0.190254829712     0.578768129961    12.000000000000
         C           -0.840899775428     0.186508429712    -0.353278270039    12.000000000000
         C            0.240481324572    -0.567393170288    -0.104064870039    12.000000000000
         C            1.622429524572     0.042303829712     0.050128429961    12.000000000000
         H           -2.228366675428    -1.462515170288    -0.440285870039     1.007825032230
         H           -2.647203675428    -0.106115170288    -1.484207870039     1.007825032230
         H           -3.231916675428     1.282559829712     0.528376129961     1.007825032230
         H           -4.205699675428    -0.194370170288     0.453826129961     1.007825032230
         H           -2.838226675428    -0.086998170288     1.577198129961     1.007825032230
         H           -0.725111675428     1.247155829712    -0.440453870039     1.007825032230
         H            0.160083324572    -1.651664170288    -0.006089870039     1.007825032230

  Basis Set: AUG-CC-PVTZ
    Blend: AUG-CC-PVTZ
  Basis Set: (AUG-CC-PVTZ AUX)
    Blend: AUG-CC-PVTZ-JKFIT
	 Reference Energy          =    -343.2844026814130984 [Eh]
	 Singles Energy            =      -0.0000000000000000 [Eh]
	 Same-Spin Energy          =      -0.3479883596766191 [Eh]
	 Opposite-Spin Energy      =      -1.1054214773935818 [Eh]
	 Correlation Energy        =      -1.4534098370702009 [Eh]
	 Total Energy              =    -344.7378125184832811 [Eh]

	 ================> DF-SCS-MP2 Energies <==================
	-----------------------------------------------------------
	 SCS Same-Spin Scale       =       0.3333333333333333 [-]
	 SCS Opposite-Spin Scale   =       1.2000000000000000 [-]
	 SCS Same-Spin Energy      =      -0.1159961198922064 [Eh]
	 SCS Opposite-Spin Energy  =      -1.3265057728722980 [Eh]
	 SCS Correlation Energy    =      -1.4425018927645044 [Eh]
	 SCS Total Energy          =    -344.7269045741775813 [Eh]
	-----------------------------------------------------------

  Dipole Moment: [D]
     X:    -9.5964      Y:    -0.8965      Z:    -0.6217     Total:     9.6582

*** Psi4 exiting successfully. Buy a developer a beer!
