                               Psi4 1.3.2 release

  ==> Input File <==

--------------------------------------------------------------------------
#psi4
#
memory 32 gb

molecule  {
-1 1
  O        1.9105411     1.2885388    -0.0567457
  O        2.6973380    -0.8133440     0.2844750
  C       -2.1007360    -0.3533330    -0.4966910
  C       -3.0415820     0.2042600     0.5765370
  C       -0.7068410     0.1811810    -0.3555730
  C        0.3926849    -0.5655169    -0.1042731
  C        1.7796670     0.0321010     0.0519970
  H       -2.0810980    -1.4485100    -0.4425170
  H       -2.4999350    -0.0921100    -1.4864390
  H       -3.0846480     1.2965650     0.5261450
  H       -4.0584310    -0.1803650     0.4515950
  H       -2.6909580    -0.0729930     1.5749670
  H       -0.5778430     1.2611610    -0.4426850
  H        0.3073520    -1.6376590    -0.0083210
units angstrom
no_reorient  #important for SAPT in psi4, default
symmetry c1  #important for SAPT in psi4, default
}

set PROPERTIES_ORIGIN ["COM"]
properties('MP2/aug-cc-pvtz', properties = ['dipole'])
--------------------------------------------------------------------------

    Molecular point group: c1
  Charge       = -1
  Multiplicity = 1
  Basis Set: AUG-CC-PVTZ
    Blend: AUG-CC-PVTZ
  Basis Set: (AUG-CC-PVTZ AUX)
    Blend: AUG-CC-PVTZ-JKFIT

    Orbital Energies [Eh]
    ---------------------

    Doubly Occupied:

       1A    -20.294280     2A    -20.291457     3A    -11.141642
       4A    -11.115972     5A    -11.114242     6A    -11.087611
       7A    -11.071226     8A     -1.161616     9A     -1.059969
      10A     -0.953911    11A     -0.861190    12A     -0.744283
      13A     -0.633583    14A     -0.549373    15A     -0.494876
      16A     -0.486918    17A     -0.445512    18A     -0.419446
      19A     -0.409102    20A     -0.383497    21A     -0.374762
      22A     -0.357525    23A     -0.351365    24A     -0.211125
      25A     -0.208401    26A     -0.202526    27A     -0.190592

  @DF-RHF Final Energy:  -343.28496842537294

   => Energetics <=

    Nuclear Repulsion Energy =            270.6603582193965281
    One-Electron Energy =               -1014.6586492743208510
    Two-Electron Energy =                 400.7133226295513282
    Total Energy =                       -343.2849684253729379
  Basis Set: (AUG-CC-PVTZ AUX)
    Blend: AUG-CC-PVTZ-RI
    Molecular point group: c1

    Geometry (in Angstrom), charge = -1, multiplicity = 1:

       Center              X                  Y                   Z               Mass
    ------------   -----------------  -----------------  -----------------  -----------------
         O            1.761310642939     1.281428305938    -0.055539882120    15.994914619570
         O            2.548107542939    -0.820454494062     0.285680817880    15.994914619570
         C           -2.249966457061    -0.360443494062    -0.495485182120    12.000000000000
         C           -3.190812457061     0.197149505938     0.577742817880    12.000000000000
         C           -0.856071457061     0.174070505938    -0.354367182120    12.000000000000
         C            0.243454442939    -0.572627394062    -0.103067282120    12.000000000000
         C            1.630436542939     0.024990505938     0.053202817880    12.000000000000
         H           -2.230328457061    -1.455620494062    -0.441311182120     1.007825032230
         H           -2.649165457061    -0.099220494062    -1.485233182120     1.007825032230
         H           -3.233878457061     1.289454505938     0.527350817880     1.007825032230
         H           -4.207661457061    -0.187475494062     0.452800817880     1.007825032230
         H           -2.840188457061    -0.080103494062     1.576172817880     1.007825032230
         H           -0.727073457061     1.254050505938    -0.441479182120     1.007825032230
         H            0.158121542939    -1.644769494062    -0.007115182120     1.007825032230

  Basis Set: AUG-CC-PVTZ
    Blend: AUG-CC-PVTZ
  Basis Set: (AUG-CC-PVTZ AUX)
    Blend: AUG-CC-PVTZ-JKFIT
	 Reference Energy          =    -343.2849684253729379 [Eh]
	 Singles Energy            =      -0.0000000000000000 [Eh]
	 Same-Spin Energy          =      -0.3482012271312470 [Eh]
	 Opposite-Spin Energy      =      -1.1057630918084167 [Eh]
	 Correlation Energy        =      -1.4539643189396636 [Eh]
	 Total Energy              =    -344.7389327443125921 [Eh]

	 ================> DF-SCS-MP2 Energies <==================
	-----------------------------------------------------------
	 SCS Same-Spin Scale       =       0.3333333333333333 [-]
	 SCS Opposite-Spin Scale   =       1.2000000000000000 [-]
	 SCS Same-Spin Energy      =      -0.1160670757104157 [Eh]
	 SCS Opposite-Spin Energy  =      -1.3269157101700999 [Eh]
	 SCS Correlation Energy    =      -1.4429827858805155 [Eh]
	 SCS Total Energy          =    -344.7279512112534690 [Eh]
	-----------------------------------------------------------

  Dipole Moment: [D]
     X:    -9.5438      Y:    -1.1737      Z:    -0.5822     Total:     9.6333

*** Psi4 exiting successfully. Buy a developer a beer!
