                               Psi4 1.3.2 release

  ==> Input File <==

--------------------------------------------------------------------------
#psi4
#
memory 32 gb

molecule  {
-1 1
  O        1.8996640     1.2894670    -0.0585490
  O        2.6973380    -0.8133440     0.2844750
  C       -2.1007360    -0.3533330    -0.4966910
  C       -3.0415820     0.2042600     0.5765370
  C       -0.7068410     0.1811810    -0.3555730
  C        0.3061608    -0.4986343    -0.1248767
  C        1.7796670     0.0321010     0.0519970
  H       -2.0810980    -1.4485100    -0.4425170
  H       -2.4999350    -0.0921100    -1.4864390
  H       -3.0846480     1.2965650     0.5261450
  H       -4.0584310    -0.1803650     0.4515950
  H       -2.6909580    -0.0729930     1.5749670
  H       -0.5778430     1.2611610    -0.4426850
  H        0.3073520    -1.6376590    -0.0083210
units angstrom
no_reorient  #important for SAPT in psi4, default
symmetry c1  #important for SAPT in psi4, default
}

set PROPERTIES_ORIGIN ["COM"]
properties('MP2/aug-cc-pvtz', properties = ['dipole'])
--------------------------------------------------------------------------

    Molecular point group: c1
  Charge       = -1
  Multiplicity = 1
  Basis Set: AUG-CC-PVTZ
    Blend: AUG-CC-PVTZ
  Basis Set: (AUG-CC-PVTZ AUX)
    Blend: AUG-CC-PVTZ-JKFIT

    Orbital Energies [Eh]
    ---------------------

    Doubly Occupied:

       1A    -20.299449     2A    -20.292715     3A    -11.146821
       4A    -11.114670     5A    -11.111827     6A    -11.067896
       7A    -11.060745     8A     -1.161809     9A     -1.062365
      10A     -0.962595    11A     -0.875674    12A     -0.739562
      13A     -0.623462    14A     -0.547775    15A     -0.495880
      16A     -0.482138    17A     -0.448864    18A     -0.419917
      19A     -0.407282    20A     -0.382111    21A     -0.379199
      22A     -0.357634    23A     -0.336406    24A     -0.229323
      25A     -0.212482    26A     -0.202977    27A     -0.192829

  @DF-RHF Final Energy:  -343.27294439538804

   => Energetics <=

    Nuclear Repulsion Energy =            271.5261500886468866
    One-Electron Energy =               -1016.3693746017547710
    Two-Electron Energy =                 401.5702801177198467
    Total Energy =                       -343.2729443953880377
  Basis Set: (AUG-CC-PVTZ AUX)
    Blend: AUG-CC-PVTZ-RI
    Molecular point group: c1

    Geometry (in Angstrom), charge = -1, multiplicity = 1:

       Center              X                  Y                   Z               Mass
    ------------   -----------------  -----------------  -----------------  -----------------
         O            1.762673154500     1.274103278171    -0.054555682175    15.994914619570
         O            2.560347154500    -0.828707721829     0.288468317825    15.994914619570
         C           -2.237726845500    -0.368696721829    -0.492697682175    12.000000000000
         C           -3.178572845500     0.188896278171     0.580530317825    12.000000000000
         C           -0.843831845500     0.165817278171    -0.351579682175    12.000000000000
         C            0.169169954500    -0.513998021829    -0.120883382175    12.000000000000
         C            1.642676154500     0.016737278171     0.055990317825    12.000000000000
         H           -2.218088845500    -1.463873721829    -0.438523682175     1.007825032230
         H           -2.636925845500    -0.107473721829    -1.482445682175     1.007825032230
         H           -3.221638845500     1.281201278171     0.530138317825     1.007825032230
         H           -4.195421845500    -0.195728721829     0.455588317825     1.007825032230
         H           -2.827948845500    -0.088356721829     1.578960317825     1.007825032230
         H           -0.714833845500     1.245797278171    -0.438691682175     1.007825032230
         H            0.170361154500    -1.653022721829    -0.004327682175     1.007825032230

  Basis Set: AUG-CC-PVTZ
    Blend: AUG-CC-PVTZ
  Basis Set: (AUG-CC-PVTZ AUX)
    Blend: AUG-CC-PVTZ-JKFIT
	 Reference Energy          =    -343.2729443953880377 [Eh]
	 Singles Energy            =      -0.0000000000000000 [Eh]
	 Same-Spin Energy          =      -0.3476378961481081 [Eh]
	 Opposite-Spin Energy      =      -1.1039036298403435 [Eh]
	 Correlation Energy        =      -1.4515415259884517 [Eh]
	 Total Energy              =    -344.7244859213764698 [Eh]

	 ================> DF-SCS-MP2 Energies <==================
	-----------------------------------------------------------
	 SCS Same-Spin Scale       =       0.3333333333333333 [-]
	 SCS Opposite-Spin Scale   =       1.2000000000000000 [-]
	 SCS Same-Spin Energy      =      -0.1158792987160360 [Eh]
	 SCS Opposite-Spin Energy  =      -1.3246843558084123 [Eh]
	 SCS Correlation Energy    =      -1.4405636545244482 [Eh]
	 SCS Total Energy          =    -344.7135080499124911 [Eh]
	-----------------------------------------------------------

  Dipole Moment: [D]
     X:    -9.4361      Y:    -1.0380      Z:    -0.5814     Total:     9.5108

*** Psi4 exiting successfully. Buy a developer a beer!
