                               Psi4 1.3.2 release

  ==> Input File <==

--------------------------------------------------------------------------
#psi4
#
memory 32 gb

molecule  {
-1 1
  O        1.8996640     1.2894670    -0.0585490
  O        2.6973380    -0.8133440     0.2844750
  C       -2.1007360    -0.3533330    -0.4966910
  C       -3.0415820     0.2042600     0.5765370
  C       -0.7114627     0.1933713    -0.3567017
  C        0.3877500    -0.5533880    -0.1062960
  C        1.7796670     0.0321010     0.0519970
  H       -2.0906002    -1.4486943    -0.4436427
  H       -2.4999350    -0.0921100    -1.4864390
  H       -3.0846480     1.2965650     0.5261450
  H       -4.0584310    -0.1803650     0.4515950
  H       -2.6909580    -0.0729930     1.5749670
  H       -0.5778430     1.2611610    -0.4426850
  H        0.3073520    -1.6376590    -0.0083210
units angstrom
no_reorient  #important for SAPT in psi4, default
symmetry c1  #important for SAPT in psi4, default
}

set PROPERTIES_ORIGIN ["COM"]
properties('MP2/aug-cc-pvtz', properties = ['dipole'])
--------------------------------------------------------------------------

    Molecular point group: c1
  Charge       = -1
  Multiplicity = 1
  Basis Set: AUG-CC-PVTZ
    Blend: AUG-CC-PVTZ
  Basis Set: (AUG-CC-PVTZ AUX)
    Blend: AUG-CC-PVTZ-JKFIT

    Orbital Energies [Eh]
    ---------------------

    Doubly Occupied:

       1A    -20.295334     2A    -20.291575     3A    -11.141870
       4A    -11.115531     5A    -11.114011     6A    -11.086138
       7A    -11.071673     8A     -1.161772     9A     -1.061005
      10A     -0.953797    11A     -0.860546    12A     -0.743298
      13A     -0.635064    14A     -0.548552    15A     -0.494055
      16A     -0.486510    17A     -0.445950    18A     -0.419079
      19A     -0.408609    20A     -0.382794    21A     -0.374618
      22A     -0.357815    23A     -0.352651    24A     -0.211081
      25A     -0.208979    26A     -0.202323    27A     -0.191128

  @DF-RHF Final Energy:  -343.28511485287311

   => Energetics <=

    Nuclear Repulsion Energy =            270.7360915834754564
    One-Electron Energy =               -1014.8108976584899210
    Two-Electron Energy =                 400.7896912221414141
    Total Energy =                       -343.2851148528731073
  Basis Set: (AUG-CC-PVTZ AUX)
    Blend: AUG-CC-PVTZ-RI
    Molecular point group: c1

    Geometry (in Angstrom), charge = -1, multiplicity = 1:

       Center              X                  Y                   Z               Mass
    ------------   -----------------  -----------------  -----------------  -----------------
         O            1.753444651343     1.279262030078    -0.056658668930    15.994914619570
         O            2.551118651343    -0.823548969922     0.286365331070    15.994914619570
         C           -2.246955348657    -0.363537969922    -0.494800668930    12.000000000000
         C           -3.187801348657     0.194055030078     0.578427331070    12.000000000000
         C           -0.857682048657     0.183166330078    -0.354811368930    12.000000000000
         C            0.241530651343    -0.563592969922    -0.104405668930    12.000000000000
         C            1.633447651343     0.021896030078     0.053887331070    12.000000000000
         H           -2.236819548657    -1.458899269922    -0.441752368930     1.007825032230
         H           -2.646154348657    -0.102314969922    -1.484548668930     1.007825032230
         H           -3.230867348657     1.286360030078     0.528035331070     1.007825032230
         H           -4.204650348657    -0.190569969922     0.453485331070     1.007825032230
         H           -2.837177348657    -0.083197969922     1.576857331070     1.007825032230
         H           -0.724062348657     1.250956030078    -0.440794668930     1.007825032230
         H            0.161132651343    -1.647863969922    -0.006430668930     1.007825032230

  Basis Set: AUG-CC-PVTZ
    Blend: AUG-CC-PVTZ
  Basis Set: (AUG-CC-PVTZ AUX)
    Blend: AUG-CC-PVTZ-JKFIT
	 Reference Energy          =    -343.2851148528731073 [Eh]
	 Singles Energy            =      -0.0000000000000000 [Eh]
	 Same-Spin Energy          =      -0.3482054693046922 [Eh]
	 Opposite-Spin Energy      =      -1.1057754739705474 [Eh]
	 Correlation Energy        =      -1.4539809432752397 [Eh]
	 Total Energy              =    -344.7390957961483196 [Eh]

	 ================> DF-SCS-MP2 Energies <==================
	-----------------------------------------------------------
	 SCS Same-Spin Scale       =       0.3333333333333333 [-]
	 SCS Opposite-Spin Scale   =       1.2000000000000000 [-]
	 SCS Same-Spin Energy      =      -0.1160684897682307 [Eh]
	 SCS Opposite-Spin Energy  =      -1.3269305687646569 [Eh]
	 SCS Correlation Energy    =      -1.4429990585328876 [Eh]
	 SCS Total Energy          =    -344.7281139114060124 [Eh]
	-----------------------------------------------------------

  Dipole Moment: [D]
     X:    -9.5103      Y:    -1.1491      Z:    -0.5833     Total:     9.5972

*** Psi4 exiting successfully. Buy a developer a beer!
