                               Psi4 1.3.2 release

  ==> Input File <==

--------------------------------------------------------------------------
#psi4
#
memory 32 gb

molecule  {
-1 1
  O        1.8996640     1.2894670    -0.0585490
  O        2.6973380    -0.8133440     0.2844750
  C       -2.1007360    -0.3533330    -0.4966910
  C       -3.0415820     0.2042600     0.5765370
  C       -0.7068410     0.1811810    -0.3555730
  C        0.3877500    -0.5533880    -0.1062960
  C        1.7796670     0.0321010     0.0519970
  H       -2.0810980    -1.4485100    -0.4425170
  H       -2.4999350    -0.0921100    -1.4864390
  H       -3.0846480     1.2965650     0.5261450
  H       -4.0584310    -0.1803650     0.4515950
  H       -2.6909580    -0.0729930     1.5749670
  H       -0.5660207     1.3601382    -0.4506686
  H        0.3073520    -1.6376590    -0.0083210
units angstrom
no_reorient  #important for SAPT in psi4, default
symmetry c1  #important for SAPT in psi4, default
}

set PROPERTIES_ORIGIN ["COM"]
properties('MP2/aug-cc-pvtz', properties = ['dipole'])
--------------------------------------------------------------------------

    Molecular point group: c1
  Charge       = -1
  Multiplicity = 1
  Basis Set: AUG-CC-PVTZ
    Blend: AUG-CC-PVTZ
  Basis Set: (AUG-CC-PVTZ AUX)
    Blend: AUG-CC-PVTZ-JKFIT

    Orbital Energies [Eh]
    ---------------------

    Doubly Occupied:

       1A    -20.295586     2A    -20.291647     3A    -11.142304
       4A    -11.115745     5A    -11.114945     6A    -11.096391
       7A    -11.070956     8A     -1.161959     9A     -1.061165
      10A     -0.953119    11A     -0.861178    12A     -0.744153
      13A     -0.624598    14A     -0.543504    15A     -0.494934
      16A     -0.484855    17A     -0.444548    18A     -0.416814
      19A     -0.408957    20A     -0.383194    21A     -0.376343
      22A     -0.358165    23A     -0.338031    24A     -0.211529
      25A     -0.209040    26A     -0.205381    27A     -0.191306

  @DF-RHF Final Energy:  -343.27850319291787

   => Energetics <=

    Nuclear Repulsion Energy =            270.4392022920596332
    One-Electron Energy =               -1014.2347147549811552
    Two-Electron Energy =                 400.5170092700037117
    Total Energy =                       -343.2785031929178672
  Basis Set: (AUG-CC-PVTZ AUX)
    Blend: AUG-CC-PVTZ-RI
    Molecular point group: c1

    Geometry (in Angstrom), charge = -1, multiplicity = 1:

       Center              X                  Y                   Z               Mass
    ------------   -----------------  -----------------  -----------------  -----------------
         O            1.752667710839     1.279729962262    -0.056725637108    15.994914619570
         O            2.550341710839    -0.823081037738     0.286298362892    15.994914619570
         C           -2.247732289161    -0.363070037738    -0.494867637108    12.000000000000
         C           -3.188578289161     0.194522962262     0.578360362892    12.000000000000
         C           -0.853837289161     0.171443962262    -0.353749637108    12.000000000000
         C            0.240753710839    -0.563125037738    -0.104472637108    12.000000000000
         C            1.632670710839     0.022363962262     0.053820362892    12.000000000000
         H           -2.228094289161    -1.458247037738    -0.440693637108     1.007825032230
         H           -2.646931289161    -0.101847037738    -1.484615637108     1.007825032230
         H           -3.231644289161     1.286827962262     0.527968362892     1.007825032230
         H           -4.205427289161    -0.190102037738     0.453418362892     1.007825032230
         H           -2.837954289161    -0.082730037738     1.576790362892     1.007825032230
         H           -0.713016989161     1.350401162262    -0.448845237108     1.007825032230
         H            0.160355710839    -1.647396037738    -0.006497637108     1.007825032230

  Basis Set: AUG-CC-PVTZ
    Blend: AUG-CC-PVTZ
  Basis Set: (AUG-CC-PVTZ AUX)
    Blend: AUG-CC-PVTZ-JKFIT
	 Reference Energy          =    -343.2785031929178672 [Eh]
	 Singles Energy            =      -0.0000000000000000 [Eh]
	 Same-Spin Energy          =      -0.3484812800638004 [Eh]
	 Opposite-Spin Energy      =      -1.1065077562130516 [Eh]
	 Correlation Energy        =      -1.4549890362768521 [Eh]
	 Total Energy              =    -344.7334922291947237 [Eh]

	 ================> DF-SCS-MP2 Energies <==================
	-----------------------------------------------------------
	 SCS Same-Spin Scale       =       0.3333333333333333 [-]
	 SCS Opposite-Spin Scale   =       1.2000000000000000 [-]
	 SCS Same-Spin Energy      =      -0.1161604266879334 [Eh]
	 SCS Opposite-Spin Energy  =      -1.3278093074556618 [Eh]
	 SCS Correlation Energy    =      -1.4439697341435953 [Eh]
	 SCS Total Energy          =    -344.7224729270614603 [Eh]
	-----------------------------------------------------------

  Dipole Moment: [D]
     X:    -9.4872      Y:    -1.1846      Z:    -0.5728     Total:     9.5780

*** Psi4 exiting successfully. Buy a developer a beer!
