                               Psi4 1.4a3.dev225

  ==> Input File <==

--------------------------------------------------------------------------
#psi4
#
memory 32 gb

molecule  {
-1 1
  O        1.8994270     1.2905180    -0.0615170
  O        2.6993700    -0.8109500     0.2832770
  C       -2.1001690    -0.3616000    -0.4913260
  C       -3.0433460     0.2119310     0.5709670
  C       -0.7080250     0.1770830    -0.3546910
  C        0.3885780    -0.5541740    -0.1016650
  C        1.7340279     0.0136661     0.0468164
  H       -2.0812530    -1.4558260    -0.4203270
  H       -2.4968010    -0.1155520    -1.4857470
  H       -3.0817280     1.3037570     0.5071420
  H       -4.0608920    -0.1705790     0.4451360
  H       -2.6986290    -0.0550030     1.5741980
  H       -0.5806440     1.2564400    -0.4499950
  H        0.3081890    -1.6372690     0.0045550
units angstrom
no_reorient  #important for SAPT in psi4, default
symmetry c1  #important for SAPT in psi4, default
}

set PROPERTIES_ORIGIN ["COM"]
properties('MP2/aug-cc-pvtz', properties = ['dipole'])
--------------------------------------------------------------------------

    Molecular point group: c1
  Charge       = -1
  Multiplicity = 1
  Basis Set: AUG-CC-PVTZ
    Blend: AUG-CC-PVTZ
  Basis Set: (AUG-CC-PVTZ AUX)
    Blend: AUG-CC-PVTZ-JKFIT

    Orbital Energies [Eh]
    ---------------------

    Doubly Occupied:

       1A    -20.293579     2A    -20.288604     3A    -11.141681
       4A    -11.118496     5A    -11.117350     6A    -11.091885
       7A    -11.072753     8A     -1.148031     9A     -1.043478
      10A     -0.958775    11A     -0.869708    12A     -0.751170
      13A     -0.643022    14A     -0.556142    15A     -0.497216
      16A     -0.490339    17A     -0.442268    18A     -0.421941
      19A     -0.411331    20A     -0.383572    21A     -0.368737
      22A     -0.350516    23A     -0.349686    24A     -0.216576
      25A     -0.206702    26A     -0.200410    27A     -0.183525

  @DF-RHF Final Energy:  -343.27777050522411

   => Energetics <=

    Nuclear Repulsion Energy =            270.8592023706997338
    One-Electron Energy =               -1015.0389613059276144
    Two-Electron Energy =                 400.9019884300038257
    Total Energy =                       -343.2777705052241117
  Basis Set: (AUG-CC-PVTZ AUX)
    Blend: AUG-CC-PVTZ-RI
    Molecular point group: c1

    Geometry (in Angstrom), charge = -1, multiplicity = 1:

       Center              X                  Y                   Z               Mass
    ------------   -----------------  -----------------  -----------------  -----------------
         O            1.758041865862     1.284130462899    -0.059140092626    15.994914619570
         O            2.557984865862    -0.817337537101     0.285653907374    15.994914619570
         C           -2.241554134138    -0.367987537101    -0.488949092626    12.000000000000
         C           -3.184731134138     0.205543462899     0.573343907374    12.000000000000
         C           -0.849410134138     0.170695462899    -0.352314092626    12.000000000000
         C            0.247192865862    -0.560561537101    -0.099288092626    12.000000000000
         C            1.592642765862     0.007278562899     0.049193307374    12.000000000000
         H           -2.222638134138    -1.462213537101    -0.417950092626     1.007825032230
         H           -2.638186134138    -0.121939537101    -1.483370092626     1.007825032230
         H           -3.223113134138     1.297369462899     0.509518907374     1.007825032230
         H           -4.202277134138    -0.176966537101     0.447512907374     1.007825032230
         H           -2.840014134138    -0.061390537101     1.576574907374     1.007825032230
         H           -0.722029134138     1.250052462899    -0.447618092626     1.007825032230
         H            0.166803865862    -1.643656537101     0.006931907374     1.007825032230

  Basis Set: AUG-CC-PVTZ
    Blend: AUG-CC-PVTZ
  Basis Set: (AUG-CC-PVTZ AUX)
    Blend: AUG-CC-PVTZ-JKFIT
	 Reference Energy          =    -343.2777705052241117 [Eh]
	 Singles Energy            =      -0.0000000000000000 [Eh]
	 Same-Spin Energy          =      -0.3493391615238962 [Eh]
	 Opposite-Spin Energy      =      -1.1081514512526685 [Eh]
	 Correlation Energy        =      -1.4574906127765646 [Eh]
	 Total Energy              =    -344.7352611180006647 [Eh]

	 ================> DF-SCS-MP2 Energies <==================
	-----------------------------------------------------------
	 SCS Same-Spin Scale       =       0.3333333333333333 [-]
	 SCS Opposite-Spin Scale   =       1.2000000000000000 [-]
	 SCS Same-Spin Energy      =      -0.1164463871746321 [Eh]
	 SCS Opposite-Spin Energy  =      -1.3297817415032021 [Eh]
	 SCS Correlation Energy    =      -1.4462281286778340 [Eh]
	 SCS Total Energy          =    -344.7239986339019424 [Eh]
	-----------------------------------------------------------

  Dipole Moment: [D]
     X:    -9.8462      Y:    -1.2630      Z:    -0.5997     Total:     9.9450

*** Psi4 exiting successfully. Buy a developer a beer!
