                               Psi4 1.3.2 release

  ==> Input File <==

--------------------------------------------------------------------------
#psi4
#
memory 32 gb

molecule  {
-1 1
  O        1.8996640     1.2894670    -0.0585490
  O        2.6973380    -0.8133440     0.2844750
  C       -2.1007360    -0.3533330    -0.4966910
  C       -3.0415820     0.2042600     0.5765370
  C       -0.6662567     0.2385032    -0.3549692
  C        0.3877500    -0.5533880    -0.1062960
  C        1.7796670     0.0321010     0.0519970
  H       -2.0810980    -1.4485100    -0.4425170
  H       -2.4999350    -0.0921100    -1.4864390
  H       -3.0846480     1.2965650     0.5261450
  H       -4.0584310    -0.1803650     0.4515950
  H       -2.6909580    -0.0729930     1.5749670
  H       -0.5778430     1.2611610    -0.4426850
  H        0.3637347    -1.6395055     0.0008423
units angstrom
no_reorient  #important for SAPT in psi4, default
symmetry c1  #important for SAPT in psi4, default
}

set PROPERTIES_ORIGIN ["COM"]
properties('MP2/aug-cc-pvtz', properties = ['dipole'])
--------------------------------------------------------------------------

    Molecular point group: c1
  Charge       = -1
  Multiplicity = 1
  Basis Set: AUG-CC-PVTZ
    Blend: AUG-CC-PVTZ
  Basis Set: (AUG-CC-PVTZ AUX)
    Blend: AUG-CC-PVTZ-JKFIT

    Orbital Energies [Eh]
    ---------------------

    Doubly Occupied:

       1A    -20.294504     2A    -20.290003     3A    -11.138857
       4A    -11.115129     5A    -11.114267     6A    -11.084999
       7A    -11.070373     8A     -1.160911     9A     -1.060121
      10A     -0.946173    11A     -0.862848    12A     -0.737341
      13A     -0.642569    14A     -0.547078    15A     -0.490964
      16A     -0.484824    17A     -0.448332    18A     -0.423781
      19A     -0.405280    20A     -0.381741    21A     -0.372083
      22A     -0.357365    23A     -0.351410    24A     -0.208827
      25A     -0.207157    26A     -0.205798    27A     -0.190465

  @DF-RHF Final Energy:  -343.28072496197001

   => Energetics <=

    Nuclear Repulsion Energy =            270.6530705942261079
    One-Electron Energy =               -1014.6811912095109847
    Two-Electron Energy =                 400.7473956533149249
    Total Energy =                       -343.2807249619700087
  Basis Set: (AUG-CC-PVTZ AUX)
    Blend: AUG-CC-PVTZ-RI
    Molecular point group: c1

    Geometry (in Angstrom), charge = -1, multiplicity = 1:

       Center              X                  Y                   Z               Mass
    ------------   -----------------  -----------------  -----------------  -----------------
         O            1.747297194298     1.273810874044    -0.056973269730    15.994914619570
         O            2.544971194298    -0.829000125956     0.286050730270    15.994914619570
         C           -2.253102805702    -0.368989125956    -0.495115269730    12.000000000000
         C           -3.193948805702     0.188603874044     0.578112730270    12.000000000000
         C           -0.818623505702     0.222847074044    -0.353393469730    12.000000000000
         C            0.235383194298    -0.569044125956    -0.104720269730    12.000000000000
         C            1.627300194298     0.016444874044     0.053572730270    12.000000000000
         H           -2.233464805702    -1.464166125956    -0.440941269730     1.007825032230
         H           -2.652301805702    -0.107766125956    -1.484863269730     1.007825032230
         H           -3.237014805702     1.280908874044     0.527720730270     1.007825032230
         H           -4.210797805702    -0.196021125956     0.453170730270     1.007825032230
         H           -2.843324805702    -0.088649125956     1.576542730270     1.007825032230
         H           -0.730209805702     1.245504874044    -0.441109269730     1.007825032230
         H            0.211367894298    -1.655161625956     0.002418030270     1.007825032230

  Basis Set: AUG-CC-PVTZ
    Blend: AUG-CC-PVTZ
  Basis Set: (AUG-CC-PVTZ AUX)
    Blend: AUG-CC-PVTZ-JKFIT
	 Reference Energy          =    -343.2807249619700087 [Eh]
	 Singles Energy            =      -0.0000000000000000 [Eh]
	 Same-Spin Energy          =      -0.3475707228375515 [Eh]
	 Opposite-Spin Energy      =      -1.1051402098768248 [Eh]
	 Correlation Energy        =      -1.4527109327143763 [Eh]
	 Total Energy              =    -344.7334358946843622 [Eh]

	 ================> DF-SCS-MP2 Energies <==================
	-----------------------------------------------------------
	 SCS Same-Spin Scale       =       0.3333333333333333 [-]
	 SCS Opposite-Spin Scale   =       1.2000000000000000 [-]
	 SCS Same-Spin Energy      =      -0.1158569076125172 [Eh]
	 SCS Opposite-Spin Energy  =      -1.3261682518521898 [Eh]
	 SCS Correlation Energy    =      -1.4420251594647069 [Eh]
	 SCS Total Energy          =    -344.7227501214347285 [Eh]
	-----------------------------------------------------------

  Dipole Moment: [D]
     X:    -9.4568      Y:    -1.1286      Z:    -0.5799     Total:     9.5415

*** Psi4 exiting successfully. Buy a developer a beer!
