                               Psi4 1.3.2 release

  ==> Input File <==

--------------------------------------------------------------------------
#psi4
#
memory 32 gb

molecule  {
-1 1
  O        1.8996640     1.2894670    -0.0585490
  O        2.6973380    -0.8133440     0.2844750
  C       -2.1007360    -0.3533330    -0.4966910
  C       -3.0415820     0.2042600     0.5765370
  C       -0.7444252     0.1218454    -0.3554935
  C        0.3877500    -0.5533880    -0.1062960
  C        1.7796670     0.0321010     0.0519970
  H       -2.0810980    -1.4485100    -0.4425170
  H       -2.4999350    -0.0921100    -1.4864390
  H       -3.0846480     1.2965650     0.5261450
  H       -4.0584310    -0.1803650     0.4515950
  H       -2.6909580    -0.0729930     1.5749670
  H       -0.5778430     1.2611610    -0.4426850
  H        0.2511897    -1.6328406    -0.0177529
units angstrom
no_reorient  #important for SAPT in psi4, default
symmetry c1  #important for SAPT in psi4, default
}

set PROPERTIES_ORIGIN ["COM"]
properties('MP2/aug-cc-pvtz', properties = ['dipole'])
--------------------------------------------------------------------------

    Molecular point group: c1
  Charge       = -1
  Multiplicity = 1
  Basis Set: AUG-CC-PVTZ
    Blend: AUG-CC-PVTZ
  Basis Set: (AUG-CC-PVTZ AUX)
    Blend: AUG-CC-PVTZ-JKFIT

    Orbital Energies [Eh]
    ---------------------

    Doubly Occupied:

       1A    -20.296599     2A    -20.293594     3A    -11.145538
       4A    -11.117093     5A    -11.112867     6A    -11.086942
       7A    -11.070770     8A     -1.163131     9A     -1.062338
      10A     -0.963547    11A     -0.862624    12A     -0.751137
      13A     -0.625767    14A     -0.551695    15A     -0.500959
      16A     -0.484339    17A     -0.447004    18A     -0.418857
      19A     -0.411535    20A     -0.387838    21A     -0.381759
      22A     -0.359005    23A     -0.330492    24A     -0.214371
      25A     -0.210526    26A     -0.204116    27A     -0.192232

  @DF-RHF Final Energy:  -343.27812022085720

   => Energetics <=

    Nuclear Repulsion Energy =            271.1014663900387518
    One-Electron Energy =               -1015.4658246109989932
    Two-Electron Energy =                 401.0862380001029805
    Total Energy =                       -343.2781202208572040
  Basis Set: (AUG-CC-PVTZ AUX)
    Blend: AUG-CC-PVTZ-RI
    Molecular point group: c1

    Geometry (in Angstrom), charge = -1, multiplicity = 1:

       Center              X                  Y                   Z               Mass
    ------------   -----------------  -----------------  -----------------  -----------------
         O            1.757913094820     1.287877026910    -0.056720532005    15.994914619570
         O            2.555587094820    -0.814933973090     0.286303467995    15.994914619570
         C           -2.242486905180    -0.354922973090    -0.494862532005    12.000000000000
         C           -3.183332905180     0.202670026910     0.578365467995    12.000000000000
         C           -0.886176105180     0.120255426910    -0.353665032005    12.000000000000
         C            0.245999094820    -0.554977973090    -0.104467532005    12.000000000000
         C            1.637916094820     0.030511026910     0.053825467995    12.000000000000
         H           -2.222848905180    -1.450099973090    -0.440688532005     1.007825032230
         H           -2.641685905180    -0.093699973090    -1.484610532005     1.007825032230
         H           -3.226398905180     1.294975026910     0.527973467995     1.007825032230
         H           -4.200181905180    -0.181954973090     0.453423467995     1.007825032230
         H           -2.832708905180    -0.074582973090     1.576795467995     1.007825032230
         H           -0.719593905180     1.259571026910    -0.440856532005     1.007825032230
         H            0.109438794820    -1.634430573090    -0.015924432005     1.007825032230

  Basis Set: AUG-CC-PVTZ
    Blend: AUG-CC-PVTZ
  Basis Set: (AUG-CC-PVTZ AUX)
    Blend: AUG-CC-PVTZ-JKFIT
	 Reference Energy          =    -343.2781202208572040 [Eh]
	 Singles Energy            =      -0.0000000000000000 [Eh]
	 Same-Spin Energy          =      -0.3491160928799691 [Eh]
	 Opposite-Spin Energy      =      -1.1068634577777314 [Eh]
	 Correlation Energy        =      -1.4559795506577005 [Eh]
	 Total Energy              =    -344.7340997715148774 [Eh]

	 ================> DF-SCS-MP2 Energies <==================
	-----------------------------------------------------------
	 SCS Same-Spin Scale       =       0.3333333333333333 [-]
	 SCS Opposite-Spin Scale   =       1.2000000000000000 [-]
	 SCS Same-Spin Energy      =      -0.1163720309599897 [Eh]
	 SCS Opposite-Spin Energy  =      -1.3282361493332777 [Eh]
	 SCS Correlation Energy    =      -1.4446081802932675 [Eh]
	 SCS Total Energy          =    -344.7227284011504480 [Eh]
	-----------------------------------------------------------

  Dipole Moment: [D]
     X:    -9.5345      Y:    -1.1840      Z:    -0.5731     Total:     9.6248

*** Psi4 exiting successfully. Buy a developer a beer!
