                               Psi4 1.3.2 release

  ==> Input File <==

--------------------------------------------------------------------------
#psi4
#
memory 32 gb

molecule  {
-1 1
  O        1.8996640     1.2894670    -0.0585490
  O        2.6973380    -0.8133440     0.2844750
  C       -2.1007360    -0.3533330    -0.4966910
  C       -3.0415820     0.2042600     0.5765370
  C       -0.7068410     0.1811810    -0.3555730
  C        0.3877500    -0.5533880    -0.1062960
  C        1.8519684    -0.0345099     0.0703135
  H       -2.0810980    -1.4485100    -0.4425170
  H       -2.4999350    -0.0921100    -1.4864390
  H       -3.0846480     1.2965650     0.5261450
  H       -4.0584310    -0.1803650     0.4515950
  H       -2.6909580    -0.0729930     1.5749670
  H       -0.5778430     1.2611610    -0.4426850
  H        0.3073520    -1.6376590    -0.0083210
units angstrom
no_reorient  #important for SAPT in psi4, default
symmetry c1  #important for SAPT in psi4, default
}

set PROPERTIES_ORIGIN ["COM"]
properties('MP2/aug-cc-pvtz', properties = ['dipole'])
--------------------------------------------------------------------------

    Molecular point group: c1
  Charge       = -1
  Multiplicity = 1
  Basis Set: AUG-CC-PVTZ
    Blend: AUG-CC-PVTZ
  Basis Set: (AUG-CC-PVTZ AUX)
    Blend: AUG-CC-PVTZ-JKFIT

    Orbital Energies [Eh]
    ---------------------

    Doubly Occupied:

       1A    -20.318289     2A    -20.273945     3A    -11.141248
       4A    -11.112597     5A    -11.110298     6A    -11.079957
       7A    -11.065750     8A     -1.210429     9A     -1.047669
      10A     -0.949132    11A     -0.854196    12A     -0.737158
      13A     -0.627854    14A     -0.541837    15A     -0.494654
      16A     -0.480594    17A     -0.457325    18A     -0.418688
      19A     -0.406822    20A     -0.385334    21A     -0.378626
      22A     -0.376813    23A     -0.346145    24A     -0.216768
      25A     -0.208931    26A     -0.191809    27A     -0.184524

  @DF-RHF Final Energy:  -343.27401452110189

   => Energetics <=

    Nuclear Repulsion Energy =            270.7971490383601463
    One-Electron Energy =               -1014.9075465911951142
    Two-Electron Energy =                 400.8363830317330212
    Total Energy =                       -343.2740145211018898
  Basis Set: (AUG-CC-PVTZ AUX)
    Blend: AUG-CC-PVTZ-RI
    Molecular point group: c1

    Geometry (in Angstrom), charge = -1, multiplicity = 1:

       Center              X                  Y                   Z               Mass
    ------------   -----------------  -----------------  -----------------  -----------------
         O            1.744028148949     1.288807513781    -0.059026055926    15.994914619570
         O            2.541702148949    -0.814003486219     0.283997944074    15.994914619570
         C           -2.256371851051    -0.353992486219    -0.497168055926    12.000000000000
         C           -3.197217851051     0.203600513781     0.576059944074    12.000000000000
         C           -0.862476851051     0.180521513781    -0.356050055926    12.000000000000
         C            0.232114148949    -0.554047486219    -0.106773055926    12.000000000000
         C            1.696332548949    -0.035169386219     0.069836444074    12.000000000000
         H           -2.236733851051    -1.449169486219    -0.442994055926     1.007825032230
         H           -2.655570851051    -0.092769486219    -1.486916055926     1.007825032230
         H           -3.240283851051     1.295905513781     0.525667944074     1.007825032230
         H           -4.214066851051    -0.181024486219     0.451117944074     1.007825032230
         H           -2.846593851051    -0.073652486219     1.574489944074     1.007825032230
         H           -0.733478851051     1.260501513781    -0.443162055926     1.007825032230
         H            0.151716148949    -1.638318486219    -0.008798055926     1.007825032230

  Basis Set: AUG-CC-PVTZ
    Blend: AUG-CC-PVTZ
  Basis Set: (AUG-CC-PVTZ AUX)
    Blend: AUG-CC-PVTZ-JKFIT
	 Reference Energy          =    -343.2740145211018898 [Eh]
	 Singles Energy            =      -0.0000000000000000 [Eh]
	 Same-Spin Energy          =      -0.3471584198061680 [Eh]
	 Opposite-Spin Energy      =      -1.1036550182056684 [Eh]
	 Correlation Energy        =      -1.4508134380118363 [Eh]
	 Total Energy              =    -344.7248279591137248 [Eh]

	 ================> DF-SCS-MP2 Energies <==================
	-----------------------------------------------------------
	 SCS Same-Spin Scale       =       0.3333333333333333 [-]
	 SCS Opposite-Spin Scale   =       1.2000000000000000 [-]
	 SCS Same-Spin Energy      =      -0.1157194732687227 [Eh]
	 SCS Opposite-Spin Energy  =      -1.3243860218468020 [Eh]
	 SCS Correlation Energy    =      -1.4401054951155245 [Eh]
	 SCS Total Energy          =    -344.7141200162174073 [Eh]
	-----------------------------------------------------------

  Dipole Moment: [D]
     X:    -8.8529      Y:    -1.9303      Z:    -0.4036     Total:     9.0699

*** Psi4 exiting successfully. Buy a developer a beer!
