                               Psi4 1.3.2 release

  ==> Input File <==

--------------------------------------------------------------------------
#psi4
#
memory 32 gb

molecule  {
-1 1
  O        1.8996640     1.2894670    -0.0585490
  O        2.6973380    -0.8133440     0.2844750
  C       -2.1007360    -0.3533330    -0.4966910
  C       -3.0415820     0.2042600     0.5765370
  C       -0.6979163     0.1566793    -0.3533480
  C        0.3877500    -0.5533880    -0.1062960
  C        1.7796670     0.0321010     0.0519970
  H       -2.0620988    -1.4478913    -0.4402780
  H       -2.4999350    -0.0921100    -1.4864390
  H       -3.0846480     1.2965650     0.5261450
  H       -4.0584310    -0.1803650     0.4515950
  H       -2.6909580    -0.0729930     1.5749670
  H       -0.5778430     1.2611610    -0.4426850
  H        0.3073520    -1.6376590    -0.0083210
units angstrom
no_reorient  #important for SAPT in psi4, default
symmetry c1  #important for SAPT in psi4, default
}

set PROPERTIES_ORIGIN ["COM"]
properties('MP2/aug-cc-pvtz', properties = ['dipole'])
--------------------------------------------------------------------------

    Molecular point group: c1
  Charge       = -1
  Multiplicity = 1
  Basis Set: AUG-CC-PVTZ
    Blend: AUG-CC-PVTZ
  Basis Set: (AUG-CC-PVTZ AUX)
    Blend: AUG-CC-PVTZ-JKFIT

    Orbital Energies [Eh]
    ---------------------

    Doubly Occupied:

       1A    -20.295439     2A    -20.291813     3A    -11.142304
       4A    -11.116265     5A    -11.114055     6A    -11.084021
       7A    -11.066770     8A     -1.161944     9A     -1.061128
      10A     -0.955277    11A     -0.866082    12A     -0.744906
      13A     -0.629073    14A     -0.549631    15A     -0.496010
      16A     -0.485167    17A     -0.445982    18A     -0.419643
      19A     -0.409335    20A     -0.384034    21A     -0.377716
      22A     -0.358374    23A     -0.340608    24A     -0.211592
      25A     -0.209492    26A     -0.209078    27A     -0.191294

  @DF-RHF Final Energy:  -343.28530110368706

   => Energetics <=

    Nuclear Repulsion Energy =            271.0885708081078178
    One-Electron Energy =               -1015.5136770023556210
    Two-Electron Energy =                 401.1398050905606851
    Total Energy =                       -343.2853011036870612
  Basis Set: (AUG-CC-PVTZ AUX)
    Blend: AUG-CC-PVTZ-RI
    Molecular point group: c1

    Geometry (in Angstrom), charge = -1, multiplicity = 1:

       Center              X                  Y                   Z               Mass
    ------------   -----------------  -----------------  -----------------  -----------------
         O            1.751513387894     1.283699371404    -0.057099232342    15.994914619570
         O            2.549187387894    -0.819111628596     0.285924767658    15.994914619570
         C           -2.248886612106    -0.359100628596    -0.495241232342    12.000000000000
         C           -3.189732612106     0.198492371404     0.577986767658    12.000000000000
         C           -0.846066912106     0.150911671404    -0.351898232342    12.000000000000
         C            0.239599387894    -0.559155628596    -0.104846232342    12.000000000000
         C            1.631516387894     0.026333371404     0.053446767658    12.000000000000
         H           -2.210249412106    -1.453658928596    -0.438828232342     1.007825032230
         H           -2.648085612106    -0.097877628596    -1.484989232342     1.007825032230
         H           -3.232798612106     1.290797371404     0.527594767658     1.007825032230
         H           -4.206581612106    -0.186132628596     0.453044767658     1.007825032230
         H           -2.839108612106    -0.078760628596     1.576416767658     1.007825032230
         H           -0.725993612106     1.255393371404    -0.441235232342     1.007825032230
         H            0.159201387894    -1.643426628596    -0.006871232342     1.007825032230

  Basis Set: AUG-CC-PVTZ
    Blend: AUG-CC-PVTZ
  Basis Set: (AUG-CC-PVTZ AUX)
    Blend: AUG-CC-PVTZ-JKFIT
	 Reference Energy          =    -343.2853011036870612 [Eh]
	 Singles Energy            =      -0.0000000000000000 [Eh]
	 Same-Spin Energy          =      -0.3480635236776927 [Eh]
	 Opposite-Spin Energy      =      -1.1052403674997087 [Eh]
	 Correlation Energy        =      -1.4533038911774012 [Eh]
	 Total Energy              =    -344.7386049948644882 [Eh]

	 ================> DF-SCS-MP2 Energies <==================
	-----------------------------------------------------------
	 SCS Same-Spin Scale       =       0.3333333333333333 [-]
	 SCS Opposite-Spin Scale   =       1.2000000000000000 [-]
	 SCS Same-Spin Energy      =      -0.1160211745592309 [Eh]
	 SCS Opposite-Spin Energy  =      -1.3262884409996503 [Eh]
	 SCS Correlation Energy    =      -1.4423096155588810 [Eh]
	 SCS Total Energy          =    -344.7276107192459449 [Eh]
	-----------------------------------------------------------

  Dipole Moment: [D]
     X:    -9.5107      Y:    -1.1640      Z:    -0.5705     Total:     9.5986

*** Psi4 exiting successfully. Buy a developer a beer!
