                               Psi4 1.3.2 release

  ==> Input File <==

--------------------------------------------------------------------------
#psi4
#
memory 32 gb

molecule  {
-1 1
  O        1.8996640     1.2894670    -0.0585490
  O        2.6973380    -0.8133440     0.2844750
  C       -2.1007360    -0.3533330    -0.4966910
  C       -3.0415820     0.2042600     0.5765370
  C       -0.7023254     0.1689500    -0.3544551
  C        0.3877500    -0.5533880    -0.1062960
  C        1.7796670     0.0321010     0.0519970
  H       -2.0715973    -1.4482423    -0.4413954
  H       -2.4999350    -0.0921100    -1.4864390
  H       -3.0846480     1.2965650     0.5261450
  H       -4.0584310    -0.1803650     0.4515950
  H       -2.6909580    -0.0729930     1.5749670
  H       -0.5778430     1.2611610    -0.4426850
  H        0.3073520    -1.6376590    -0.0083210
units angstrom
no_reorient  #important for SAPT in psi4, default
symmetry c1  #important for SAPT in psi4, default
}

set PROPERTIES_ORIGIN ["COM"]
properties('MP2/aug-cc-pvtz', properties = ['dipole'])
--------------------------------------------------------------------------

    Molecular point group: c1
  Charge       = -1
  Multiplicity = 1
  Basis Set: AUG-CC-PVTZ
    Blend: AUG-CC-PVTZ
  Basis Set: (AUG-CC-PVTZ AUX)
    Blend: AUG-CC-PVTZ-JKFIT

    Orbital Energies [Eh]
    ---------------------

    Doubly Occupied:

       1A    -20.295392     2A    -20.291724     3A    -11.142144
       4A    -11.116013     5A    -11.114010     6A    -11.084700
       7A    -11.068384     8A     -1.161878     9A     -1.061079
      10A     -0.954729    11A     -0.864208    12A     -0.744349
      13A     -0.630966    14A     -0.549318    15A     -0.495305
      16A     -0.485585    17A     -0.445954    18A     -0.419400
      19A     -0.409111    20A     -0.383418    21A     -0.376909
      22A     -0.358172    23A     -0.344797    24A     -0.211417
      25A     -0.209041    26A     -0.207059    27A     -0.191246

  @DF-RHF Final Energy:  -343.28579044328131

   => Energetics <=

    Nuclear Repulsion Energy =            270.9705458182319830
    One-Electron Energy =               -1015.2800549095211409
    Two-Electron Energy =                 401.0237186480077867
    Total Energy =                       -343.2857904432813143
  Basis Set: (AUG-CC-PVTZ AUX)
    Blend: AUG-CC-PVTZ-RI
    Molecular point group: c1

    Geometry (in Angstrom), charge = -1, multiplicity = 1:

       Center              X                  Y                   Z               Mass
    ------------   -----------------  -----------------  -----------------  -----------------
         O            1.752144235243     1.282216255244    -0.056953728771    15.994914619570
         O            2.549818235243    -0.820594744756     0.286070271229    15.994914619570
         C           -2.248255764757    -0.360583744756    -0.495095728771    12.000000000000
         C           -3.189101764757     0.197009255244     0.578132271229    12.000000000000
         C           -0.849845164757     0.161699255244    -0.352859828771    12.000000000000
         C            0.240230235243    -0.560638744756    -0.104700728771    12.000000000000
         C            1.632147235243     0.024850255244     0.053592271229    12.000000000000
         H           -2.219117064757    -1.455493044756    -0.439800128771     1.007825032230
         H           -2.647454764757    -0.099360744756    -1.484843728771     1.007825032230
         H           -3.232167764757     1.289314255244     0.527740271229     1.007825032230
         H           -4.205950764757    -0.187615744756     0.453190271229     1.007825032230
         H           -2.838477764757    -0.080243744756     1.576562271229     1.007825032230
         H           -0.725362764757     1.253910255244    -0.441089728771     1.007825032230
         H            0.159832235243    -1.644909744756    -0.006725728771     1.007825032230

  Basis Set: AUG-CC-PVTZ
    Blend: AUG-CC-PVTZ
  Basis Set: (AUG-CC-PVTZ AUX)
    Blend: AUG-CC-PVTZ-JKFIT
	 Reference Energy          =    -343.2857904432813143 [Eh]
	 Singles Energy            =      -0.0000000000000000 [Eh]
	 Same-Spin Energy          =      -0.3480945126012208 [Eh]
	 Opposite-Spin Energy      =      -1.1053837799052855 [Eh]
	 Correlation Energy        =      -1.4534782925065062 [Eh]
	 Total Energy              =    -344.7392687357878458 [Eh]

	 ================> DF-SCS-MP2 Energies <==================
	-----------------------------------------------------------
	 SCS Same-Spin Scale       =       0.3333333333333333 [-]
	 SCS Opposite-Spin Scale   =       1.2000000000000000 [-]
	 SCS Same-Spin Energy      =      -0.1160315042004069 [Eh]
	 SCS Opposite-Spin Energy  =      -1.3264605358863426 [Eh]
	 SCS Correlation Energy    =      -1.4424920400867496 [Eh]
	 SCS Total Energy          =    -344.7282824833680479 [Eh]
	-----------------------------------------------------------

  Dipole Moment: [D]
     X:    -9.5111      Y:    -1.1583      Z:    -0.5749     Total:     9.5986

*** Psi4 exiting successfully. Buy a developer a beer!
