                               Psi4 1.3.2 release

  ==> Input File <==

--------------------------------------------------------------------------
#psi4
#
memory 32 gb

molecule  {
-1 1
  O        1.8560820     1.2922155    -0.0657359
  O        2.6669651    -0.8455612     0.2829832
  C       -2.1007360    -0.3533330    -0.4966910
  C       -3.0415820     0.2042600     0.5765370
  C       -0.7068410     0.1811810    -0.3555730
  C        0.3877500    -0.5533880    -0.1062960
  C        1.7796670     0.0321010     0.0519970
  H       -2.0810980    -1.4485100    -0.4425170
  H       -2.4999350    -0.0921100    -1.4864390
  H       -3.0846480     1.2965650     0.5261450
  H       -4.0584310    -0.1803650     0.4515950
  H       -2.6909580    -0.0729930     1.5749670
  H       -0.5778430     1.2611610    -0.4426850
  H        0.3073520    -1.6376590    -0.0083210
units angstrom
no_reorient  #important for SAPT in psi4, default
symmetry c1  #important for SAPT in psi4, default
}

set PROPERTIES_ORIGIN ["COM"]
properties('MP2/aug-cc-pvtz', properties = ['dipole'])
--------------------------------------------------------------------------

    Molecular point group: c1
  Charge       = -1
  Multiplicity = 1
  Basis Set: AUG-CC-PVTZ
    Blend: AUG-CC-PVTZ
  Basis Set: (AUG-CC-PVTZ AUX)
    Blend: AUG-CC-PVTZ-JKFIT

    Orbital Energies [Eh]
    ---------------------

    Doubly Occupied:

       1A    -20.299358     2A    -20.295460     3A    -11.144076
       4A    -11.114024     5A    -11.111687     6A    -11.081467
       7A    -11.065320     8A     -1.162850     9A     -1.068517
      10A     -0.951571    11A     -0.859154    12A     -0.741242
      13A     -0.630311    14A     -0.547022    15A     -0.493453
      16A     -0.483756    17A     -0.446727    18A     -0.418585
      19A     -0.407103    20A     -0.383500    21A     -0.375988
      22A     -0.360147    23A     -0.345922    24A     -0.216599
      25A     -0.207339    26A     -0.201899    27A     -0.195669

  @DF-RHF Final Energy:  -343.28505910640808

   => Energetics <=

    Nuclear Repulsion Energy =            271.2651376218005908
    One-Electron Energy =               -1015.8829033440333660
    Two-Electron Energy =                 401.3327066158246907
    Total Energy =                       -343.2850591064080845
  Basis Set: (AUG-CC-PVTZ AUX)
    Blend: AUG-CC-PVTZ-RI
    Molecular point group: c1

    Geometry (in Angstrom), charge = -1, multiplicity = 1:

       Center              X                  Y                   Z               Mass
    ------------   -----------------  -----------------  -----------------  -----------------
         O            1.721149135470     1.288244561721    -0.062592233047    15.994914619570
         O            2.532032235470    -0.849532138279     0.286126866953    15.994914619570
         C           -2.235668864530    -0.357303938279    -0.493547333047    12.000000000000
         C           -3.176514864530     0.200289061721     0.579680666953    12.000000000000
         C           -0.841773864530     0.177210061721    -0.352429333047    12.000000000000
         C            0.252817135470    -0.557358938279    -0.103152333047    12.000000000000
         C            1.644734135470     0.028130061721     0.055140666953    12.000000000000
         H           -2.216030864530    -1.452480938279    -0.439373333047     1.007825032230
         H           -2.634867864530    -0.096080938279    -1.483295333047     1.007825032230
         H           -3.219580864530     1.292594061721     0.529288666953     1.007825032230
         H           -4.193363864530    -0.184335938279     0.454738666953     1.007825032230
         H           -2.825890864530    -0.076963938279     1.578110666953     1.007825032230
         H           -0.712775864530     1.257190061721    -0.439541333047     1.007825032230
         H            0.172419135470    -1.641629938279    -0.005177333047     1.007825032230

  Basis Set: AUG-CC-PVTZ
    Blend: AUG-CC-PVTZ
  Basis Set: (AUG-CC-PVTZ AUX)
    Blend: AUG-CC-PVTZ-JKFIT
	 Reference Energy          =    -343.2850591064080845 [Eh]
	 Singles Energy            =      -0.0000000000000000 [Eh]
	 Same-Spin Energy          =      -0.3483279441213276 [Eh]
	 Opposite-Spin Energy      =      -1.1057956006130634 [Eh]
	 Correlation Energy        =      -1.4541235447343910 [Eh]
	 Total Energy              =    -344.7391826511424711 [Eh]

	 ================> DF-SCS-MP2 Energies <==================
	-----------------------------------------------------------
	 SCS Same-Spin Scale       =       0.3333333333333333 [-]
	 SCS Opposite-Spin Scale   =       1.2000000000000000 [-]
	 SCS Same-Spin Energy      =      -0.1161093147071092 [Eh]
	 SCS Opposite-Spin Energy  =      -1.3269547207356760 [Eh]
	 SCS Correlation Energy    =      -1.4430640354427853 [Eh]
	 SCS Total Energy          =    -344.7281231418508582 [Eh]
	-----------------------------------------------------------

  Dipole Moment: [D]
     X:    -9.2550      Y:    -1.0787      Z:    -0.5541     Total:     9.3341

*** Psi4 exiting successfully. Buy a developer a beer!
