                               Psi4 1.4a3.dev225

  ==> Input File <==

--------------------------------------------------------------------------
#psi4
#
memory 32 gb

molecule  {
-1 1
  O        1.8994270     1.2905180    -0.0615170
  O        2.6993700    -0.8109500     0.2832770
  C       -2.1001690    -0.3616000    -0.4913260
  C       -3.0433460     0.2119310     0.5709670
  C       -0.7080250     0.1770830    -0.3546910
  C        0.3885780    -0.5541740    -0.1016650
  C        1.7798570     0.0330080     0.0518740
  H       -2.0812530    -1.4558260    -0.4203270
  H       -2.4968010    -0.1155520    -1.4857470
  H       -3.0817280     1.3037570     0.5071420
  H       -4.0608920    -0.1705790     0.4451360
  H       -2.6986290    -0.0550030     1.5741980
  H       -0.5829791     1.2366538    -0.4482479
  H        0.3081890    -1.6372690     0.0045550
units angstrom
no_reorient  #important for SAPT in psi4, default
symmetry c1  #important for SAPT in psi4, default
}

set PROPERTIES_ORIGIN ["COM"]
properties('MP2/aug-cc-pvtz', properties = ['dipole'])
--------------------------------------------------------------------------

    Molecular point group: c1
  Charge       = -1
  Multiplicity = 1
  Basis Set: AUG-CC-PVTZ
    Blend: AUG-CC-PVTZ
  Basis Set: (AUG-CC-PVTZ AUX)
    Blend: AUG-CC-PVTZ-JKFIT

    Orbital Energies [Eh]
    ---------------------

    Doubly Occupied:

       1A    -20.295303     2A    -20.291618     3A    -11.141984
       4A    -11.115803     5A    -11.113807     6A    -11.083246
       7A    -11.069958     8A     -1.161649     9A     -1.060793
      10A     -0.954787    11A     -0.862743    12A     -0.743788
      13A     -0.635403    14A     -0.550209    15A     -0.494805
      16A     -0.486457    17A     -0.446255    18A     -0.419547
      19A     -0.408941    20A     -0.382993    21A     -0.375718
      22A     -0.357848    23A     -0.351019    24A     -0.211274
      25A     -0.208911    26A     -0.204463    27A     -0.191075

  @DF-RHF Final Energy:  -343.28577990017300

   => Energetics <=

    Nuclear Repulsion Energy =            270.9245624648870603
    One-Electron Energy =               -1015.1798926593614851
    Two-Electron Energy =                 400.9695502943014844
    Total Energy =                       -343.2857799001729973
  Basis Set: (AUG-CC-PVTZ AUX)
    Blend: AUG-CC-PVTZ-RI
    Molecular point group: c1

    Geometry (in Angstrom), charge = -1, multiplicity = 1:

       Center              X                  Y                   Z               Mass
    ------------   -----------------  -----------------  -----------------  -----------------
         O            1.752513085867     1.281988379809    -0.059770636526    15.994914619570
         O            2.552456085867    -0.819479620191     0.285023363474    15.994914619570
         C           -2.247082914133    -0.370129620191    -0.489579636526    12.000000000000
         C           -3.190259914133     0.203401379809     0.572713363474    12.000000000000
         C           -0.854938914133     0.168553379809    -0.352944636526    12.000000000000
         C            0.241664085867    -0.562703620191    -0.099918636526    12.000000000000
         C            1.632943085867     0.024478379809     0.053620363474    12.000000000000
         H           -2.228166914133    -1.464355620191    -0.418580636526     1.007825032230
         H           -2.643714914133    -0.124081620191    -1.484000636526     1.007825032230
         H           -3.228641914133     1.295227379809     0.508888363474     1.007825032230
         H           -4.207805914133    -0.179108620191     0.446882363474     1.007825032230
         H           -2.845542914133    -0.063532620191     1.575944363474     1.007825032230
         H           -0.729893014133     1.228124179809    -0.446501536526     1.007825032230
         H            0.161275085867    -1.645798620191     0.006301363474     1.007825032230

  Basis Set: AUG-CC-PVTZ
    Blend: AUG-CC-PVTZ
  Basis Set: (AUG-CC-PVTZ AUX)
    Blend: AUG-CC-PVTZ-JKFIT
	 Reference Energy          =    -343.2857799001729973 [Eh]
	 Singles Energy            =      -0.0000000000000000 [Eh]
	 Same-Spin Energy          =      -0.3481009939580955 [Eh]
	 Opposite-Spin Energy      =      -1.1054593488763129 [Eh]
	 Correlation Energy        =      -1.4535603428344084 [Eh]
	 Total Energy              =    -344.7393402430074048 [Eh]

	 ================> DF-SCS-MP2 Energies <==================
	-----------------------------------------------------------
	 SCS Same-Spin Scale       =       0.3333333333333333 [-]
	 SCS Opposite-Spin Scale   =       1.2000000000000000 [-]
	 SCS Same-Spin Energy      =      -0.1160336646526985 [Eh]
	 SCS Opposite-Spin Energy  =      -1.3265512186515755 [Eh]
	 SCS Correlation Energy    =      -1.4425848833042740 [Eh]
	 SCS Total Energy          =    -344.7283647834772751 [Eh]
	-----------------------------------------------------------

  Dipole Moment: [D]
     X:    -9.5235      Y:    -1.1606      Z:    -0.5702     Total:     9.6109

*** Psi4 exiting successfully. Buy a developer a beer!
