                               Psi4 1.3.2 release

  ==> Input File <==

--------------------------------------------------------------------------
#psi4
#
memory 32 gb

molecule  {
-1 1
  O        1.8996640     1.2894670    -0.0585490
  O        2.6973380    -0.8133440     0.2844750
  C       -2.1007360    -0.3533330    -0.4966910
  C       -3.0415820     0.2042600     0.5765370
  C       -0.7068410     0.1811810    -0.3555730
  C        0.3877500    -0.5533880    -0.1062960
  C        1.5963170    -0.0450224     0.0311459
  H       -2.0810980    -1.4485100    -0.4425170
  H       -2.4999350    -0.0921100    -1.4864390
  H       -3.0846480     1.2965650     0.5261450
  H       -4.0584310    -0.1803650     0.4515950
  H       -2.6909580    -0.0729930     1.5749670
  H       -0.5778430     1.2611610    -0.4426850
  H        0.3073520    -1.6376590    -0.0083210
units angstrom
no_reorient  #important for SAPT in psi4, default
symmetry c1  #important for SAPT in psi4, default
}

set PROPERTIES_ORIGIN ["COM"]
properties('MP2/aug-cc-pvtz', properties = ['dipole'])
--------------------------------------------------------------------------

    Molecular point group: c1
  Charge       = -1
  Multiplicity = 1
  Basis Set: AUG-CC-PVTZ
    Blend: AUG-CC-PVTZ
  Basis Set: (AUG-CC-PVTZ AUX)
    Blend: AUG-CC-PVTZ-JKFIT

    Orbital Energies [Eh]
    ---------------------

    Doubly Occupied:

       1A    -20.290286     2A    -20.281319     3A    -11.140789
       4A    -11.127743     5A    -11.126599     6A    -11.112376
       7A    -11.072363     8A     -1.108344     9A     -0.995657
      10A     -0.971771    11A     -0.895220    12A     -0.776691
      13A     -0.672399    14A     -0.575719    15A     -0.506150
      16A     -0.502760    17A     -0.436216    18A     -0.431222
      19A     -0.415665    20A     -0.389823    21A     -0.367281
      22A     -0.338385    23A     -0.321445    24A     -0.222286
      25A     -0.205263    26A     -0.175258    27A     -0.163027

  @DF-RHF Final Energy:  -343.21306224735099

   => Energetics <=

    Nuclear Repulsion Energy =            271.0974507439221952
    One-Electron Energy =               -1015.3769121569865774
    Two-Electron Energy =                 401.0663991657133920
    Total Energy =                       -343.2130622473509902
  Basis Set: (AUG-CC-PVTZ AUX)
    Blend: AUG-CC-PVTZ-RI
    Molecular point group: c1

    Geometry (in Angstrom), charge = -1, multiplicity = 1:

       Center              X                  Y                   Z               Mass
    ------------   -----------------  -----------------  -----------------  -----------------
         O            1.775002242052     1.290081182354    -0.054280606111    15.994914619570
         O            2.572676242052    -0.812729817646     0.288743393889    15.994914619570
         C           -2.225397757948    -0.352718817646    -0.492422606111    12.000000000000
         C           -3.166243757948     0.204874182354     0.580805393889    12.000000000000
         C           -0.831502757948     0.181795182354    -0.351304606111    12.000000000000
         C            0.263088242052    -0.552773817646    -0.102027606111    12.000000000000
         C            1.471655242052    -0.044408217646     0.035414293889    12.000000000000
         H           -2.205759757948    -1.447895817646    -0.438248606111     1.007825032230
         H           -2.624596757948    -0.091495817646    -1.482170606111     1.007825032230
         H           -3.209309757948     1.297179182354     0.530413393889     1.007825032230
         H           -4.183092757948    -0.179750817646     0.455863393889     1.007825032230
         H           -2.815619757948    -0.072378817646     1.579235393889     1.007825032230
         H           -0.702504757948     1.261775182354    -0.438416606111     1.007825032230
         H            0.182690242052    -1.637044817646    -0.004052606111     1.007825032230

  Basis Set: AUG-CC-PVTZ
    Blend: AUG-CC-PVTZ
  Basis Set: (AUG-CC-PVTZ AUX)
    Blend: AUG-CC-PVTZ-JKFIT
	 Reference Energy          =    -343.2130622473509902 [Eh]
	 Singles Energy            =      -0.0000000000000000 [Eh]
	 Same-Spin Energy          =      -0.3547936023596993 [Eh]
	 Opposite-Spin Energy      =      -1.1191495918599279 [Eh]
	 Correlation Energy        =      -1.4739431942196273 [Eh]
	 Total Energy              =    -344.6870054415705908 [Eh]

	 ================> DF-SCS-MP2 Energies <==================
	-----------------------------------------------------------
	 SCS Same-Spin Scale       =       0.3333333333333333 [-]
	 SCS Opposite-Spin Scale   =       1.2000000000000000 [-]
	 SCS Same-Spin Energy      =      -0.1182645341198998 [Eh]
	 SCS Opposite-Spin Energy  =      -1.3429795102319135 [Eh]
	 SCS Correlation Energy    =      -1.4612440443518133 [Eh]
	 SCS Total Energy          =    -344.6743062917028055 [Eh]
	-----------------------------------------------------------

  Dipole Moment: [D]
     X:   -10.5628      Y:    -1.5110      Z:    -0.6726     Total:    10.6915

*** Psi4 exiting successfully. Buy a developer a beer!
