                               Psi4 1.3.2 release

  ==> Input File <==

--------------------------------------------------------------------------
#psi4
#
memory 32 gb

molecule  {
-1 1
  O        1.8996640     1.2894670    -0.0585490
  O        2.6973380    -0.8133440     0.2844750
  C       -2.1007360    -0.3533330    -0.4966910
  C       -3.0415820     0.2042600     0.5765370
  C       -0.5209289     0.2524723    -0.3367513
  C        0.3877500    -0.5533880    -0.1062960
  C        1.7796670     0.0321010     0.0519970
  H       -2.0810980    -1.4485100    -0.4425170
  H       -2.4999350    -0.0921100    -1.4864390
  H       -3.0846480     1.2965650     0.5261450
  H       -4.0584310    -0.1803650     0.4515950
  H       -2.6909580    -0.0729930     1.5749670
  H       -0.5778430     1.2611610    -0.4426850
  H        0.3073520    -1.6376590    -0.0083210
units angstrom
no_reorient  #important for SAPT in psi4, default
symmetry c1  #important for SAPT in psi4, default
}

set PROPERTIES_ORIGIN ["COM"]
properties('MP2/aug-cc-pvtz', properties = ['dipole'])
--------------------------------------------------------------------------

    Molecular point group: c1
  Charge       = -1
  Multiplicity = 1
  Basis Set: AUG-CC-PVTZ
    Blend: AUG-CC-PVTZ
  Basis Set: (AUG-CC-PVTZ AUX)
    Blend: AUG-CC-PVTZ-JKFIT

    Orbital Energies [Eh]
    ---------------------

    Doubly Occupied:

       1A    -20.293503     2A    -20.290229     3A    -11.137894
       4A    -11.113121     5A    -11.112216     6A    -11.077594
       7A    -11.054587     8A     -1.161512     9A     -1.060448
      10A     -0.941414    11A     -0.882000    12A     -0.725284
      13A     -0.638236    14A     -0.555247    15A     -0.488035
      16A     -0.482622    17A     -0.455922    18A     -0.431743
      19A     -0.399142    20A     -0.379455    21A     -0.377493
      22A     -0.360819    23A     -0.309300    24A     -0.233486
      25A     -0.208962    26A     -0.202229    27A     -0.190915

  @DF-RHF Final Energy:  -343.25043009512746

   => Energetics <=

    Nuclear Repulsion Energy =            271.5265799778892983
    One-Electron Energy =               -1016.4272061536923957
    Two-Electron Energy =                 401.6501960806756983
    Total Energy =                       -343.2504300951274558
  Basis Set: (AUG-CC-PVTZ AUX)
    Blend: AUG-CC-PVTZ-RI
    Molecular point group: c1

    Geometry (in Angstrom), charge = -1, multiplicity = 1:

       Center              X                  Y                   Z               Mass
    ------------   -----------------  -----------------  -----------------  -----------------
         O            1.730263356739     1.272099623342    -0.059087264712    15.994914619570
         O            2.527937356739    -0.830711376658     0.283936735288    15.994914619570
         C           -2.270136643261    -0.370700376658    -0.497229264712    12.000000000000
         C           -3.210982643261     0.186892623342     0.575998735288    12.000000000000
         C           -0.690329543261     0.235104923342    -0.337289564712    12.000000000000
         C            0.218349356739    -0.570755376658    -0.106834264712    12.000000000000
         C            1.610266356739     0.014733623342     0.051458735288    12.000000000000
         H           -2.250498643261    -1.465877376658    -0.443055264712     1.007825032230
         H           -2.669335643261    -0.109477376658    -1.486977264712     1.007825032230
         H           -3.254048643261     1.279197623342     0.525606735288     1.007825032230
         H           -4.227831643261    -0.197732376658     0.451056735288     1.007825032230
         H           -2.860358643261    -0.090360376658     1.574428735288     1.007825032230
         H           -0.747243643261     1.243793623342    -0.443223264712     1.007825032230
         H            0.137951356739    -1.655026376658    -0.008859264712     1.007825032230

  Basis Set: AUG-CC-PVTZ
    Blend: AUG-CC-PVTZ
  Basis Set: (AUG-CC-PVTZ AUX)
    Blend: AUG-CC-PVTZ-JKFIT
	 Reference Energy          =    -343.2504300951274558 [Eh]
	 Singles Energy            =      -0.0000000000000000 [Eh]
	 Same-Spin Energy          =      -0.3469187727910566 [Eh]
	 Opposite-Spin Energy      =      -1.1038541658783201 [Eh]
	 Correlation Energy        =      -1.4507729386693766 [Eh]
	 Total Energy              =    -344.7012030337968440 [Eh]

	 ================> DF-SCS-MP2 Energies <==================
	-----------------------------------------------------------
	 SCS Same-Spin Scale       =       0.3333333333333333 [-]
	 SCS Opposite-Spin Scale   =       1.2000000000000000 [-]
	 SCS Same-Spin Energy      =      -0.1156395909303522 [Eh]
	 SCS Opposite-Spin Energy  =      -1.3246249990539840 [Eh]
	 SCS Correlation Energy    =      -1.4402645899843363 [Eh]
	 SCS Total Energy          =    -344.6906946851117937 [Eh]
	-----------------------------------------------------------

  Dipole Moment: [D]
     X:    -9.2429      Y:    -1.0546      Z:    -0.5550     Total:     9.3194

*** Psi4 exiting successfully. Buy a developer a beer!
