                               Psi4 1.3.2 release

  ==> Input File <==

--------------------------------------------------------------------------
#psi4
#
memory 32 gb

molecule  {
-1 1
  O        1.8996640     1.2894670    -0.0585490
  O        2.6973380    -0.8133440     0.2844750
  C       -2.1007360    -0.3533330    -0.4966910
  C       -3.0415820     0.2042600     0.5765370
  C       -0.6813515     0.1072173    -0.3490295
  C        0.3877500    -0.5533880    -0.1062960
  C        1.7796670     0.0321010     0.0519970
  H       -2.0241416    -1.4456540    -0.4358523
  H       -2.4999350    -0.0921100    -1.4864390
  H       -3.0846480     1.2965650     0.5261450
  H       -4.0584310    -0.1803650     0.4515950
  H       -2.6909580    -0.0729930     1.5749670
  H       -0.5778430     1.2611610    -0.4426850
  H        0.3073520    -1.6376590    -0.0083210
units angstrom
no_reorient  #important for SAPT in psi4, default
symmetry c1  #important for SAPT in psi4, default
}

set PROPERTIES_ORIGIN ["COM"]
properties('MP2/aug-cc-pvtz', properties = ['dipole'])
--------------------------------------------------------------------------

    Molecular point group: c1
  Charge       = -1
  Multiplicity = 1
  Basis Set: AUG-CC-PVTZ
    Blend: AUG-CC-PVTZ
  Basis Set: (AUG-CC-PVTZ AUX)
    Blend: AUG-CC-PVTZ-JKFIT

    Orbital Energies [Eh]
    ---------------------

    Doubly Occupied:

       1A    -20.295749     2A    -20.292271     3A    -11.143104
       4A    -11.117325     5A    -11.114554     6A    -11.081625
       7A    -11.060589     8A     -1.162307     9A     -1.061420
      10A     -0.958083    11A     -0.873760    12A     -0.747351
      13A     -0.622671    14A     -0.550331    15A     -0.499320
      16A     -0.483721    17A     -0.446312    18A     -0.421263
      19A     -0.409915    20A     -0.387927    21A     -0.379035
      22A     -0.359333    23A     -0.322607    24A     -0.219548
      25A     -0.212288    26A     -0.209323    27A     -0.191501

  @DF-RHF Final Energy:  -343.27786577114966

   => Energetics <=

    Nuclear Repulsion Energy =            271.5644885005303308
    One-Electron Energy =               -1016.4382440786143889
    Two-Electron Energy =                 401.5958898069343377
    Total Energy =                       -343.2778657711496635
  Basis Set: (AUG-CC-PVTZ AUX)
    Blend: AUG-CC-PVTZ-RI
    Molecular point group: c1

    Geometry (in Angstrom), charge = -1, multiplicity = 1:

       Center              X                  Y                   Z               Mass
    ------------   -----------------  -----------------  -----------------  -----------------
         O            1.749120205372     1.289669299763    -0.057667484713    15.994914619570
         O            2.546794205372    -0.813141700237     0.285356515287    15.994914619570
         C           -2.251279794628    -0.353130700237    -0.495809484713    12.000000000000
         C           -3.192125794628     0.204462299763     0.577418515287    12.000000000000
         C           -0.831895294628     0.107419599763    -0.348147984713    12.000000000000
         C            0.237206205372    -0.553185700237    -0.105414484713    12.000000000000
         C            1.629123205372     0.032303299763     0.052878515287    12.000000000000
         H           -2.174685394628    -1.445451700237    -0.434970784713     1.007825032230
         H           -2.650478794628    -0.091907700237    -1.485557484713     1.007825032230
         H           -3.235191794628     1.296767299763     0.527026515287     1.007825032230
         H           -4.208974794628    -0.180162700237     0.452476515287     1.007825032230
         H           -2.841501794628    -0.072790700237     1.575848515287     1.007825032230
         H           -0.728386794628     1.261363299763    -0.441803484713     1.007825032230
         H            0.156808205372    -1.637456700237    -0.007439484713     1.007825032230

  Basis Set: AUG-CC-PVTZ
    Blend: AUG-CC-PVTZ
  Basis Set: (AUG-CC-PVTZ AUX)
    Blend: AUG-CC-PVTZ-JKFIT
	 Reference Energy          =    -343.2778657711496635 [Eh]
	 Singles Energy            =      -0.0000000000000000 [Eh]
	 Same-Spin Energy          =      -0.3481003630369503 [Eh]
	 Opposite-Spin Energy      =      -1.1049979584145393 [Eh]
	 Correlation Energy        =      -1.4530983214514896 [Eh]
	 Total Energy              =    -344.7309640926011411 [Eh]

	 ================> DF-SCS-MP2 Energies <==================
	-----------------------------------------------------------
	 SCS Same-Spin Scale       =       0.3333333333333333 [-]
	 SCS Opposite-Spin Scale   =       1.2000000000000000 [-]
	 SCS Same-Spin Energy      =      -0.1160334543456501 [Eh]
	 SCS Opposite-Spin Energy  =      -1.3259975500974470 [Eh]
	 SCS Correlation Energy    =      -1.4420310044430971 [Eh]
	 SCS Total Energy          =    -344.7198967755927583 [Eh]
	-----------------------------------------------------------

  Dipole Moment: [D]
     X:    -9.5031      Y:    -1.1946      Z:    -0.5513     Total:     9.5937

*** Psi4 exiting successfully. Buy a developer a beer!
