                               Psi4 1.3.2 release

  ==> Input File <==

--------------------------------------------------------------------------
#psi4
#
memory 32 gb

molecule  {
-1 1
  O        1.8996640     1.2894670    -0.0585490
  O        2.6973380    -0.8133440     0.2844750
  C       -2.1007360    -0.3533330    -0.4966910
  C       -3.0616106     0.1899535     0.5660786
  C       -0.6995633     0.1670510    -0.3763651
  C        0.3877500    -0.5533880    -0.1062960
  C        1.7796670     0.0321010     0.0519970
  H       -2.0810980    -1.4485100    -0.4425170
  H       -2.4999350    -0.0921100    -1.4864390
  H       -3.0846480     1.2965650     0.5261450
  H       -4.0584310    -0.1803650     0.4515950
  H       -2.6909580    -0.0729930     1.5749670
  H       -0.5778430     1.2611610    -0.4426850
  H        0.3073520    -1.6376590    -0.0083210
units angstrom
no_reorient  #important for SAPT in psi4, default
symmetry c1  #important for SAPT in psi4, default
}

set PROPERTIES_ORIGIN ["COM"]
properties('MP2/aug-cc-pvtz', properties = ['dipole'])
--------------------------------------------------------------------------

    Molecular point group: c1
  Charge       = -1
  Multiplicity = 1
  Basis Set: AUG-CC-PVTZ
    Blend: AUG-CC-PVTZ
  Basis Set: (AUG-CC-PVTZ AUX)
    Blend: AUG-CC-PVTZ-JKFIT

    Orbital Energies [Eh]
    ---------------------

    Doubly Occupied:

       1A    -20.295607     2A    -20.291914     3A    -11.142369
       4A    -11.116306     5A    -11.113985     6A    -11.085292
       7A    -11.069044     8A     -1.162075     9A     -1.061270
      10A     -0.954181    11A     -0.864781    12A     -0.744856
      13A     -0.630884    14A     -0.548927    15A     -0.495480
      16A     -0.486239    17A     -0.446243    18A     -0.422617
      19A     -0.406613    20A     -0.380381    21A     -0.377837
      22A     -0.358216    23A     -0.345108    24A     -0.211798
      25A     -0.209229    26A     -0.207095    27A     -0.191397

  @DF-RHF Final Energy:  -343.28481110566941

   => Energetics <=

    Nuclear Repulsion Energy =            270.7919116494961713
    One-Electron Energy =               -1014.9139563076203103
    Two-Electron Energy =                 400.8372335524547907
    Total Energy =                       -343.2848111056694052
  Basis Set: (AUG-CC-PVTZ AUX)
    Blend: AUG-CC-PVTZ-RI
    Molecular point group: c1

    Geometry (in Angstrom), charge = -1, multiplicity = 1:

       Center              X                  Y                   Z               Mass
    ------------   -----------------  -----------------  -----------------  -----------------
         O            1.754332875850     1.284182397628    -0.053020640455    15.994914619570
         O            2.552006875850    -0.818628602372     0.290003359545    15.994914619570
         C           -2.246067124150    -0.358617602372    -0.491162640455    12.000000000000
         C           -3.206941724150     0.184668897628     0.571606959545    12.000000000000
         C           -0.844894424150     0.161766397628    -0.370836740455    12.000000000000
         C            0.242418875850    -0.558672602372    -0.100767640455    12.000000000000
         C            1.634335875850     0.026816397628     0.057525359545    12.000000000000
         H           -2.226429124150    -1.453794602372    -0.436988640455     1.007825032230
         H           -2.645266124150    -0.097394602372    -1.480910640455     1.007825032230
         H           -3.229979124150     1.291280397628     0.531673359545     1.007825032230
         H           -4.203762124150    -0.185649602372     0.457123359545     1.007825032230
         H           -2.836289124150    -0.078277602372     1.580495359545     1.007825032230
         H           -0.723174124150     1.255876397628    -0.437156640455     1.007825032230
         H            0.162020875850    -1.642943602372    -0.002792640455     1.007825032230

  Basis Set: AUG-CC-PVTZ
    Blend: AUG-CC-PVTZ
  Basis Set: (AUG-CC-PVTZ AUX)
    Blend: AUG-CC-PVTZ-JKFIT
	 Reference Energy          =    -343.2848111056694052 [Eh]
	 Singles Energy            =      -0.0000000000000000 [Eh]
	 Same-Spin Energy          =      -0.3481024225443343 [Eh]
	 Opposite-Spin Energy      =      -1.1054290832579912 [Eh]
	 Correlation Energy        =      -1.4535315058023255 [Eh]
	 Total Energy              =    -344.7383426114717508 [Eh]

	 ================> DF-SCS-MP2 Energies <==================
	-----------------------------------------------------------
	 SCS Same-Spin Scale       =       0.3333333333333333 [-]
	 SCS Opposite-Spin Scale   =       1.2000000000000000 [-]
	 SCS Same-Spin Energy      =      -0.1160341408481114 [Eh]
	 SCS Opposite-Spin Energy  =      -1.3265148999095893 [Eh]
	 SCS Correlation Energy    =      -1.4425490407577006 [Eh]
	 SCS Total Energy          =    -344.7273601464270882 [Eh]
	-----------------------------------------------------------

  Dipole Moment: [D]
     X:    -9.5282      Y:    -1.1761      Z:    -0.5671     Total:     9.6173

*** Psi4 exiting successfully. Buy a developer a beer!
