                               Psi4 1.3.2 release

  ==> Input File <==

--------------------------------------------------------------------------
#psi4
#
memory 32 gb

molecule  {
-1 1
  O        1.8996640     1.2894670    -0.0585490
  O        2.6973380    -0.8133440     0.2844750
  C       -2.1007360    -0.3533330    -0.4966910
  C       -3.0415820     0.2042600     0.5765370
  C       -0.7068410     0.1811810    -0.3555730
  C        0.3877500    -0.5533880    -0.1062960
  C        1.7844979     0.0199262     0.0539951
  H       -2.0810980    -1.4485100    -0.4425170
  H       -2.4999350    -0.0921100    -1.4864390
  H       -3.0846480     1.2965650     0.5261450
  H       -4.0584310    -0.1803650     0.4515950
  H       -2.6909580    -0.0729930     1.5749670
  H       -0.5778430     1.2611610    -0.4426850
  H        0.3167417    -1.6381757    -0.0067977
units angstrom
no_reorient  #important for SAPT in psi4, default
symmetry c1  #important for SAPT in psi4, default
}

set PROPERTIES_ORIGIN ["COM"]
properties('MP2/aug-cc-pvtz', properties = ['dipole'])
--------------------------------------------------------------------------

    Molecular point group: c1
  Charge       = -1
  Multiplicity = 1
  Basis Set: AUG-CC-PVTZ
    Blend: AUG-CC-PVTZ
  Basis Set: (AUG-CC-PVTZ AUX)
    Blend: AUG-CC-PVTZ-JKFIT

    Orbital Energies [Eh]
    ---------------------

    Doubly Occupied:

       1A    -20.298359     2A    -20.288483     3A    -11.141751
       4A    -11.115661     5A    -11.113914     6A    -11.085554
       7A    -11.069917     8A     -1.162835     9A     -1.060187
      10A     -0.954008    11A     -0.861988    12A     -0.743784
      13A     -0.633678    14A     -0.548208    15A     -0.494593
      16A     -0.485857    17A     -0.445961    18A     -0.419618
      19A     -0.408819    20A     -0.382695    21A     -0.376217
      22A     -0.358145    23A     -0.348319    24A     -0.212610
      25A     -0.207066    26A     -0.205173    27A     -0.190462

  @DF-RHF Final Energy:  -343.28547371819491

   => Energetics <=

    Nuclear Repulsion Energy =            270.8290698216526948
    One-Electron Energy =               -1015.0013647896503244
    Two-Electron Energy =                 400.8868212498027788
    Total Energy =                       -343.2854737181949076
  Basis Set: (AUG-CC-PVTZ AUX)
    Blend: AUG-CC-PVTZ-RI
    Molecular point group: c1

    Geometry (in Angstrom), charge = -1, multiplicity = 1:

       Center              X                  Y                   Z               Mass
    ------------   -----------------  -----------------  -----------------  -----------------
         O            1.752107163749     1.282217427826    -0.057064459117    15.994914619570
         O            2.549781163749    -0.820593572174     0.285959540883    15.994914619570
         C           -2.248292836251    -0.360582572174    -0.495206459117    12.000000000000
         C           -3.189138836251     0.197010427826     0.578021540883    12.000000000000
         C           -0.854397836251     0.173931427826    -0.354088459117    12.000000000000
         C            0.240193163749    -0.560637572174    -0.104811459117    12.000000000000
         C            1.636941063749     0.012676627826     0.055479640883    12.000000000000
         H           -2.228654836251    -1.455759572174    -0.441032459117     1.007825032230
         H           -2.647491836251    -0.099359572174    -1.484954459117     1.007825032230
         H           -3.232204836251     1.289315427826     0.527629540883     1.007825032230
         H           -4.205987836251    -0.187614572174     0.453079540883     1.007825032230
         H           -2.838514836251    -0.080242572174     1.576451540883     1.007825032230
         H           -0.725399836251     1.253911427826    -0.441200459117     1.007825032230
         H            0.169184863749    -1.645425272174    -0.005313159117     1.007825032230

  Basis Set: AUG-CC-PVTZ
    Blend: AUG-CC-PVTZ
  Basis Set: (AUG-CC-PVTZ AUX)
    Blend: AUG-CC-PVTZ-JKFIT
	 Reference Energy          =    -343.2854737181949076 [Eh]
	 Singles Energy            =      -0.0000000000000000 [Eh]
	 Same-Spin Energy          =      -0.3481029852853275 [Eh]
	 Opposite-Spin Energy      =      -1.1055208292362870 [Eh]
	 Correlation Energy        =      -1.4536238145216145 [Eh]
	 Total Energy              =    -344.7390975327165279 [Eh]

	 ================> DF-SCS-MP2 Energies <==================
	-----------------------------------------------------------
	 SCS Same-Spin Scale       =       0.3333333333333333 [-]
	 SCS Opposite-Spin Scale   =       1.2000000000000000 [-]
	 SCS Same-Spin Energy      =      -0.1160343284284425 [Eh]
	 SCS Opposite-Spin Energy  =      -1.3266249950835445 [Eh]
	 SCS Correlation Energy    =      -1.4426593235119869 [Eh]
	 SCS Total Energy          =    -344.7281330417068830 [Eh]
	-----------------------------------------------------------

  Dipole Moment: [D]
     X:    -9.4629      Y:    -1.2777      Z:    -0.5586     Total:     9.5651

*** Psi4 exiting successfully. Buy a developer a beer!
