                               Psi4 1.3.2 release

  ==> Input File <==

--------------------------------------------------------------------------
#psi4
#
memory 32 gb

molecule  {
-1 1
  O        1.8996640     1.2894670    -0.0585490
  O        2.6973380    -0.8133440     0.2844750
  C       -2.1007360    -0.3533330    -0.4966910
  C       -3.0415820     0.2042600     0.5765370
  C       -0.7068410     0.1811810    -0.3555730
  C        0.3877500    -0.5533880    -0.1062960
  C        1.7796670     0.0321010     0.0519970
  H       -2.0810980    -1.4485100    -0.4425170
  H       -2.4999350    -0.0921100    -1.4864390
  H       -3.0846480     1.2965650     0.5261450
  H       -4.0584310    -0.1803650     0.4515950
  H       -2.6909580    -0.0729930     1.5749670
  H       -0.5778430     1.2611610    -0.4426850
  H        0.3073520    -1.6376590    -0.0083210
units angstrom
no_reorient  #important for SAPT in psi4, default
symmetry c1  #important for SAPT in psi4, default
}

set PROPERTIES_ORIGIN ["COM"]
properties('MP2/aug-cc-pvtz', properties = ['dipole'])
--------------------------------------------------------------------------

    Molecular point group: c1
  Charge       = -1
  Multiplicity = 1
  Basis Set: AUG-CC-PVTZ
    Blend: AUG-CC-PVTZ
  Basis Set: (AUG-CC-PVTZ AUX)
    Blend: AUG-CC-PVTZ-JKFIT

    Orbital Energies [Eh]
    ---------------------

    Doubly Occupied:

       1A    -20.295357     2A    -20.291645     3A    -11.142000
       4A    -11.115769     5A    -11.113996     6A    -11.085407
       7A    -11.070019     8A     -1.161821     9A     -1.061038
      10A     -0.954236    11A     -0.862361    12A     -0.743813
      13A     -0.632964    14A     -0.548956    15A     -0.494653
      16A     -0.486032    17A     -0.445944    18A     -0.419214
      19A     -0.408867    20A     -0.383012    21A     -0.375862
      22A     -0.357985    23A     -0.348822    24A     -0.211248
      25A     -0.209006    26A     -0.204668    27A     -0.191193

  @DF-RHF Final Energy:  -343.28572866399304

   => Energetics <=

    Nuclear Repulsion Energy =            270.8530330599912190
    One-Electron Energy =               -1015.0457480080259529
    Two-Electron Energy =                 400.9069862840417500
    Total Energy =                       -343.2857286639930408
  Basis Set: (AUG-CC-PVTZ AUX)
    Blend: AUG-CC-PVTZ-RI
    Molecular point group: c1

    Geometry (in Angstrom), charge = -1, multiplicity = 1:

       Center              X                  Y                   Z               Mass
    ------------   -----------------  -----------------  -----------------  -----------------
         O            1.752788008254     1.280737101422    -0.056806873961    15.994914619570
         O            2.550462008254    -0.822073898578     0.286217126039    15.994914619570
         C           -2.247611991746    -0.362062898578    -0.494948873961    12.000000000000
         C           -3.188457991746     0.195530101422     0.578279126039    12.000000000000
         C           -0.853716991746     0.172451101422    -0.353830873961    12.000000000000
         C            0.240874008254    -0.562117898578    -0.104553873961    12.000000000000
         C            1.632791008254     0.023371101422     0.053739126039    12.000000000000
         H           -2.227973991746    -1.457239898578    -0.440774873961     1.007825032230
         H           -2.646810991746    -0.100839898578    -1.484696873961     1.007825032230
         H           -3.231523991746     1.287835101422     0.527887126039     1.007825032230
         H           -4.205306991746    -0.189094898578     0.453337126039     1.007825032230
         H           -2.837833991746    -0.081722898578     1.576709126039     1.007825032230
         H           -0.724718991746     1.252431101422    -0.440942873961     1.007825032230
         H            0.160476008254    -1.646388898578    -0.006578873961     1.007825032230

  Basis Set: AUG-CC-PVTZ
    Blend: AUG-CC-PVTZ
  Basis Set: (AUG-CC-PVTZ AUX)
    Blend: AUG-CC-PVTZ-JKFIT
	 Reference Energy          =    -343.2857286639930408 [Eh]
	 Singles Energy            =      -0.0000000000000000 [Eh]
	 Same-Spin Energy          =      -0.3481417947339607 [Eh]
	 Opposite-Spin Energy      =      -1.1055618898869592 [Eh]
	 Correlation Energy        =      -1.4537036846209199 [Eh]
	 Total Energy              =    -344.7394323486139456 [Eh]

	 ================> DF-SCS-MP2 Energies <==================
	-----------------------------------------------------------
	 SCS Same-Spin Scale       =       0.3333333333333333 [-]
	 SCS Opposite-Spin Scale   =       1.2000000000000000 [-]
	 SCS Same-Spin Energy      =      -0.1160472649113202 [Eh]
	 SCS Opposite-Spin Energy  =      -1.3266742678643511 [Eh]
	 SCS Correlation Energy    =      -1.4427215327756713 [Eh]
	 SCS Total Energy          =    -344.7284501967687333 [Eh]
	-----------------------------------------------------------

  Dipole Moment: [D]
     X:    -9.5109      Y:    -1.1533      Z:    -0.5792     Total:     9.5981

*** Psi4 exiting successfully. Buy a developer a beer!
