                               Psi4 1.3.2 release

  ==> Input File <==

--------------------------------------------------------------------------
#psi4
#
memory 32 gb

molecule  {
-1 1
  O        1.8996640     1.2894670    -0.0585490
  O        2.6973380    -0.8133440     0.2844750
  C       -2.1007360    -0.3533330    -0.4966910
  C       -3.0415820     0.2042600     0.5765370
  C       -0.7068410     0.1811810    -0.3555730
  C        0.3877500    -0.5533880    -0.1062960
  C        1.7985954     0.2304382     0.0345594
  H       -2.0810980    -1.4485100    -0.4425170
  H       -2.4999350    -0.0921100    -1.4864390
  H       -3.0846480     1.2965650     0.5261450
  H       -4.0584310    -0.1803650     0.4515950
  H       -2.6909580    -0.0729930     1.5749670
  H       -0.5778430     1.2611610    -0.4426850
  H        0.3073520    -1.6376590    -0.0083210
units angstrom
no_reorient  #important for SAPT in psi4, default
symmetry c1  #important for SAPT in psi4, default
}

set PROPERTIES_ORIGIN ["COM"]
properties('MP2/aug-cc-pvtz', properties = ['dipole'])
--------------------------------------------------------------------------

    Molecular point group: c1
  Charge       = -1
  Multiplicity = 1
  Basis Set: AUG-CC-PVTZ
    Blend: AUG-CC-PVTZ
  Basis Set: (AUG-CC-PVTZ AUX)
    Blend: AUG-CC-PVTZ-JKFIT

    Orbital Energies [Eh]
    ---------------------

    Doubly Occupied:

       1A    -20.341509     2A    -20.261212     3A    -11.138748
       4A    -11.111560     5A    -11.107682     6A    -11.073169
       7A    -11.062102     8A     -1.296994     9A     -1.013061
      10A     -0.947393    11A     -0.852485    12A     -0.732583
      13A     -0.611336    14A     -0.548502    15A     -0.509145
      16A     -0.482874    17A     -0.474289    18A     -0.426250
      19A     -0.420208    20A     -0.404792    21A     -0.394801
      22A     -0.377519    23A     -0.350680    24A     -0.207956
      25A     -0.207561    26A     -0.175619    27A     -0.169727

  @DF-RHF Final Energy:  -343.21884922050856

   => Energetics <=

    Nuclear Repulsion Energy =            271.7597813064742809
    One-Electron Energy =               -1016.5577494457623970
    Two-Electron Energy =                 401.5791189187794998
    Total Energy =                       -343.2188492205085595
  Basis Set: (AUG-CC-PVTZ AUX)
    Blend: AUG-CC-PVTZ-RI
    Molecular point group: c1

    Geometry (in Angstrom), charge = -1, multiplicity = 1:

       Center              X                  Y                   Z               Mass
    ------------   -----------------  -----------------  -----------------  -----------------
         O            1.750494689994     1.256707055436    -0.054694177352    15.994914619570
         O            2.548168689994    -0.846103944564     0.288329822648    15.994914619570
         C           -2.249905310006    -0.386092944564    -0.492836177352    12.000000000000
         C           -3.190751310006     0.171500055436     0.580391822648    12.000000000000
         C           -0.856010310006     0.148421055436    -0.351718177352    12.000000000000
         C            0.238580689994    -0.586147944564    -0.102441177352    12.000000000000
         C            1.649426089994     0.197678255436     0.038414222648    12.000000000000
         H           -2.230267310006    -1.481269944564    -0.438662177352     1.007825032230
         H           -2.649104310006    -0.124869944564    -1.482584177352     1.007825032230
         H           -3.233817310006     1.263805055436     0.529999822648     1.007825032230
         H           -4.207600310006    -0.213124944564     0.455449822648     1.007825032230
         H           -2.840127310006    -0.105752944564     1.578821822648     1.007825032230
         H           -0.727012310006     1.228401055436    -0.438830177352     1.007825032230
         H            0.158182689994    -1.670418944564    -0.004466177352     1.007825032230

  Basis Set: AUG-CC-PVTZ
    Blend: AUG-CC-PVTZ
  Basis Set: (AUG-CC-PVTZ AUX)
    Blend: AUG-CC-PVTZ-JKFIT
	 Reference Energy          =    -343.2188492205085595 [Eh]
	 Singles Energy            =      -0.0000000000000000 [Eh]
	 Same-Spin Energy          =      -0.3469307426784767 [Eh]
	 Opposite-Spin Energy      =      -1.1026057429538201 [Eh]
	 Correlation Energy        =      -1.4495364856322968 [Eh]
	 Total Energy              =    -344.6683857061408389 [Eh]

	 ================> DF-SCS-MP2 Energies <==================
	-----------------------------------------------------------
	 SCS Same-Spin Scale       =       0.3333333333333333 [-]
	 SCS Opposite-Spin Scale   =       1.2000000000000000 [-]
	 SCS Same-Spin Energy      =      -0.1156435808928256 [Eh]
	 SCS Opposite-Spin Energy  =      -1.3231268915445840 [Eh]
	 SCS Correlation Energy    =      -1.4387704724374095 [Eh]
	 SCS Total Energy          =    -344.6576196929459570 [Eh]
	-----------------------------------------------------------

  Dipole Moment: [D]
     X:    -9.5211      Y:     0.8165      Z:    -0.8070     Total:     9.5901

*** Psi4 exiting successfully. Buy a developer a beer!
