                               Psi4 1.3.2 release

  ==> Input File <==

--------------------------------------------------------------------------
#psi4
#
memory 32 gb

molecule  {
-1 1
  O        1.8996640     1.2894670    -0.0585490
  O        2.6973380    -0.8133440     0.2844750
  C       -2.1178076    -0.3043704    -0.5038151
  C       -3.0415820     0.2042600     0.5765370
  C       -0.7068410     0.1811810    -0.3555730
  C        0.3877500    -0.5533880    -0.1062960
  C        1.7796670     0.0321010     0.0519970
  H       -2.0810980    -1.4485100    -0.4425170
  H       -2.4999350    -0.0921100    -1.4864390
  H       -3.0846480     1.2965650     0.5261450
  H       -4.0584310    -0.1803650     0.4515950
  H       -2.6909580    -0.0729930     1.5749670
  H       -0.6153754     1.2645268    -0.4482110
  H        0.3073520    -1.6376590    -0.0083210
units angstrom
no_reorient  #important for SAPT in psi4, default
symmetry c1  #important for SAPT in psi4, default
}

set PROPERTIES_ORIGIN ["COM"]
properties('MP2/aug-cc-pvtz', properties = ['dipole'])
--------------------------------------------------------------------------

    Molecular point group: c1
  Charge       = -1
  Multiplicity = 1
  Basis Set: AUG-CC-PVTZ
    Blend: AUG-CC-PVTZ
  Basis Set: (AUG-CC-PVTZ AUX)
    Blend: AUG-CC-PVTZ-JKFIT

    Orbital Energies [Eh]
    ---------------------

    Doubly Occupied:

       1A    -20.295675     2A    -20.291555     3A    -11.142493
       4A    -11.115516     5A    -11.114532     6A    -11.086392
       7A    -11.071921     8A     -1.161952     9A     -1.061117
      10A     -0.956668    11A     -0.864288    12A     -0.743996
      13A     -0.632052    14A     -0.549173    15A     -0.498676
      16A     -0.484539    17A     -0.445777    18A     -0.425554
      19A     -0.413888    20A     -0.377654    21A     -0.376775
      22A     -0.358493    23A     -0.339032    24A     -0.211798
      25A     -0.208913    26A     -0.206391    27A     -0.191174

  @DF-RHF Final Energy:  -343.28198935626517

   => Energetics <=

    Nuclear Repulsion Energy =            270.8814457265425517
    One-Electron Energy =               -1015.0748831201977964
    Two-Electron Energy =                 400.9114480373900733
    Total Energy =                       -343.2819893562651714
  Basis Set: (AUG-CC-PVTZ AUX)
    Blend: AUG-CC-PVTZ-RI
    Molecular point group: c1

    Geometry (in Angstrom), charge = -1, multiplicity = 1:

       Center              X                  Y                   Z               Mass
    ------------   -----------------  -----------------  -----------------  -----------------
         O            1.755238270876     1.274770664980    -0.055887505949    15.994914619570
         O            2.552912270876    -0.828040335020     0.287136494051    15.994914619570
         C           -2.262233329124    -0.319066735020    -0.501153605949    12.000000000000
         C           -3.186007729124     0.189563664980     0.579198494051    12.000000000000
         C           -0.851266729124     0.166484664980    -0.352911505949    12.000000000000
         C            0.243324270876    -0.568084335020    -0.103634505949    12.000000000000
         C            1.635241270876     0.017404664980     0.054658494051    12.000000000000
         H           -2.225523729124    -1.463206335020    -0.439855505949     1.007825032230
         H           -2.644360729124    -0.106806335020    -1.483777505949     1.007825032230
         H           -3.229073729124     1.281868664980     0.528806494051     1.007825032230
         H           -4.202856729124    -0.195061335020     0.454256494051     1.007825032230
         H           -2.835383729124    -0.087689335020     1.577628494051     1.007825032230
         H           -0.759801129124     1.249830464980    -0.445549505949     1.007825032230
         H            0.162926270876    -1.652355335020    -0.005659505949     1.007825032230

  Basis Set: AUG-CC-PVTZ
    Blend: AUG-CC-PVTZ
  Basis Set: (AUG-CC-PVTZ AUX)
    Blend: AUG-CC-PVTZ-JKFIT
	 Reference Energy          =    -343.2819893562651714 [Eh]
	 Singles Energy            =      -0.0000000000000000 [Eh]
	 Same-Spin Energy          =      -0.3482872112920501 [Eh]
	 Opposite-Spin Energy      =      -1.1059700513804565 [Eh]
	 Correlation Energy        =      -1.4542572626725065 [Eh]
	 Total Energy              =    -344.7362466189376846 [Eh]

	 ================> DF-SCS-MP2 Energies <==================
	-----------------------------------------------------------
	 SCS Same-Spin Scale       =       0.3333333333333333 [-]
	 SCS Opposite-Spin Scale   =       1.2000000000000000 [-]
	 SCS Same-Spin Energy      =      -0.1160957370973500 [Eh]
	 SCS Opposite-Spin Energy  =      -1.3271640616565477 [Eh]
	 SCS Correlation Energy    =      -1.4432597987538978 [Eh]
	 SCS Total Energy          =    -344.7252491550190712 [Eh]
	-----------------------------------------------------------

  Dipole Moment: [D]
     X:    -9.5293      Y:    -1.0897      Z:    -0.5841     Total:     9.6091

*** Psi4 exiting successfully. Buy a developer a beer!
