                               Psi4 1.3.2 release

  ==> Input File <==

--------------------------------------------------------------------------
#psi4
#
memory 32 gb

molecule  {
-1 1
  O        1.8996640     1.2894670    -0.0585490
  O        2.6973380    -0.8133440     0.2844750
  C       -2.1007360    -0.3533330    -0.4966910
  C       -3.0415820     0.2042600     0.5765370
  C       -0.7259613     0.2296885    -0.3601514
  C        0.3877500    -0.5533880    -0.1062960
  C        1.7796670     0.0321010     0.0519970
  H       -2.1191085    -1.4487465    -0.4470438
  H       -2.4999350    -0.0921100    -1.4864390
  H       -3.0846480     1.2965650     0.5261450
  H       -4.0584310    -0.1803650     0.4515950
  H       -2.6909580    -0.0729930     1.5749670
  H       -0.5778430     1.2611610    -0.4426850
  H        0.3073520    -1.6376590    -0.0083210
units angstrom
no_reorient  #important for SAPT in psi4, default
symmetry c1  #important for SAPT in psi4, default
}

set PROPERTIES_ORIGIN ["COM"]
properties('MP2/aug-cc-pvtz', properties = ['dipole'])
--------------------------------------------------------------------------

    Molecular point group: c1
  Charge       = -1
  Multiplicity = 1
  Basis Set: AUG-CC-PVTZ
    Blend: AUG-CC-PVTZ
  Basis Set: (AUG-CC-PVTZ AUX)
    Blend: AUG-CC-PVTZ-JKFIT

    Orbital Energies [Eh]
    ---------------------

    Doubly Occupied:

       1A    -20.295331     2A    -20.291414     3A    -11.141569
       4A    -11.114914     5A    -11.114183     6A    -11.088464
       7A    -11.076715     8A     -1.161679     9A     -1.060953
      10A     -0.952774    11A     -0.855340    12A     -0.741875
      13A     -0.641903    14A     -0.547133    15A     -0.492615
      16A     -0.488160    17A     -0.446036    18A     -0.418923
      19A     -0.407800    20A     -0.383002    21A     -0.370679
      22A     -0.362234    23A     -0.357327    24A     -0.210603
      25A     -0.208938    26A     -0.195803    27A     -0.190625

  @DF-RHF Final Energy:  -343.27995780184375

   => Energetics <=

    Nuclear Repulsion Energy =            270.3892174020579091
    One-Electron Energy =               -1014.1043633102445938
    Two-Electron Energy =                 400.4351881063429914
    Total Energy =                       -343.2799578018437501
  Basis Set: (AUG-CC-PVTZ AUX)
    Blend: AUG-CC-PVTZ-RI
    Molecular point group: c1

    Geometry (in Angstrom), charge = -1, multiplicity = 1:

       Center              X                  Y                   Z               Mass
    ------------   -----------------  -----------------  -----------------  -----------------
         O            1.755491351206     1.274862458855    -0.056206104008    15.994914619570
         O            2.553165351206    -0.827948541145     0.286817895992    15.994914619570
         C           -2.244908648794    -0.367937541145    -0.494348104008    12.000000000000
         C           -3.185754648794     0.189655458855     0.578879895992    12.000000000000
         C           -0.870133948794     0.215083958855    -0.357808504008    12.000000000000
         C            0.243577351206    -0.567992541145    -0.103953104008    12.000000000000
         C            1.635494351206     0.017496458855     0.054339895992    12.000000000000
         H           -2.263281148794    -1.463351041145    -0.444700904008     1.007825032230
         H           -2.644107648794    -0.106714541145    -1.484096104008     1.007825032230
         H           -3.228820648794     1.281960458855     0.528487895992     1.007825032230
         H           -4.202603648794    -0.194969541145     0.453937895992     1.007825032230
         H           -2.835130648794    -0.087597541145     1.577309895992     1.007825032230
         H           -0.722015648794     1.246556458855    -0.440342104008     1.007825032230
         H            0.163179351206    -1.652263541145    -0.005978104008     1.007825032230

  Basis Set: AUG-CC-PVTZ
    Blend: AUG-CC-PVTZ
  Basis Set: (AUG-CC-PVTZ AUX)
    Blend: AUG-CC-PVTZ-JKFIT
	 Reference Energy          =    -343.2799578018437501 [Eh]
	 Singles Energy            =      -0.0000000000000000 [Eh]
	 Same-Spin Energy          =      -0.3484958198829042 [Eh]
	 Opposite-Spin Energy      =      -1.1066365273362533 [Eh]
	 Correlation Energy        =      -1.4551323472191575 [Eh]
	 Total Energy              =    -344.7350901490628985 [Eh]

	 ================> DF-SCS-MP2 Energies <==================
	-----------------------------------------------------------
	 SCS Same-Spin Scale       =       0.3333333333333333 [-]
	 SCS Opposite-Spin Scale   =       1.2000000000000000 [-]
	 SCS Same-Spin Energy      =      -0.1161652732943014 [Eh]
	 SCS Opposite-Spin Energy  =      -1.3279638328035039 [Eh]
	 SCS Correlation Energy    =      -1.4441291060978054 [Eh]
	 SCS Total Energy          =    -344.7240869079415688 [Eh]
	-----------------------------------------------------------

  Dipole Moment: [D]
     X:    -9.5059      Y:    -1.1402      Z:    -0.5947     Total:     9.5925

*** Psi4 exiting successfully. Buy a developer a beer!
