                               Psi4 1.4a3.dev225

  ==> Input File <==

--------------------------------------------------------------------------
#psi4
#
memory 32 gb

molecule  {
-1 1
  O        1.8994270     1.2905180    -0.0615170
  O        2.6993700    -0.8109500     0.2832770
  C       -2.1001690    -0.3616000    -0.4913260
  C       -3.0433460     0.2119310     0.5709670
  C       -0.7080250     0.1770830    -0.3546910
  C        0.3885780    -0.5541740    -0.1016650
  C        1.7436379     0.0662510     0.0427592
  H       -2.0812530    -1.4558260    -0.4203270
  H       -2.4968010    -0.1155520    -1.4857470
  H       -3.0817280     1.3037570     0.5071420
  H       -4.0608920    -0.1705790     0.4451360
  H       -2.6986290    -0.0550030     1.5741980
  H       -0.5806440     1.2564400    -0.4499950
  H        0.3081890    -1.6372690     0.0045550
units angstrom
no_reorient  #important for SAPT in psi4, default
symmetry c1  #important for SAPT in psi4, default
}

set PROPERTIES_ORIGIN ["COM"]
properties('MP2/aug-cc-pvtz', properties = ['dipole'])
--------------------------------------------------------------------------

    Molecular point group: c1
  Charge       = -1
  Multiplicity = 1
  Basis Set: AUG-CC-PVTZ
    Blend: AUG-CC-PVTZ
  Basis Set: (AUG-CC-PVTZ AUX)
    Blend: AUG-CC-PVTZ-JKFIT

    Orbital Energies [Eh]
    ---------------------

    Doubly Occupied:

       1A    -20.300612     2A    -20.284352     3A    -11.141577
       4A    -11.117264     5A    -11.115632     6A    -11.088101
       7A    -11.071875     8A     -1.164319     9A     -1.046198
      10A     -0.956891    11A     -0.866485    12A     -0.747082
      13A     -0.635611    14A     -0.553587    15A     -0.496277
      16A     -0.488752    17A     -0.447575    18A     -0.419302
      19A     -0.410419    20A     -0.383655    21A     -0.371577
      22A     -0.357126    23A     -0.352411    24A     -0.214199
      25A     -0.206775    26A     -0.202051    27A     -0.185684

  @DF-RHF Final Energy:  -343.28024479550720

   => Energetics <=

    Nuclear Repulsion Energy =            270.9626334965520869
    One-Electron Energy =               -1015.2349766041182875
    Two-Electron Energy =                 400.9920983120590563
    Total Energy =                       -343.2802447955072012
  Basis Set: (AUG-CC-PVTZ AUX)
    Blend: AUG-CC-PVTZ-RI
    Molecular point group: c1

    Geometry (in Angstrom), charge = -1, multiplicity = 1:

       Center              X                  Y                   Z               Mass
    ------------   -----------------  -----------------  -----------------  -----------------
         O            1.756877541964     1.277759406107    -0.058648532281    15.994914619570
         O            2.556820541964    -0.823708593893     0.286145467719    15.994914619570
         C           -2.242718458036    -0.374358593893    -0.488457532281    12.000000000000
         C           -3.185895458036     0.199172406107     0.573835467719    12.000000000000
         C           -0.850574458036     0.164324406107    -0.351822532281    12.000000000000
         C            0.246028541964    -0.566932593893    -0.098796532281    12.000000000000
         C            1.601088441964     0.053492406107     0.045627667719    12.000000000000
         H           -2.223802458036    -1.468584593893    -0.417458532281     1.007825032230
         H           -2.639350458036    -0.128310593893    -1.482878532281     1.007825032230
         H           -3.224277458036     1.290998406107     0.510010467719     1.007825032230
         H           -4.203441458036    -0.183337593893     0.448004467719     1.007825032230
         H           -2.841178458036    -0.067761593893     1.577066467719     1.007825032230
         H           -0.723193458036     1.243681406107    -0.447126532281     1.007825032230
         H            0.165639541964    -1.650027593893     0.007423467719     1.007825032230

  Basis Set: AUG-CC-PVTZ
    Blend: AUG-CC-PVTZ
  Basis Set: (AUG-CC-PVTZ AUX)
    Blend: AUG-CC-PVTZ-JKFIT
	 Reference Energy          =    -343.2802447955072012 [Eh]
	 Singles Energy            =      -0.0000000000000000 [Eh]
	 Same-Spin Energy          =      -0.3487278420494252 [Eh]
	 Opposite-Spin Energy      =      -1.1067276503192280 [Eh]
	 Correlation Energy        =      -1.4554554923686531 [Eh]
	 Total Energy              =    -344.7357002878758294 [Eh]

	 ================> DF-SCS-MP2 Energies <==================
	-----------------------------------------------------------
	 SCS Same-Spin Scale       =       0.3333333333333333 [-]
	 SCS Opposite-Spin Scale   =       1.2000000000000000 [-]
	 SCS Same-Spin Energy      =      -0.1162426140164751 [Eh]
	 SCS Opposite-Spin Energy  =      -1.3280731803830736 [Eh]
	 SCS Correlation Energy    =      -1.4443157943995486 [Eh]
	 SCS Total Energy          =    -344.7245605899067300 [Eh]
	-----------------------------------------------------------

  Dipole Moment: [D]
     X:    -9.8265      Y:    -0.7988      Z:    -0.6514     Total:     9.8805

*** Psi4 exiting successfully. Buy a developer a beer!
