                               Psi4 1.3.2 release

  ==> Input File <==

--------------------------------------------------------------------------
#psi4
#
memory 32 gb

molecule  {
-1 1
  O        1.9431092     1.2851804    -0.0512867
  O        2.6973380    -0.8133440     0.2844750
  C       -2.1007360    -0.3533330    -0.4966910
  C       -3.0415820     0.2042600     0.5765370
  C       -0.7068410     0.1811810    -0.3555730
  C        0.4081217    -0.6016271    -0.0981336
  C        1.7796670     0.0321010     0.0519970
  H       -2.0810980    -1.4485100    -0.4425170
  H       -2.4999350    -0.0921100    -1.4864390
  H       -3.0846480     1.2965650     0.5261450
  H       -4.0584310    -0.1803650     0.4515950
  H       -2.6909580    -0.0729930     1.5749670
  H       -0.5778430     1.2611610    -0.4426850
  H        0.3073520    -1.6376590    -0.0083210
units angstrom
no_reorient  #important for SAPT in psi4, default
symmetry c1  #important for SAPT in psi4, default
}

set PROPERTIES_ORIGIN ["COM"]
properties('MP2/aug-cc-pvtz', properties = ['dipole'])
--------------------------------------------------------------------------

    Molecular point group: c1
  Charge       = -1
  Multiplicity = 1
  Basis Set: AUG-CC-PVTZ
    Blend: AUG-CC-PVTZ
  Basis Set: (AUG-CC-PVTZ AUX)
    Blend: AUG-CC-PVTZ-JKFIT

    Orbital Energies [Eh]
    ---------------------

    Doubly Occupied:

       1A    -20.291134     2A    -20.291002     3A    -11.140785
       4A    -11.116591     5A    -11.115003     6A    -11.094181
       7A    -11.074980     8A     -1.161208     9A     -1.056924
      10A     -0.953102    11A     -0.857871    12A     -0.745848
      13A     -0.635678    14A     -0.551113    15A     -0.497209
      16A     -0.487874    17A     -0.444335    18A     -0.420434
      19A     -0.409764    20A     -0.384937    21A     -0.371357
      22A     -0.358075    23A     -0.356222    24A     -0.211827
      25A     -0.205199    26A     -0.196408    27A     -0.188719

  @DF-RHF Final Energy:  -343.27903105095999

   => Energetics <=

    Nuclear Repulsion Energy =            270.1036754565910769
    One-Electron Energy =               -1013.5298544074228175
    Two-Electron Energy =                 400.1471478998717544
    Total Energy =                       -343.2790310509599863
  Basis Set: (AUG-CC-PVTZ AUX)
    Blend: AUG-CC-PVTZ-RI
    Molecular point group: c1

    Geometry (in Angstrom), charge = -1, multiplicity = 1:

       Center              X                  Y                   Z               Mass
    ------------   -----------------  -----------------  -----------------  -----------------
         O            1.786748969615     1.282987283557    -0.051706313811    15.994914619570
         O            2.540977769615    -0.815537116443     0.284055386189    15.994914619570
         C           -2.257096230385    -0.355526116443    -0.497110613811    12.000000000000
         C           -3.197942230385     0.202066883557     0.576117386189    12.000000000000
         C           -0.863201230385     0.178987883557    -0.355992613811    12.000000000000
         C            0.251761469615    -0.603820216443    -0.098553213811    12.000000000000
         C            1.623306769615     0.029907883557     0.051577386189    12.000000000000
         H           -2.237458230385    -1.450703116443    -0.442936613811     1.007825032230
         H           -2.656295230385    -0.094303116443    -1.486858613811     1.007825032230
         H           -3.241008230385     1.294371883557     0.525725386189     1.007825032230
         H           -4.214791230385    -0.182558116443     0.451175386189     1.007825032230
         H           -2.847318230385    -0.075186116443     1.574547386189     1.007825032230
         H           -0.734203230385     1.258967883557    -0.443104613811     1.007825032230
         H            0.150991769615    -1.639852116443    -0.008740613811     1.007825032230

  Basis Set: AUG-CC-PVTZ
    Blend: AUG-CC-PVTZ
  Basis Set: (AUG-CC-PVTZ AUX)
    Blend: AUG-CC-PVTZ-JKFIT
	 Reference Energy          =    -343.2790310509599863 [Eh]
	 Singles Energy            =      -0.0000000000000000 [Eh]
	 Same-Spin Energy          =      -0.3484852964508429 [Eh]
	 Opposite-Spin Energy      =      -1.1066077371289096 [Eh]
	 Correlation Energy        =      -1.4550930335797525 [Eh]
	 Total Energy              =    -344.7341240845397579 [Eh]

	 ================> DF-SCS-MP2 Energies <==================
	-----------------------------------------------------------
	 SCS Same-Spin Scale       =       0.3333333333333333 [-]
	 SCS Opposite-Spin Scale   =       1.2000000000000000 [-]
	 SCS Same-Spin Energy      =      -0.1161617654836143 [Eh]
	 SCS Opposite-Spin Energy  =      -1.3279292845546915 [Eh]
	 SCS Correlation Energy    =      -1.4440910500383057 [Eh]
	 SCS Total Energy          =    -344.7231221009982960 [Eh]
	-----------------------------------------------------------

  Dipole Moment: [D]
     X:    -9.6338      Y:    -1.2272      Z:    -0.5907     Total:     9.7296

*** Psi4 exiting successfully. Buy a developer a beer!
