                               Psi4 1.3.2 release

  ==> Input File <==

--------------------------------------------------------------------------
#psi4
#
memory 32 gb

molecule  {
-1 1
  O        1.8996640     1.2894670    -0.0585490
  O        2.6973380    -0.8133440     0.2844750
  C       -2.1007360    -0.3533330    -0.4966910
  C       -3.0415820     0.2042600     0.5765370
  C       -0.7002824     0.1908788    -0.3555198
  C        0.3877500    -0.5533880    -0.1062960
  C        1.7796670     0.0321010     0.0519970
  H       -2.0810980    -1.4485100    -0.4425170
  H       -2.4999350    -0.0921100    -1.4864390
  H       -3.0846480     1.2965650     0.5261450
  H       -4.0584310    -0.1803650     0.4515950
  H       -2.6909580    -0.0729930     1.5749670
  H       -0.5778430     1.2611610    -0.4426850
  H        0.3167380    -1.6381734    -0.0067744
units angstrom
no_reorient  #important for SAPT in psi4, default
symmetry c1  #important for SAPT in psi4, default
}

set PROPERTIES_ORIGIN ["COM"]
properties('MP2/aug-cc-pvtz', properties = ['dipole'])
--------------------------------------------------------------------------

    Molecular point group: c1
  Charge       = -1
  Multiplicity = 1
  Basis Set: AUG-CC-PVTZ
    Blend: AUG-CC-PVTZ
  Basis Set: (AUG-CC-PVTZ AUX)
    Blend: AUG-CC-PVTZ-JKFIT

    Orbital Energies [Eh]
    ---------------------

    Doubly Occupied:

       1A    -20.295187     2A    -20.291348     3A    -11.141446
       4A    -11.115562     5A    -11.114165     6A    -11.085260
       7A    -11.070004     8A     -1.161639     9A     -1.060856
      10A     -0.952808    11A     -0.862393    12A     -0.742673
      13A     -0.634399    14A     -0.548582    15A     -0.493794
      16A     -0.486088    17A     -0.446022    18A     -0.419827
      19A     -0.408272    20A     -0.382730    21A     -0.374512
      22A     -0.357855    23A     -0.350754    24A     -0.210770
      25A     -0.208745    26A     -0.204819    27A     -0.191048

  @DF-RHF Final Energy:  -343.28578312631117

   => Energetics <=

    Nuclear Repulsion Energy =            270.8161014251379584
    One-Electron Energy =               -1014.9806520117463151
    Two-Electron Energy =                 400.8787674602971833
    Total Energy =                       -343.2857831263111734
  Basis Set: (AUG-CC-PVTZ AUX)
    Blend: AUG-CC-PVTZ-RI
    Molecular point group: c1

    Geometry (in Angstrom), charge = -1, multiplicity = 1:

       Center              X                  Y                   Z               Mass
    ------------   -----------------  -----------------  -----------------  -----------------
         O            1.751897877527     1.279567374152    -0.056829056918    15.994914619570
         O            2.549571877527    -0.823243625848     0.286194943082    15.994914619570
         C           -2.248502122473    -0.363232625848    -0.494971056918    12.000000000000
         C           -3.189348122473     0.194360374152     0.578256943082    12.000000000000
         C           -0.848048522473     0.180979174152    -0.353799856918    12.000000000000
         C            0.239983877527    -0.563287625848    -0.104576056918    12.000000000000
         C            1.631900877527     0.022201374152     0.053716943082    12.000000000000
         H           -2.228864122473    -1.458409625848    -0.440797056918     1.007825032230
         H           -2.647701122473    -0.102009625848    -1.484719056918     1.007825032230
         H           -3.232414122473     1.286665374152     0.527864943082     1.007825032230
         H           -4.206197122473    -0.190264625848     0.453314943082     1.007825032230
         H           -2.838724122473    -0.082892625848     1.576686943082     1.007825032230
         H           -0.725609122473     1.251261374152    -0.440965056918     1.007825032230
         H            0.168971877527    -1.648073025848    -0.005054456918     1.007825032230

  Basis Set: AUG-CC-PVTZ
    Blend: AUG-CC-PVTZ
  Basis Set: (AUG-CC-PVTZ AUX)
    Blend: AUG-CC-PVTZ-JKFIT
	 Reference Energy          =    -343.2857831263111734 [Eh]
	 Singles Energy            =      -0.0000000000000000 [Eh]
	 Same-Spin Energy          =      -0.3480184666079830 [Eh]
	 Opposite-Spin Energy      =      -1.1054289690867394 [Eh]
	 Correlation Energy        =      -1.4534474356947222 [Eh]
	 Total Energy              =    -344.7392305620059005 [Eh]

	 ================> DF-SCS-MP2 Energies <==================
	-----------------------------------------------------------
	 SCS Same-Spin Scale       =       0.3333333333333333 [-]
	 SCS Opposite-Spin Scale   =       1.2000000000000000 [-]
	 SCS Same-Spin Energy      =      -0.1160061555359943 [Eh]
	 SCS Opposite-Spin Energy  =      -1.3265147629040872 [Eh]
	 SCS Correlation Energy    =      -1.4425209184400816 [Eh]
	 SCS Total Energy          =    -344.7283040447512690 [Eh]
	-----------------------------------------------------------

  Dipole Moment: [D]
     X:    -9.5042      Y:    -1.1489      Z:    -0.5797     Total:     9.5909

*** Psi4 exiting successfully. Buy a developer a beer!
