                               Psi4 1.3.2 release

  ==> Input File <==

--------------------------------------------------------------------------
#psi4
#
memory 32 gb

molecule  {
-1 1
  O        1.8778833     1.2910361    -0.0621302
  O        2.6973380    -0.8133440     0.2844750
  C       -2.1007360    -0.3533330    -0.4966910
  C       -3.0415820     0.2042600     0.5765370
  C       -0.7068410     0.1811810    -0.3555730
  C        0.3781986    -0.5289973    -0.1103055
  C        1.7796670     0.0321010     0.0519970
  H       -2.0810980    -1.4485100    -0.4425170
  H       -2.4999350    -0.0921100    -1.4864390
  H       -3.0846480     1.2965650     0.5261450
  H       -4.0584310    -0.1803650     0.4515950
  H       -2.6909580    -0.0729930     1.5749670
  H       -0.5778430     1.2611610    -0.4426850
  H        0.3073520    -1.6376590    -0.0083210
units angstrom
no_reorient  #important for SAPT in psi4, default
symmetry c1  #important for SAPT in psi4, default
}

set PROPERTIES_ORIGIN ["COM"]
properties('MP2/aug-cc-pvtz', properties = ['dipole'])
--------------------------------------------------------------------------

    Molecular point group: c1
  Charge       = -1
  Multiplicity = 1
  Basis Set: AUG-CC-PVTZ
    Blend: AUG-CC-PVTZ
  Basis Set: (AUG-CC-PVTZ AUX)
    Blend: AUG-CC-PVTZ-JKFIT

    Orbital Energies [Eh]
    ---------------------

    Doubly Occupied:

       1A    -20.297553     2A    -20.292080     3A    -11.142827
       4A    -11.115367     5A    -11.113520     6A    -11.081001
       7A    -11.067682     8A     -1.162335     9A     -1.063259
      10A     -0.954982    11A     -0.864782    12A     -0.742948
      13A     -0.631855    14A     -0.548305    15A     -0.494795
      16A     -0.483711    17A     -0.446874    18A     -0.418876
      19A     -0.408425    20A     -0.382076    21A     -0.377983
      22A     -0.358998    23A     -0.343247    24A     -0.212944
      25A     -0.209074    26A     -0.208577    27A     -0.192408

  @DF-RHF Final Energy:  -343.28541351242001

   => Energetics <=

    Nuclear Repulsion Energy =            271.2488761642433701
    One-Electron Energy =               -1015.8356126541104913
    Two-Electron Energy =                 401.3013229774471142
    Total Energy =                       -343.2854135124200070
  Basis Set: (AUG-CC-PVTZ AUX)
    Blend: AUG-CC-PVTZ-RI
    Molecular point group: c1

    Geometry (in Angstrom), charge = -1, multiplicity = 1:

       Center              X                  Y                   Z               Mass
    ------------   -----------------  -----------------  -----------------  -----------------
         O            1.735681941863     1.279097687215    -0.059323957558    15.994914619570
         O            2.555136641863    -0.825282412785     0.287281242442    15.994914619570
         C           -2.242937358137    -0.365271412785    -0.493884757558    12.000000000000
         C           -3.183783358137     0.192321587215     0.579343242442    12.000000000000
         C           -0.849042358137     0.169242587215    -0.352766757558    12.000000000000
         C            0.235997241863    -0.540935712785    -0.107499257558    12.000000000000
         C            1.637465641863     0.020162587215     0.054803242442    12.000000000000
         H           -2.223299358137    -1.460448412785    -0.439710757558     1.007825032230
         H           -2.642136358137    -0.104048412785    -1.483632757558     1.007825032230
         H           -3.226849358137     1.284626587215     0.528951242442     1.007825032230
         H           -4.200632358137    -0.192303412785     0.454401242442     1.007825032230
         H           -2.833159358137    -0.084931412785     1.577773242442     1.007825032230
         H           -0.720044358137     1.249222587215    -0.439878757558     1.007825032230
         H            0.165150641863    -1.649597412785    -0.005514757558     1.007825032230

  Basis Set: AUG-CC-PVTZ
    Blend: AUG-CC-PVTZ
  Basis Set: (AUG-CC-PVTZ AUX)
    Blend: AUG-CC-PVTZ-JKFIT
	 Reference Energy          =    -343.2854135124200070 [Eh]
	 Singles Energy            =      -0.0000000000000000 [Eh]
	 Same-Spin Energy          =      -0.3480752007865612 [Eh]
	 Opposite-Spin Energy      =      -1.1052745812732616 [Eh]
	 Correlation Energy        =      -1.4533497820598229 [Eh]
	 Total Energy              =    -344.7387632944798384 [Eh]

	 ================> DF-SCS-MP2 Energies <==================
	-----------------------------------------------------------
	 SCS Same-Spin Scale       =       0.3333333333333333 [-]
	 SCS Opposite-Spin Scale   =       1.2000000000000000 [-]
	 SCS Same-Spin Energy      =      -0.1160250669288537 [Eh]
	 SCS Opposite-Spin Energy  =      -1.3263294975279138 [Eh]
	 SCS Correlation Energy    =      -1.4423545644567675 [Eh]
	 SCS Total Energy          =    -344.7277680768767709 [Eh]
	-----------------------------------------------------------

  Dipole Moment: [D]
     X:    -9.4412      Y:    -1.1081      Z:    -0.5730     Total:     9.5233

*** Psi4 exiting successfully. Buy a developer a beer!
