                               Psi4 1.4a3.dev225

  ==> Input File <==

--------------------------------------------------------------------------
#psi4
#
memory 32 gb

molecule  {
-1 1
  O        1.8994270     1.2905180    -0.0615170
  O        2.6993700    -0.8109500     0.2832770
  C       -2.1001690    -0.3616000    -0.4913260
  C       -3.0433460     0.2119310     0.5709670
  C       -0.7080250     0.1770830    -0.3546910
  C        0.3885780    -0.5541740    -0.1016650
  C        1.7798570     0.0330080     0.0518740
  H       -2.0812530    -1.4558260    -0.4203270
  H       -2.4968010    -0.1155520    -1.4857470
  H       -3.0817280     1.3037570     0.5071420
  H       -4.0608920    -0.1705790     0.4451360
  H       -2.6986290    -0.0550030     1.5741980
  H       -0.5806440     1.2564400    -0.4499950
  H        0.2751420    -1.6747759     0.0034924
units angstrom
no_reorient  #important for SAPT in psi4, default
symmetry c1  #important for SAPT in psi4, default
}

set PROPERTIES_ORIGIN ["COM"]
properties('MP2/aug-cc-pvtz', properties = ['dipole'])
--------------------------------------------------------------------------

    Molecular point group: c1
  Charge       = -1
  Multiplicity = 1
  Basis Set: AUG-CC-PVTZ
    Blend: AUG-CC-PVTZ
  Basis Set: (AUG-CC-PVTZ AUX)
    Blend: AUG-CC-PVTZ-JKFIT

    Orbital Energies [Eh]
    ---------------------

    Doubly Occupied:

       1A    -20.295499     2A    -20.292551     3A    -11.143341
       4A    -11.115822     5A    -11.114023     6A    -11.085708
       7A    -11.075002     8A     -1.162180     9A     -1.061321
      10A     -0.954464    11A     -0.861725    12A     -0.743066
      13A     -0.631266    14A     -0.548838    15A     -0.494825
      16A     -0.482647    17A     -0.446197    18A     -0.417456
      19A     -0.408738    20A     -0.382494    21A     -0.375941
      22A     -0.358421    23A     -0.346809    24A     -0.211969
      25A     -0.209523    26A     -0.204941    27A     -0.191547

  @DF-RHF Final Energy:  -343.28383274715316

   => Energetics <=

    Nuclear Repulsion Energy =            270.6532227909199833
    One-Electron Energy =               -1014.6414777740297950
    Two-Electron Energy =                 400.7044222359565993
    Total Energy =                       -343.2838327471531557
  Basis Set: (AUG-CC-PVTZ AUX)
    Blend: AUG-CC-PVTZ-RI
    Molecular point group: c1

    Geometry (in Angstrom), charge = -1, multiplicity = 1:

       Center              X                  Y                   Z               Mass
    ------------   -----------------  -----------------  -----------------  -----------------
         O            1.752825593770     1.282168696194    -0.059742046518    15.994914619570
         O            2.552768593770    -0.819299303806     0.285051953482    15.994914619570
         C           -2.246770406230    -0.369949303806    -0.489551046518    12.000000000000
         C           -3.189947406230     0.203581696194     0.572741953482    12.000000000000
         C           -0.854626406230     0.168733696194    -0.352916046518    12.000000000000
         C            0.241976593770    -0.562523303806    -0.099890046518    12.000000000000
         C            1.633255593770     0.024658696194     0.053648953482    12.000000000000
         H           -2.227854406230    -1.464175303806    -0.418552046518     1.007825032230
         H           -2.643402406230    -0.123901303806    -1.483972046518     1.007825032230
         H           -3.228329406230     1.295407696194     0.508916953482     1.007825032230
         H           -4.207493406230    -0.178928303806     0.446910953482     1.007825032230
         H           -2.845230406230    -0.063352303806     1.575972953482     1.007825032230
         H           -0.727245406230     1.248090696194    -0.448220046518     1.007825032230
         H            0.128540593770    -1.683125203806     0.005267353482     1.007825032230

  Basis Set: AUG-CC-PVTZ
    Blend: AUG-CC-PVTZ
  Basis Set: (AUG-CC-PVTZ AUX)
    Blend: AUG-CC-PVTZ-JKFIT
	 Reference Energy          =    -343.2838327471531557 [Eh]
	 Singles Energy            =      -0.0000000000000000 [Eh]
	 Same-Spin Energy          =      -0.3482897689709864 [Eh]
	 Opposite-Spin Energy      =      -1.1059633803836670 [Eh]
	 Correlation Energy        =      -1.4542531493546536 [Eh]
	 Total Energy              =    -344.7380858965078119 [Eh]

	 ================> DF-SCS-MP2 Energies <==================
	-----------------------------------------------------------
	 SCS Same-Spin Scale       =       0.3333333333333333 [-]
	 SCS Opposite-Spin Scale   =       1.2000000000000000 [-]
	 SCS Same-Spin Energy      =      -0.1160965896569955 [Eh]
	 SCS Opposite-Spin Energy  =      -1.3271560564604004 [Eh]
	 SCS Correlation Energy    =      -1.4432526461173958 [Eh]
	 SCS Total Energy          =    -344.7270853932705563 [Eh]
	-----------------------------------------------------------

  Dipole Moment: [D]
     X:    -9.5048      Y:    -1.1254      Z:    -0.5711     Total:     9.5882

*** Psi4 exiting successfully. Buy a developer a beer!
