                               Psi4 1.3.2 release

  ==> Input File <==

--------------------------------------------------------------------------
#psi4
#
memory 32 gb

molecule  {
-1 1
  O        1.8996640     1.2894670    -0.0585490
  O        2.6973380    -0.8133440     0.2844750
  C       -2.1007360    -0.3533330    -0.4966910
  C       -3.0415820     0.2042600     0.5765370
  C       -0.7068410     0.1811810    -0.3555730
  C        0.3877500    -0.5533880    -0.1062960
  C        1.7747301     0.0442313     0.0499868
  H       -2.0810980    -1.4485100    -0.4425170
  H       -2.4999350    -0.0921100    -1.4864390
  H       -3.0846480     1.2965650     0.5261450
  H       -4.0584310    -0.1803650     0.4515950
  H       -2.6909580    -0.0729930     1.5749670
  H       -0.5778430     1.2611610    -0.4426850
  H        0.2979685    -1.6370597    -0.0098517
units angstrom
no_reorient  #important for SAPT in psi4, default
symmetry c1  #important for SAPT in psi4, default
}

set PROPERTIES_ORIGIN ["COM"]
properties('MP2/aug-cc-pvtz', properties = ['dipole'])
--------------------------------------------------------------------------

    Molecular point group: c1
  Charge       = -1
  Multiplicity = 1
  Basis Set: AUG-CC-PVTZ
    Blend: AUG-CC-PVTZ
  Basis Set: (AUG-CC-PVTZ AUX)
    Blend: AUG-CC-PVTZ-JKFIT

    Orbital Energies [Eh]
    ---------------------

    Doubly Occupied:

       1A    -20.294809     2A    -20.292357     3A    -11.142190
       4A    -11.115881     5A    -11.114083     6A    -11.085274
       7A    -11.070141     8A     -1.162601     9A     -1.060347
      10A     -0.954468    11A     -0.862743    12A     -0.743858
      13A     -0.632279    14A     -0.549764    15A     -0.494788
      16A     -0.486172    17A     -0.446395    18A     -0.418787
      19A     -0.408968    20A     -0.383320    21A     -0.375483
      22A     -0.358299    23A     -0.349388    24A     -0.211312
      25A     -0.208966    26A     -0.204558    27A     -0.191279

  @DF-RHF Final Energy:  -343.28541640687860

   => Energetics <=

    Nuclear Repulsion Energy =            270.8824142971309925
    One-Electron Energy =               -1015.0986420667315997
    Two-Electron Energy =                 400.9308113627220678
    Total Energy =                       -343.2854164068785963
  Basis Set: (AUG-CC-PVTZ AUX)
    Blend: AUG-CC-PVTZ-RI
    Molecular point group: c1

    Geometry (in Angstrom), charge = -1, multiplicity = 1:

       Center              X                  Y                   Z               Mass
    ------------   -----------------  -----------------  -----------------  -----------------
         O            1.753481632370     1.279261326034    -0.056547747501    15.994914619570
         O            2.551155632370    -0.823549673966     0.286476252499    15.994914619570
         C           -2.246918367630    -0.363538673966    -0.494689747501    12.000000000000
         C           -3.187764367630     0.194054326034     0.578538252499    12.000000000000
         C           -0.853023367630     0.170975326034    -0.353571747501    12.000000000000
         C            0.241567632370    -0.563593673966    -0.104294747501    12.000000000000
         C            1.628547732370     0.034025626034     0.051988052499    12.000000000000
         H           -2.227280367630    -1.458715673966    -0.440515747501     1.007825032230
         H           -2.646117367630    -0.102315673966    -1.484437747501     1.007825032230
         H           -3.230830367630     1.286359326034     0.528146252499     1.007825032230
         H           -4.204613367630    -0.190570673966     0.453596252499     1.007825032230
         H           -2.837140367630    -0.083198673966     1.576968252499     1.007825032230
         H           -0.724025367630     1.250955326034    -0.440683747501     1.007825032230
         H            0.151786132370    -1.647265373966    -0.007850447501     1.007825032230

  Basis Set: AUG-CC-PVTZ
    Blend: AUG-CC-PVTZ
  Basis Set: (AUG-CC-PVTZ AUX)
    Blend: AUG-CC-PVTZ-JKFIT
	 Reference Energy          =    -343.2854164068785963 [Eh]
	 Singles Energy            =      -0.0000000000000000 [Eh]
	 Same-Spin Energy          =      -0.3481834692656920 [Eh]
	 Opposite-Spin Energy      =      -1.1056114839976323 [Eh]
	 Correlation Energy        =      -1.4537949532633243 [Eh]
	 Total Energy              =    -344.7392113601418941 [Eh]

	 ================> DF-SCS-MP2 Energies <==================
	-----------------------------------------------------------
	 SCS Same-Spin Scale       =       0.3333333333333333 [-]
	 SCS Opposite-Spin Scale   =       1.2000000000000000 [-]
	 SCS Same-Spin Energy      =      -0.1160611564218973 [Eh]
	 SCS Opposite-Spin Energy  =      -1.3267337807971586 [Eh]
	 SCS Correlation Energy    =      -1.4427949372190561 [Eh]
	 SCS Total Energy          =    -344.7282113440976445 [Eh]
	-----------------------------------------------------------

  Dipole Moment: [D]
     X:    -9.5602      Y:    -1.0292      Z:    -0.5999     Total:     9.6342

*** Psi4 exiting successfully. Buy a developer a beer!
