                               Psi4 1.3.2 release

  ==> Input File <==

--------------------------------------------------------------------------
#psi4
#
memory 32 gb

molecule  {
-1 1
  O        1.8996640     1.2894670    -0.0585490
  O        2.6973380    -0.8133440     0.2844750
  C       -2.1007360    -0.3533330    -0.4966910
  C       -3.0415820     0.2042600     0.5765370
  C       -0.6801114     0.2196293    -0.3552463
  C        0.3877500    -0.5533880    -0.1062960
  C        1.7796670     0.0321010     0.0519970
  H       -2.0810980    -1.4485100    -0.4425170
  H       -2.4999350    -0.0921100    -1.4864390
  H       -3.0846480     1.2965650     0.5261450
  H       -4.0584310    -0.1803650     0.4515950
  H       -2.6909580    -0.0729930     1.5749670
  H       -0.5778430     1.2611610    -0.4426850
  H        0.3449255    -1.6392207    -0.0021807
units angstrom
no_reorient  #important for SAPT in psi4, default
symmetry c1  #important for SAPT in psi4, default
}

set PROPERTIES_ORIGIN ["COM"]
properties('MP2/aug-cc-pvtz', properties = ['dipole'])
--------------------------------------------------------------------------

    Molecular point group: c1
  Charge       = -1
  Multiplicity = 1
  Basis Set: AUG-CC-PVTZ
    Blend: AUG-CC-PVTZ
  Basis Set: (AUG-CC-PVTZ AUX)
    Blend: AUG-CC-PVTZ-JKFIT

    Orbital Energies [Eh]
    ---------------------

    Doubly Occupied:

       1A    -20.294742     2A    -20.290512     3A    -11.139856
       4A    -11.115084     5A    -11.114480     6A    -11.085007
       7A    -11.070137     8A     -1.161165     9A     -1.060379
      10A     -0.948727    11A     -0.862609    12A     -0.739399
      13A     -0.639105    14A     -0.547604    15A     -0.491776
      16A     -0.485660    17A     -0.446957    18A     -0.422139
      19A     -0.406463    20A     -0.382094    21A     -0.371951
      22A     -0.357527    23A     -0.353126    24A     -0.209492
      25A     -0.207871    26A     -0.205363    27A     -0.190668

  @DF-RHF Final Energy:  -343.28382106387801

   => Energetics <=

    Nuclear Repulsion Energy =            270.7138170122587439
    One-Electron Energy =               -1014.7954904140169674
    Two-Electron Energy =                 400.7978523378802720
    Total Energy =                       -343.2838210638780083
  Basis Set: (AUG-CC-PVTZ AUX)
    Blend: AUG-CC-PVTZ-RI
    Molecular point group: c1

    Geometry (in Angstrom), charge = -1, multiplicity = 1:

       Center              X                  Y                   Z               Mass
    ------------   -----------------  -----------------  -----------------  -----------------
         O            1.749167187960     1.276094691246    -0.056908936543    15.994914619570
         O            2.546841187960    -0.826716308754     0.286115063457    15.994914619570
         C           -2.251232812040    -0.366705308754    -0.495050936543    12.000000000000
         C           -3.192078812040     0.190887691246     0.578177063457    12.000000000000
         C           -0.830608212040     0.206256991246    -0.353606236543    12.000000000000
         C            0.237253187960    -0.566760308754    -0.104655936543    12.000000000000
         C            1.629170187960     0.018728691246     0.053637063457    12.000000000000
         H           -2.231594812040    -1.461882308754    -0.440876936543     1.007825032230
         H           -2.650431812040    -0.105482308754    -1.484798936543     1.007825032230
         H           -3.235144812040     1.283192691246     0.527785063457     1.007825032230
         H           -4.208927812040    -0.193737308754     0.453235063457     1.007825032230
         H           -2.841454812040    -0.086365308754     1.576607063457     1.007825032230
         H           -0.728339812040     1.247788691246    -0.441044936543     1.007825032230
         H            0.194428687960    -1.652593008754    -0.000540636543     1.007825032230

  Basis Set: AUG-CC-PVTZ
    Blend: AUG-CC-PVTZ
  Basis Set: (AUG-CC-PVTZ AUX)
    Blend: AUG-CC-PVTZ-JKFIT
	 Reference Energy          =    -343.2838210638780083 [Eh]
	 Singles Energy            =      -0.0000000000000000 [Eh]
	 Same-Spin Energy          =      -0.3477159815128061 [Eh]
	 Opposite-Spin Energy      =      -1.1051800586825065 [Eh]
	 Correlation Energy        =      -1.4528960401953126 [Eh]
	 Total Energy              =    -344.7367171040733069 [Eh]

	 ================> DF-SCS-MP2 Energies <==================
	-----------------------------------------------------------
	 SCS Same-Spin Scale       =       0.3333333333333333 [-]
	 SCS Opposite-Spin Scale   =       1.2000000000000000 [-]
	 SCS Same-Spin Energy      =      -0.1159053271709354 [Eh]
	 SCS Opposite-Spin Energy  =      -1.3262160704190078 [Eh]
	 SCS Correlation Energy    =      -1.4421213975899432 [Eh]
	 SCS Total Energy          =    -344.7259424614679233 [Eh]
	-----------------------------------------------------------

  Dipole Moment: [D]
     X:    -9.4787      Y:    -1.1365      Z:    -0.5803     Total:     9.5642

*** Psi4 exiting successfully. Buy a developer a beer!
