                               Psi4 1.3.2 release

  ==> Input File <==

--------------------------------------------------------------------------
#psi4
#
memory 32 gb

molecule  {
-1 1
  O        1.9214035     1.2875180    -0.0549045
  O        2.7121075    -0.7968467     0.2851148
  C       -2.1007360    -0.3533330    -0.4966910
  C       -3.0415820     0.2042600     0.5765370
  C       -0.7068410     0.1811810    -0.3555730
  C        0.3877500    -0.5533880    -0.1062960
  C        1.7796670     0.0321010     0.0519970
  H       -2.0810980    -1.4485100    -0.4425170
  H       -2.4999350    -0.0921100    -1.4864390
  H       -3.0846480     1.2965650     0.5261450
  H       -4.0584310    -0.1803650     0.4515950
  H       -2.6909580    -0.0729930     1.5749670
  H       -0.5778430     1.2611610    -0.4426850
  H        0.3073520    -1.6376590    -0.0083210
units angstrom
no_reorient  #important for SAPT in psi4, default
symmetry c1  #important for SAPT in psi4, default
}

set PROPERTIES_ORIGIN ["COM"]
properties('MP2/aug-cc-pvtz', properties = ['dipole'])
--------------------------------------------------------------------------

    Molecular point group: c1
  Charge       = -1
  Multiplicity = 1
  Basis Set: AUG-CC-PVTZ
    Blend: AUG-CC-PVTZ
  Basis Set: (AUG-CC-PVTZ AUX)
    Blend: AUG-CC-PVTZ-JKFIT

    Orbital Energies [Eh]
    ---------------------

    Doubly Occupied:

       1A    -20.293286     2A    -20.289656     3A    -11.140982
       4A    -11.116625     5A    -11.115120     6A    -11.087327
       7A    -11.072320     8A     -1.161432     9A     -1.057120
      10A     -0.955544    11A     -0.863929    12A     -0.745072
      13A     -0.634291    14A     -0.549935    15A     -0.495266
      16A     -0.487155    17A     -0.445511    18A     -0.419669
      19A     -0.409728    20A     -0.383176    21A     -0.375153
      22A     -0.356934    23A     -0.350170    24A     -0.212484
      25A     -0.206182    26A     -0.205507    27A     -0.188674

  @DF-RHF Final Energy:  -343.28514744033032

   => Energetics <=

    Nuclear Repulsion Energy =            270.6677313579967858
    One-Electron Energy =               -1014.6692614802656180
    Two-Electron Energy =                 400.7163826819385122
    Total Energy =                       -343.2851474403303200
  Basis Set: (AUG-CC-PVTZ AUX)
    Blend: AUG-CC-PVTZ-RI
    Molecular point group: c1

    Geometry (in Angstrom), charge = -1, multiplicity = 1:

       Center              X                  Y                   Z               Mass
    ------------   -----------------  -----------------  -----------------  -----------------
         O            1.768631595589     1.276438666866    -0.053854254282    15.994914619570
         O            2.559335595589    -0.807926033134     0.286165045718    15.994914619570
         C           -2.253507904411    -0.364412333134    -0.495640754282    12.000000000000
         C           -3.194353904411     0.193180666866     0.577587245718    12.000000000000
         C           -0.859612904411     0.170101666866    -0.354522754282    12.000000000000
         C            0.234978095589    -0.564467333134    -0.105245754282    12.000000000000
         C            1.626895095589     0.021021666866     0.053047245718    12.000000000000
         H           -2.233869904411    -1.459589333134    -0.441466754282     1.007825032230
         H           -2.652706904411    -0.103189333134    -1.485388754282     1.007825032230
         H           -3.237419904411     1.285485666866     0.527195245718     1.007825032230
         H           -4.211202904411    -0.191444333134     0.452645245718     1.007825032230
         H           -2.843729904411    -0.084072333134     1.576017245718     1.007825032230
         H           -0.730614904411     1.250081666866    -0.441634754282     1.007825032230
         H            0.154580095589    -1.648738333134    -0.007270754282     1.007825032230

  Basis Set: AUG-CC-PVTZ
    Blend: AUG-CC-PVTZ
  Basis Set: (AUG-CC-PVTZ AUX)
    Blend: AUG-CC-PVTZ-JKFIT
	 Reference Energy          =    -343.2851474403303200 [Eh]
	 Singles Energy            =      -0.0000000000000000 [Eh]
	 Same-Spin Energy          =      -0.3480865922907592 [Eh]
	 Opposite-Spin Energy      =      -1.1055117079864174 [Eh]
	 Correlation Energy        =      -1.4535983002771766 [Eh]
	 Total Energy              =    -344.7387457406074986 [Eh]

	 ================> DF-SCS-MP2 Energies <==================
	-----------------------------------------------------------
	 SCS Same-Spin Scale       =       0.3333333333333333 [-]
	 SCS Opposite-Spin Scale   =       1.2000000000000000 [-]
	 SCS Same-Spin Energy      =      -0.1160288640969197 [Eh]
	 SCS Opposite-Spin Energy  =      -1.3266140495837009 [Eh]
	 SCS Correlation Energy    =      -1.4426429136806207 [Eh]
	 SCS Total Energy          =    -344.7277903540109492 [Eh]
	-----------------------------------------------------------

  Dipole Moment: [D]
     X:    -9.6367      Y:    -1.1901      Z:    -0.5915     Total:     9.7279

*** Psi4 exiting successfully. Buy a developer a beer!
