                               Psi4 1.3.2 release

  ==> Input File <==

--------------------------------------------------------------------------
#psi4
#
memory 32 gb

molecule  {
-1 1
  O        1.8996640     1.2894670    -0.0585490
  O        2.7121121    -0.7968497     0.2850857
  C       -2.1007360    -0.3533330    -0.4966910
  C       -3.0415820     0.2042600     0.5765370
  C       -0.7068410     0.1811810    -0.3555730
  C        0.3782035    -0.5290005    -0.1103367
  C        1.7796670     0.0321010     0.0519970
  H       -2.0810980    -1.4485100    -0.4425170
  H       -2.4999350    -0.0921100    -1.4864390
  H       -3.0846480     1.2965650     0.5261450
  H       -4.0584310    -0.1803650     0.4515950
  H       -2.6909580    -0.0729930     1.5749670
  H       -0.5778430     1.2611610    -0.4426850
  H        0.3073520    -1.6376590    -0.0083210
units angstrom
no_reorient  #important for SAPT in psi4, default
symmetry c1  #important for SAPT in psi4, default
}

set PROPERTIES_ORIGIN ["COM"]
properties('MP2/aug-cc-pvtz', properties = ['dipole'])
--------------------------------------------------------------------------

    Molecular point group: c1
  Charge       = -1
  Multiplicity = 1
  Basis Set: AUG-CC-PVTZ
    Blend: AUG-CC-PVTZ
  Basis Set: (AUG-CC-PVTZ AUX)
    Blend: AUG-CC-PVTZ-JKFIT

    Orbital Energies [Eh]
    ---------------------

    Doubly Occupied:

       1A    -20.295508     2A    -20.290123     3A    -11.141805
       4A    -11.116222     5A    -11.114645     6A    -11.082922
       7A    -11.070005     8A     -1.161907     9A     -1.059405
      10A     -0.956310    11A     -0.866342    12A     -0.744198
      13A     -0.633164    14A     -0.549322    15A     -0.495460
      16A     -0.484793    17A     -0.446415    18A     -0.419274
      19A     -0.409221    20A     -0.382294    21A     -0.377364
      22A     -0.357947    23A     -0.344626    24A     -0.212465
      25A     -0.210526    26A     -0.206958    27A     -0.189979

  @DF-RHF Final Energy:  -343.28513614062445

   => Energetics <=

    Nuclear Repulsion Energy =            271.0561508500137506
    One-Electron Energy =               -1015.4441764129260264
    Two-Electron Energy =                 401.1028894222878307
    Total Energy =                       -343.2851361406244450
  Basis Set: (AUG-CC-PVTZ AUX)
    Blend: AUG-CC-PVTZ-RI
    Molecular point group: c1

    Geometry (in Angstrom), charge = -1, multiplicity = 1:

       Center              X                  Y                   Z               Mass
    ------------   -----------------  -----------------  -----------------  -----------------
         O            1.751558739191     1.275118674015    -0.056415935900    15.994914619570
         O            2.564006839191    -0.811198025985     0.287218764100    15.994914619570
         C           -2.248841260809    -0.367681325985    -0.494557935900    12.000000000000
         C           -3.189687260809     0.189911674015     0.578670064100    12.000000000000
         C           -0.854946260809     0.166832674015    -0.353439935900    12.000000000000
         C            0.230098239191    -0.543348825985    -0.108203635900    12.000000000000
         C            1.631561739191     0.017752674015     0.054130064100    12.000000000000
         H           -2.229203260809    -1.462858325985    -0.440383935900     1.007825032230
         H           -2.648040260809    -0.106458325985    -1.484305935900     1.007825032230
         H           -3.232753260809     1.282216674015     0.528278064100     1.007825032230
         H           -4.206536260809    -0.194713325985     0.453728064100     1.007825032230
         H           -2.839063260809    -0.087341325985     1.577100064100     1.007825032230
         H           -0.725948260809     1.246812674015    -0.440551935900     1.007825032230
         H            0.159246739191    -1.652007325985    -0.006187935900     1.007825032230

  Basis Set: AUG-CC-PVTZ
    Blend: AUG-CC-PVTZ
  Basis Set: (AUG-CC-PVTZ AUX)
    Blend: AUG-CC-PVTZ-JKFIT
	 Reference Energy          =    -343.2851361406244450 [Eh]
	 Singles Energy            =      -0.0000000000000000 [Eh]
	 Same-Spin Energy          =      -0.3480068165929650 [Eh]
	 Opposite-Spin Energy      =      -1.1052001890363825 [Eh]
	 Correlation Energy        =      -1.4532070056293476 [Eh]
	 Total Energy              =    -344.7383431462537828 [Eh]

	 ================> DF-SCS-MP2 Energies <==================
	-----------------------------------------------------------
	 SCS Same-Spin Scale       =       0.3333333333333333 [-]
	 SCS Opposite-Spin Scale   =       1.2000000000000000 [-]
	 SCS Same-Spin Energy      =      -0.1160022721976550 [Eh]
	 SCS Opposite-Spin Energy  =      -1.3262402268436591 [Eh]
	 SCS Correlation Energy    =      -1.4422424990413141 [Eh]
	 SCS Total Energy          =    -344.7273786396657442 [Eh]
	-----------------------------------------------------------

  Dipole Moment: [D]
     X:    -9.5674      Y:    -1.1462      Z:    -0.5852     Total:     9.6535

*** Psi4 exiting successfully. Buy a developer a beer!
