                               Psi4 1.3.2 release

  ==> Input File <==

--------------------------------------------------------------------------
#psi4
#
memory 32 gb

molecule  {
-1 1
  O        1.8996640     1.2894670    -0.0585490
  O        2.6973380    -0.8133440     0.2844750
  C       -2.0916492    -0.3775075    -0.4924533
  C       -3.0415820     0.2042600     0.5765370
  C       -0.7068410     0.1811810    -0.3555730
  C        0.3744757    -0.5726732    -0.1059372
  C        1.7796670     0.0321010     0.0519970
  H       -2.0810980    -1.4485100    -0.4425170
  H       -2.4999350    -0.0921100    -1.4864390
  H       -3.0846480     1.2965650     0.5261450
  H       -4.0584310    -0.1803650     0.4515950
  H       -2.6909580    -0.0729930     1.5749670
  H       -0.5778430     1.2611610    -0.4426850
  H        0.3073520    -1.6376590    -0.0083210
units angstrom
no_reorient  #important for SAPT in psi4, default
symmetry c1  #important for SAPT in psi4, default
}

set PROPERTIES_ORIGIN ["COM"]
properties('MP2/aug-cc-pvtz', properties = ['dipole'])
--------------------------------------------------------------------------

    Molecular point group: c1
  Charge       = -1
  Multiplicity = 1
  Basis Set: AUG-CC-PVTZ
    Blend: AUG-CC-PVTZ
  Basis Set: (AUG-CC-PVTZ AUX)
    Blend: AUG-CC-PVTZ-JKFIT

    Orbital Energies [Eh]
    ---------------------

    Doubly Occupied:

       1A    -20.295153     2A    -20.292284     3A    -11.142998
       4A    -11.115539     5A    -11.112787     6A    -11.085137
       7A    -11.068415     8A     -1.161205     9A     -1.060909
      10A     -0.953211    11A     -0.860639    12A     -0.742739
      13A     -0.632808    14A     -0.547976    15A     -0.492989
      16A     -0.487542    17A     -0.445907    18A     -0.419244
      19A     -0.404958    20A     -0.385752    21A     -0.373853
      22A     -0.356765    23A     -0.355649    24A     -0.209681
      25A     -0.208532    26A     -0.203982    27A     -0.191463

  @DF-RHF Final Energy:  -343.28482251075854

   => Energetics <=

    Nuclear Repulsion Energy =            270.6249843801545580
    One-Electron Energy =               -1014.6033774508590568
    Two-Electron Energy =                 400.6935705599458970
    Total Energy =                       -343.2848225107585449
  Basis Set: (AUG-CC-PVTZ AUX)
    Blend: AUG-CC-PVTZ-RI
    Molecular point group: c1

    Geometry (in Angstrom), charge = -1, multiplicity = 1:

       Center              X                  Y                   Z               Mass
    ------------   -----------------  -----------------  -----------------  -----------------
         O            1.753295355426     1.286002571488    -0.057363774564    15.994914619570
         O            2.550969355426    -0.816808428512     0.285660225436    15.994914619570
         C           -2.238017844574    -0.380971928512    -0.491268074564    12.000000000000
         C           -3.187950644574     0.200795571488     0.577722225436    12.000000000000
         C           -0.853209644574     0.177716571488    -0.354387774564    12.000000000000
         C            0.228107055426    -0.576137628512    -0.104751974564    12.000000000000
         C            1.633298355426     0.028636571488     0.053182225436    12.000000000000
         H           -2.227466644574    -1.451974428512    -0.441331774564     1.007825032230
         H           -2.646303644574    -0.095574428512    -1.485253774564     1.007825032230
         H           -3.231016644574     1.293100571488     0.527330225436     1.007825032230
         H           -4.204799644574    -0.183829428512     0.452780225436     1.007825032230
         H           -2.837326644574    -0.076457428512     1.576152225436     1.007825032230
         H           -0.724211644574     1.257696571488    -0.441499774564     1.007825032230
         H            0.160983355426    -1.641123428512    -0.007135774564     1.007825032230

  Basis Set: AUG-CC-PVTZ
    Blend: AUG-CC-PVTZ
  Basis Set: (AUG-CC-PVTZ AUX)
    Blend: AUG-CC-PVTZ-JKFIT
	 Reference Energy          =    -343.2848225107585449 [Eh]
	 Singles Energy            =      -0.0000000000000000 [Eh]
	 Same-Spin Energy          =      -0.3479852670999770 [Eh]
	 Opposite-Spin Energy      =      -1.1053090716310676 [Eh]
	 Correlation Energy        =      -1.4532943387310446 [Eh]
	 Total Energy              =    -344.7381168494895860 [Eh]

	 ================> DF-SCS-MP2 Energies <==================
	-----------------------------------------------------------
	 SCS Same-Spin Scale       =       0.3333333333333333 [-]
	 SCS Opposite-Spin Scale   =       1.2000000000000000 [-]
	 SCS Same-Spin Energy      =      -0.1159950890333257 [Eh]
	 SCS Opposite-Spin Energy  =      -1.3263708859572811 [Eh]
	 SCS Correlation Energy    =      -1.4423659749906068 [Eh]
	 SCS Total Energy          =    -344.7271884857491386 [Eh]
	-----------------------------------------------------------

  Dipole Moment: [D]
     X:    -9.4840      Y:    -1.1960      Z:    -0.5731     Total:     9.5763

*** Psi4 exiting successfully. Buy a developer a beer!
