                               Psi4 1.3.2 release

  ==> Input File <==

--------------------------------------------------------------------------
#psi4
#
memory 32 gb

molecule  {
-1 1
  O        1.9214082     1.2875149    -0.0549341
  O        2.6973380    -0.8133440     0.2844750
  C       -2.1007360    -0.3533330    -0.4966910
  C       -3.0415820     0.2042600     0.5765370
  C       -0.7068410     0.1811810    -0.3555730
  C        0.3977254    -0.5776004    -0.1022383
  C        1.7796670     0.0321010     0.0519970
  H       -2.0810980    -1.4485100    -0.4425170
  H       -2.4999350    -0.0921100    -1.4864390
  H       -3.0846480     1.2965650     0.5261450
  H       -4.0584310    -0.1803650     0.4515950
  H       -2.6909580    -0.0729930     1.5749670
  H       -0.5778430     1.2611610    -0.4426850
  H        0.3073520    -1.6376590    -0.0083210
units angstrom
no_reorient  #important for SAPT in psi4, default
symmetry c1  #important for SAPT in psi4, default
}

set PROPERTIES_ORIGIN ["COM"]
properties('MP2/aug-cc-pvtz', properties = ['dipole'])
--------------------------------------------------------------------------

    Molecular point group: c1
  Charge       = -1
  Multiplicity = 1
  Basis Set: AUG-CC-PVTZ
    Blend: AUG-CC-PVTZ
  Basis Set: (AUG-CC-PVTZ AUX)
    Blend: AUG-CC-PVTZ-JKFIT

    Orbital Energies [Eh]
    ---------------------

    Doubly Occupied:

       1A    -20.293216     2A    -20.291289     3A    -11.141320
       4A    -11.116177     5A    -11.114492     6A    -11.089810
       7A    -11.072457     8A     -1.161447     9A     -1.058928
      10A     -0.953614    11A     -0.860050    12A     -0.744778
      13A     -0.634243    14A     -0.549865    15A     -0.495379
      16A     -0.487524    17A     -0.445100    18A     -0.419725
      19A     -0.409335    20A     -0.383982    21A     -0.373643
      22A     -0.357102    23A     -0.353733    24A     -0.211315
      25A     -0.207429    26A     -0.200427    27A     -0.189988

  @DF-RHF Final Energy:  -343.28359777465289

   => Energetics <=

    Nuclear Repulsion Energy =            270.4712227262718898
    One-Electron Energy =               -1014.2769078381991221
    Two-Electron Energy =                 400.5220873372743426
    Total Energy =                       -343.2835977746528897
  Basis Set: (AUG-CC-PVTZ AUX)
    Blend: AUG-CC-PVTZ-RI
    Molecular point group: c1

    Geometry (in Angstrom), charge = -1, multiplicity = 1:

       Center              X                  Y                   Z               Mass
    ------------   -----------------  -----------------  -----------------  -----------------
         O            1.769812098310     1.282033764690    -0.054267372439    15.994914619570
         O            2.545741898310    -0.818825135310     0.285141727561    15.994914619570
         C           -2.252332101690    -0.358814135310    -0.496024272439    12.000000000000
         C           -3.193178101690     0.198778864690     0.577203727561    12.000000000000
         C           -0.858437101690     0.175699864690    -0.354906272439    12.000000000000
         C            0.246129298310    -0.583081535310    -0.101571572439    12.000000000000
         C            1.628070898310     0.026619864690     0.052663727561    12.000000000000
         H           -2.232694101690    -1.453991135310    -0.441850272439     1.007825032230
         H           -2.651531101690    -0.097591135310    -1.485772272439     1.007825032230
         H           -3.236244101690     1.291083864690     0.526811727561     1.007825032230
         H           -4.210027101690    -0.185846135310     0.452261727561     1.007825032230
         H           -2.842554101690    -0.078474135310     1.575633727561     1.007825032230
         H           -0.729439101690     1.255679864690    -0.442018272439     1.007825032230
         H            0.155755898310    -1.643140135310    -0.007654272439     1.007825032230

  Basis Set: AUG-CC-PVTZ
    Blend: AUG-CC-PVTZ
  Basis Set: (AUG-CC-PVTZ AUX)
    Blend: AUG-CC-PVTZ-JKFIT
	 Reference Energy          =    -343.2835977746528897 [Eh]
	 Singles Energy            =      -0.0000000000000000 [Eh]
	 Same-Spin Energy          =      -0.3482782178672478 [Eh]
	 Opposite-Spin Energy      =      -1.1060039213777193 [Eh]
	 Correlation Energy        =      -1.4542821392449672 [Eh]
	 Total Energy              =    -344.7378799138978707 [Eh]

	 ================> DF-SCS-MP2 Energies <==================
	-----------------------------------------------------------
	 SCS Same-Spin Scale       =       0.3333333333333333 [-]
	 SCS Opposite-Spin Scale   =       1.2000000000000000 [-]
	 SCS Same-Spin Energy      =      -0.1160927392890826 [Eh]
	 SCS Opposite-Spin Energy  =      -1.3272047056532632 [Eh]
	 SCS Correlation Energy    =      -1.4432974449423459 [Eh]
	 SCS Total Energy          =    -344.7268952195952352 [Eh]
	-----------------------------------------------------------

  Dipole Moment: [D]
     X:    -9.5753      Y:    -1.1928      Z:    -0.5851     Total:     9.6670

*** Psi4 exiting successfully. Buy a developer a beer!
