                               Psi4 1.3.2 release

  ==> Input File <==

--------------------------------------------------------------------------
#psi4
#
memory 32 gb

molecule  {
-1 1
  O        1.8996640     1.2894670    -0.0585490
  O        2.6973380    -0.8133440     0.2844750
  C       -2.1007360    -0.3533330    -0.4966910
  C       -3.0565554     0.1288895     0.5995709
  C       -0.7068410     0.1811810    -0.3555730
  C        0.3877500    -0.5533880    -0.1062960
  C        1.7796670     0.0321010     0.0519970
  H       -2.1182252    -1.4455093    -0.3988229
  H       -2.4999350    -0.0921100    -1.4864390
  H       -3.0846480     1.2965650     0.5261450
  H       -4.0584310    -0.1803650     0.4515950
  H       -2.6909580    -0.0729930     1.5749670
  H       -0.5778430     1.2611610    -0.4426850
  H        0.3073520    -1.6376590    -0.0083210
units angstrom
no_reorient  #important for SAPT in psi4, default
symmetry c1  #important for SAPT in psi4, default
}

set PROPERTIES_ORIGIN ["COM"]
properties('MP2/aug-cc-pvtz', properties = ['dipole'])
--------------------------------------------------------------------------

    Molecular point group: c1
  Charge       = -1
  Multiplicity = 1
  Basis Set: AUG-CC-PVTZ
    Blend: AUG-CC-PVTZ
  Basis Set: (AUG-CC-PVTZ AUX)
    Blend: AUG-CC-PVTZ-JKFIT

    Orbital Energies [Eh]
    ---------------------

    Doubly Occupied:

       1A    -20.295808     2A    -20.292051     3A    -11.142435
       4A    -11.116132     5A    -11.114468     6A    -11.086257
       7A    -11.070983     8A     -1.162244     9A     -1.061449
      10A     -0.954305    11A     -0.863651    12A     -0.743921
      13A     -0.633286    14A     -0.548814    15A     -0.504922
      16A     -0.481616    17A     -0.446375    18A     -0.420434
      19A     -0.412850    20A     -0.379398    21A     -0.370217
      22A     -0.358533    23A     -0.345843    24A     -0.211766
      25A     -0.209396    26A     -0.205756    27A     -0.191542

  @DF-RHF Final Energy:  -343.27865986196929

   => Energetics <=

    Nuclear Repulsion Energy =            270.7204368031142394
    One-Electron Energy =               -1014.7492909458134136
    Two-Electron Energy =                 400.7501942807298860
    Total Energy =                       -343.2786598619692882
  Basis Set: (AUG-CC-PVTZ AUX)
    Blend: AUG-CC-PVTZ-RI
    Molecular point group: c1

    Geometry (in Angstrom), charge = -1, multiplicity = 1:

       Center              X                  Y                   Z               Mass
    ------------   -----------------  -----------------  -----------------  -----------------
         O            1.754979935040     1.289838271792    -0.060042212317    15.994914619570
         O            2.552653935040    -0.812972728208     0.282981787683    15.994914619570
         C           -2.245420064960    -0.352961728208    -0.498184212317    12.000000000000
         C           -3.201239464960     0.129260771792     0.598077687683    12.000000000000
         C           -0.851525064960     0.181552271792    -0.357066212317    12.000000000000
         C            0.243065935040    -0.553016728208    -0.107789212317    12.000000000000
         C            1.634982935040     0.032472271792     0.050503787683    12.000000000000
         H           -2.262909264960    -1.445138028208    -0.400316112317     1.007825032230
         H           -2.644619064960    -0.091738728208    -1.487932212317     1.007825032230
         H           -3.229332064960     1.296936271792     0.524651787683     1.007825032230
         H           -4.203115064960    -0.179993728208     0.450101787683     1.007825032230
         H           -2.835642064960    -0.072621728208     1.573473787683     1.007825032230
         H           -0.722527064960     1.261532271792    -0.444178212317     1.007825032230
         H            0.162667935040    -1.637287728208    -0.009814212317     1.007825032230

  Basis Set: AUG-CC-PVTZ
    Blend: AUG-CC-PVTZ
  Basis Set: (AUG-CC-PVTZ AUX)
    Blend: AUG-CC-PVTZ-JKFIT
	 Reference Energy          =    -343.2786598619692882 [Eh]
	 Singles Energy            =      -0.0000000000000000 [Eh]
	 Same-Spin Energy          =      -0.3482307264468179 [Eh]
	 Opposite-Spin Energy      =      -1.1059190470974336 [Eh]
	 Correlation Energy        =      -1.4541497735442515 [Eh]
	 Total Energy              =    -344.7328096355135472 [Eh]

	 ================> DF-SCS-MP2 Energies <==================
	-----------------------------------------------------------
	 SCS Same-Spin Scale       =       0.3333333333333333 [-]
	 SCS Opposite-Spin Scale   =       1.2000000000000000 [-]
	 SCS Same-Spin Energy      =      -0.1160769088156060 [Eh]
	 SCS Opposite-Spin Energy  =      -1.3271028565169203 [Eh]
	 SCS Correlation Energy    =      -1.4431797653325262 [Eh]
	 SCS Total Energy          =    -344.7218396273017902 [Eh]
	-----------------------------------------------------------

  Dipole Moment: [D]
     X:    -9.4995      Y:    -1.2573      Z:    -0.5563     Total:     9.5984

*** Psi4 exiting successfully. Buy a developer a beer!
