                               Psi4 1.3.2 release

  ==> Input File <==

--------------------------------------------------------------------------
#psi4
#
memory 32 gb

molecule  {
-1 1
  O        1.8996640     1.2894670    -0.0585490
  O        2.6973380    -0.8133440     0.2844750
  C       -2.1007360    -0.3533330    -0.4966910
  C       -3.0415820     0.2042600     0.5765370
  C       -0.7068410     0.1811810    -0.3555730
  C        0.3877500    -0.5533880    -0.1062960
  C        1.7073656     0.0987119     0.0336805
  H       -2.0810980    -1.4485100    -0.4425170
  H       -2.4999350    -0.0921100    -1.4864390
  H       -3.0846480     1.2965650     0.5261450
  H       -4.0584310    -0.1803650     0.4515950
  H       -2.6909580    -0.0729930     1.5749670
  H       -0.5778430     1.2611610    -0.4426850
  H        0.3073520    -1.6376590    -0.0083210
units angstrom
no_reorient  #important for SAPT in psi4, default
symmetry c1  #important for SAPT in psi4, default
}

set PROPERTIES_ORIGIN ["COM"]
properties('MP2/aug-cc-pvtz', properties = ['dipole'])
--------------------------------------------------------------------------

    Molecular point group: c1
  Charge       = -1
  Multiplicity = 1
  Basis Set: AUG-CC-PVTZ
    Blend: AUG-CC-PVTZ
  Basis Set: (AUG-CC-PVTZ AUX)
    Blend: AUG-CC-PVTZ-JKFIT

    Orbital Energies [Eh]
    ---------------------

    Doubly Occupied:

       1A    -20.309590     2A    -20.273708     3A    -11.140713
       4A    -11.118675     5A    -11.117201     6A    -11.090484
       7A    -11.073499     8A     -1.178970     9A     -1.023597
      10A     -0.958994    11A     -0.870516    12A     -0.750227
      13A     -0.637514    14A     -0.558273    15A     -0.498080
      16A     -0.490763    17A     -0.452842    18A     -0.420303
      19A     -0.412346    20A     -0.384833    21A     -0.367911
      22A     -0.361119    23A     -0.355960    24A     -0.213824
      25A     -0.210959    26A     -0.191901    27A     -0.176523

  @DF-RHF Final Energy:  -343.26898987953876

   => Energetics <=

    Nuclear Repulsion Energy =            271.1592422735008086
    One-Electron Energy =               -1015.5778182858521177
    Two-Electron Energy =                 401.1495861328125443
    Total Energy =                       -343.2689898795387649
  Basis Set: (AUG-CC-PVTZ AUX)
    Blend: AUG-CC-PVTZ-RI
    Molecular point group: c1

    Geometry (in Angstrom), charge = -1, multiplicity = 1:

       Center              X                  Y                   Z               Mass
    ------------   -----------------  -----------------  -----------------  -----------------
         O            1.761547867559     1.272666689063    -0.054587691996    15.994914619570
         O            2.559221867559    -0.830144310937     0.288436308004    15.994914619570
         C           -2.238852132441    -0.370133310937    -0.492729691996    12.000000000000
         C           -3.179698132441     0.187459689063     0.580498308004    12.000000000000
         C           -0.844957132441     0.164380689063    -0.351611691996    12.000000000000
         C            0.249633867559    -0.570188310937    -0.102334691996    12.000000000000
         C            1.569249467559     0.081911589063     0.037641808004    12.000000000000
         H           -2.219214132441    -1.465310310937    -0.438555691996     1.007825032230
         H           -2.638051132441    -0.108910310937    -1.482477691996     1.007825032230
         H           -3.222764132441     1.279764689063     0.530106308004     1.007825032230
         H           -4.196547132441    -0.197165310937     0.455556308004     1.007825032230
         H           -2.829074132441    -0.089793310937     1.578928308004     1.007825032230
         H           -0.715959132441     1.244360689063    -0.438723691996     1.007825032230
         H            0.169235867559    -1.654459310937    -0.004359691996     1.007825032230

  Basis Set: AUG-CC-PVTZ
    Blend: AUG-CC-PVTZ
  Basis Set: (AUG-CC-PVTZ AUX)
    Blend: AUG-CC-PVTZ-JKFIT
	 Reference Energy          =    -343.2689898795387649 [Eh]
	 Singles Energy            =      -0.0000000000000000 [Eh]
	 Same-Spin Energy          =      -0.3493377568573814 [Eh]
	 Opposite-Spin Energy      =      -1.1079572846518615 [Eh]
	 Correlation Energy        =      -1.4572950415092429 [Eh]
	 Total Energy              =    -344.7262849210480340 [Eh]

	 ================> DF-SCS-MP2 Energies <==================
	-----------------------------------------------------------
	 SCS Same-Spin Scale       =       0.3333333333333333 [-]
	 SCS Opposite-Spin Scale   =       1.2000000000000000 [-]
	 SCS Same-Spin Energy      =      -0.1164459189524605 [Eh]
	 SCS Opposite-Spin Energy  =      -1.3295487415822338 [Eh]
	 SCS Correlation Energy    =      -1.4459946605346943 [Eh]
	 SCS Total Energy          =    -344.7149845400734876 [Eh]
	-----------------------------------------------------------

  Dipole Moment: [D]
     X:   -10.1177      Y:    -0.4276      Z:    -0.7423     Total:    10.1539

*** Psi4 exiting successfully. Buy a developer a beer!
