                               Psi4 1.3.2 release

  ==> Input File <==

--------------------------------------------------------------------------
#psi4
#
memory 32 gb

molecule  {
-1 1
  O        1.8996640     1.2894670    -0.0585490
  O        2.6973380    -0.8133440     0.2844750
  C       -2.1007360    -0.3533330    -0.4966910
  C       -3.0415820     0.2042600     0.5765370
  C       -0.7197077     0.1616182    -0.3556225
  C        0.3877500    -0.5533880    -0.1062960
  C        1.7796670     0.0321010     0.0519970
  H       -2.0810980    -1.4485100    -0.4425170
  H       -2.4999350    -0.0921100    -1.4864390
  H       -3.0846480     1.2965650     0.5261450
  H       -4.0584310    -0.1803650     0.4515950
  H       -2.6909580    -0.0729930     1.5749670
  H       -0.5778430     1.2611610    -0.4426850
  H        0.2885991    -1.6363826    -0.0114364
units angstrom
no_reorient  #important for SAPT in psi4, default
symmetry c1  #important for SAPT in psi4, default
}

set PROPERTIES_ORIGIN ["COM"]
properties('MP2/aug-cc-pvtz', properties = ['dipole'])
--------------------------------------------------------------------------

    Molecular point group: c1
  Charge       = -1
  Multiplicity = 1
  Basis Set: AUG-CC-PVTZ
    Blend: AUG-CC-PVTZ
  Basis Set: (AUG-CC-PVTZ AUX)
    Blend: AUG-CC-PVTZ-JKFIT

    Orbital Energies [Eh]
    ---------------------

    Doubly Occupied:

       1A    -20.295730     2A    -20.292264     3A    -11.143138
       4A    -11.116198     5A    -11.113631     6A    -11.085794
       7A    -11.070142     8A     -1.162216     9A     -1.061432
      10A     -0.957198    11A     -0.862359    12A     -0.746163
      13A     -0.630296    14A     -0.549775    15A     -0.496570
      16A     -0.485695    17A     -0.446047    18A     -0.418383
      19A     -0.409986    20A     -0.383852    21A     -0.378603
      22A     -0.358281    23A     -0.343783    24A     -0.212248
      25A     -0.209513    26A     -0.204415    27A     -0.191508

  @DF-RHF Final Energy:  -343.28456944469178

   => Energetics <=

    Nuclear Repulsion Energy =            270.9309126075758059
    One-Electron Energy =               -1015.1805221504343990
    Two-Electron Energy =                 400.9650400981668099
    Total Energy =                       -343.2845694446917832
  Basis Set: (AUG-CC-PVTZ AUX)
    Blend: AUG-CC-PVTZ-RI
    Molecular point group: c1

    Geometry (in Angstrom), charge = -1, multiplicity = 1:

       Center              X                  Y                   Z               Mass
    ------------   -----------------  -----------------  -----------------  -----------------
         O            1.754537725394     1.283094294057    -0.056769176015    15.994914619570
         O            2.552211725394    -0.819716705943     0.286254823985    15.994914619570
         C           -2.245862274606    -0.359705705943    -0.494911176015    12.000000000000
         C           -3.186708274606     0.197887294057     0.578316823985    12.000000000000
         C           -0.864833974606     0.155245494057    -0.353842676015    12.000000000000
         C            0.242623725394    -0.559760705943    -0.104516176015    12.000000000000
         C            1.634540725394     0.025728294057     0.053776823985    12.000000000000
         H           -2.226224274606    -1.454882705943    -0.440737176015     1.007825032230
         H           -2.645061274606    -0.098482705943    -1.484659176015     1.007825032230
         H           -3.229774274606     1.290192294057     0.527924823985     1.007825032230
         H           -4.203557274606    -0.186737705943     0.453374823985     1.007825032230
         H           -2.836084274606    -0.079365705943     1.576746823985     1.007825032230
         H           -0.722969274606     1.254788294057    -0.440905176015     1.007825032230
         H            0.143472825394    -1.642755305943    -0.009656576015     1.007825032230

  Basis Set: AUG-CC-PVTZ
    Blend: AUG-CC-PVTZ
  Basis Set: (AUG-CC-PVTZ AUX)
    Blend: AUG-CC-PVTZ-JKFIT
	 Reference Energy          =    -343.2845694446917832 [Eh]
	 Singles Energy            =      -0.0000000000000000 [Eh]
	 Same-Spin Energy          =      -0.3484220687230527 [Eh]
	 Opposite-Spin Energy      =      -1.1059012024561876 [Eh]
	 Correlation Energy        =      -1.4543232711792404 [Eh]
	 Total Energy              =    -344.7388927158710317 [Eh]

	 ================> DF-SCS-MP2 Energies <==================
	-----------------------------------------------------------
	 SCS Same-Spin Scale       =       0.3333333333333333 [-]
	 SCS Opposite-Spin Scale   =       1.2000000000000000 [-]
	 SCS Same-Spin Energy      =      -0.1161406895743509 [Eh]
	 SCS Opposite-Spin Energy  =      -1.3270814429474251 [Eh]
	 SCS Correlation Energy    =      -1.4432221325217760 [Eh]
	 SCS Total Energy          =    -344.7277915772135657 [Eh]
	-----------------------------------------------------------

  Dipole Moment: [D]
     X:    -9.5219      Y:    -1.1626      Z:    -0.5778     Total:     9.6100

*** Psi4 exiting successfully. Buy a developer a beer!
