                               Psi4 1.4a3.dev225

  ==> Input File <==

--------------------------------------------------------------------------
#psi4
#
memory 32 gb

molecule  {
-1 1
  O        1.8994270     1.2905180    -0.0615170
  O        2.6993700    -0.8109500     0.2832770
  C       -2.1001690    -0.3616000    -0.4913260
  C       -3.0433460     0.2119310     0.5709670
  C       -0.7080250     0.1770830    -0.3546910
  C        0.3885780    -0.5541740    -0.1016650
  C        1.7981887     0.0407448     0.0538970
  H       -2.0812530    -1.4558260    -0.4203270
  H       -2.4968010    -0.1155520    -1.4857470
  H       -3.0817280     1.3037570     0.5071420
  H       -4.0608920    -0.1705790     0.4451360
  H       -2.6986290    -0.0550030     1.5741980
  H       -0.5806440     1.2564400    -0.4499950
  H        0.3081890    -1.6372690     0.0045550
units angstrom
no_reorient  #important for SAPT in psi4, default
symmetry c1  #important for SAPT in psi4, default
}

set PROPERTIES_ORIGIN ["COM"]
properties('MP2/aug-cc-pvtz', properties = ['dipole'])
--------------------------------------------------------------------------

    Molecular point group: c1
  Charge       = -1
  Multiplicity = 1
  Basis Set: AUG-CC-PVTZ
    Blend: AUG-CC-PVTZ
  Basis Set: (AUG-CC-PVTZ AUX)
    Blend: AUG-CC-PVTZ-JKFIT

    Orbital Energies [Eh]
    ---------------------

    Doubly Occupied:

       1A    -20.296242     2A    -20.293004     3A    -11.142360
       4A    -11.114688     5A    -11.112591     6A    -11.083008
       7A    -11.068619     8A     -1.167142     9A     -1.067918
      10A     -0.952736    11A     -0.859593    12A     -0.741053
      13A     -0.629446    14A     -0.546266    15A     -0.494016
      16A     -0.484499    17A     -0.447381    18A     -0.418217
      19A     -0.407982    20A     -0.384344    21A     -0.377121
      22A     -0.361293    23A     -0.348336    24A     -0.213100
      25A     -0.207969    26A     -0.203486    27A     -0.194183

  @DF-RHF Final Energy:  -343.28716933920026

   => Energetics <=

    Nuclear Repulsion Energy =            270.8299610130761721
    One-Electron Energy =               -1015.0010722359122610
    Two-Electron Energy =                 400.8839418836358277
    Total Energy =                       -343.2871693392002612
  Basis Set: (AUG-CC-PVTZ AUX)
    Blend: AUG-CC-PVTZ-RI
    Molecular point group: c1

    Geometry (in Angstrom), charge = -1, multiplicity = 1:

       Center              X                  Y                   Z               Mass
    ------------   -----------------  -----------------  -----------------  -----------------
         O            1.750268301576     1.280849674392    -0.059997960659    15.994914619570
         O            2.550211301576    -0.820618325608     0.284796039341    15.994914619570
         C           -2.249327698424    -0.371268325608    -0.489806960659    12.000000000000
         C           -3.192504698424     0.202262674392     0.572486039341    12.000000000000
         C           -0.857183698424     0.167414674392    -0.353171960659    12.000000000000
         C            0.239419301576    -0.563842325608    -0.100145960659    12.000000000000
         C            1.649030001576     0.031076474392     0.055416039341    12.000000000000
         H           -2.230411698424    -1.465494325608    -0.418807960659     1.007825032230
         H           -2.645959698424    -0.125220325608    -1.484227960659     1.007825032230
         H           -3.230886698424     1.294088674392     0.508661039341     1.007825032230
         H           -4.210050698424    -0.180247325608     0.446655039341     1.007825032230
         H           -2.847787698424    -0.064671325608     1.575717039341     1.007825032230
         H           -0.729802698424     1.246771674392    -0.448475960659     1.007825032230
         H            0.159030301576    -1.646937325608     0.006074039341     1.007825032230

  Basis Set: AUG-CC-PVTZ
    Blend: AUG-CC-PVTZ
  Basis Set: (AUG-CC-PVTZ AUX)
    Blend: AUG-CC-PVTZ-JKFIT
	 Reference Energy          =    -343.2871693392002612 [Eh]
	 Singles Energy            =      -0.0000000000000000 [Eh]
	 Same-Spin Energy          =      -0.3477825964538792 [Eh]
	 Opposite-Spin Energy      =      -1.1047457696740506 [Eh]
	 Correlation Energy        =      -1.4525283661279298 [Eh]
	 Total Energy              =    -344.7396977053281830 [Eh]

	 ================> DF-SCS-MP2 Energies <==================
	-----------------------------------------------------------
	 SCS Same-Spin Scale       =       0.3333333333333333 [-]
	 SCS Opposite-Spin Scale   =       1.2000000000000000 [-]
	 SCS Same-Spin Energy      =      -0.1159275321512931 [Eh]
	 SCS Opposite-Spin Energy  =      -1.3256949236088607 [Eh]
	 SCS Correlation Energy    =      -1.4416224557601538 [Eh]
	 SCS Total Energy          =    -344.7287917949604434 [Eh]
	-----------------------------------------------------------

  Dipole Moment: [D]
     X:    -9.3751      Y:    -1.1232      Z:    -0.5555     Total:     9.4585

*** Psi4 exiting successfully. Buy a developer a beer!
