                               Psi4 1.3.2 release

  ==> Input File <==

--------------------------------------------------------------------------
#psi4
#
memory 32 gb

molecule  {
-1 1
  O        1.8996640     1.2894670    -0.0585490
  O        2.6973380    -0.8133440     0.2844750
  C       -2.0719514    -0.4255374    -0.4856852
  C       -3.0415820     0.2042600     0.5765370
  C       -0.7068410     0.1811810    -0.3555730
  C        0.3877500    -0.5533880    -0.1062960
  C        1.7796670     0.0321010     0.0519970
  H       -2.0810980    -1.4485100    -0.4425170
  H       -2.4999350    -0.0921100    -1.4864390
  H       -3.0846480     1.2965650     0.5261450
  H       -4.0584310    -0.1803650     0.4515950
  H       -2.6909580    -0.0729930     1.5749670
  H       -0.5218533     1.2536470    -0.4341992
  H        0.3073520    -1.6376590    -0.0083210
units angstrom
no_reorient  #important for SAPT in psi4, default
symmetry c1  #important for SAPT in psi4, default
}

set PROPERTIES_ORIGIN ["COM"]
properties('MP2/aug-cc-pvtz', properties = ['dipole'])
--------------------------------------------------------------------------

    Molecular point group: c1
  Charge       = -1
  Multiplicity = 1
  Basis Set: AUG-CC-PVTZ
    Blend: AUG-CC-PVTZ
  Basis Set: (AUG-CC-PVTZ AUX)
    Blend: AUG-CC-PVTZ-JKFIT

    Orbital Energies [Eh]
    ---------------------

    Doubly Occupied:

       1A    -20.295082     2A    -20.292053     3A    -11.141457
       4A    -11.116917     5A    -11.114846     6A    -11.084701
       7A    -11.067508     8A     -1.161863     9A     -1.061155
      10A     -0.951793    11A     -0.859625    12A     -0.745485
      13A     -0.636631    14A     -0.548185    15A     -0.492240
      16A     -0.486941    17A     -0.446388    18A     -0.419063
      19A     -0.400879    20A     -0.387632    21A     -0.372168
      22A     -0.357073    23A     -0.356360    24A     -0.210574
      25A     -0.209379    26A     -0.202056    27A     -0.191433

  @DF-RHF Final Energy:  -343.27845746669391

   => Energetics <=

    Nuclear Repulsion Energy =            270.8252320802514532
    One-Electron Energy =               -1014.9884057328462177
    Two-Electron Energy =                 400.8847161859008565
    Total Energy =                       -343.2784574666939079
  Basis Set: (AUG-CC-PVTZ AUX)
    Blend: AUG-CC-PVTZ-RI
    Molecular point group: c1

    Geometry (in Angstrom), charge = -1, multiplicity = 1:

       Center              X                  Y                   Z               Mass
    ------------   -----------------  -----------------  -----------------  -----------------
         O            1.748730815806     1.289561666900    -0.058226656517    15.994914619570
         O            2.546404815806    -0.813249333100     0.284797343483    15.994914619570
         C           -2.222884584194    -0.425442733100    -0.485362856517    12.000000000000
         C           -3.192515184194     0.204354666900     0.576859343483    12.000000000000
         C           -0.857774184194     0.181275666900    -0.355250656517    12.000000000000
         C            0.236816815806    -0.553293333100    -0.105973656517    12.000000000000
         C            1.628733815806     0.032195666900     0.052319343483    12.000000000000
         H           -2.232031184194    -1.448415333100    -0.442194656517     1.007825032230
         H           -2.650868184194    -0.092015333100    -1.486116656517     1.007825032230
         H           -3.235581184194     1.296659666900     0.526467343483     1.007825032230
         H           -4.209364184194    -0.180270333100     0.451917343483     1.007825032230
         H           -2.841891184194    -0.072898333100     1.575289343483     1.007825032230
         H           -0.672786484194     1.253741666900    -0.433876856517     1.007825032230
         H            0.156418815806    -1.637564333100    -0.007998656517     1.007825032230

  Basis Set: AUG-CC-PVTZ
    Blend: AUG-CC-PVTZ
  Basis Set: (AUG-CC-PVTZ AUX)
    Blend: AUG-CC-PVTZ-JKFIT
	 Reference Energy          =    -343.2784574666939079 [Eh]
	 Singles Energy            =      -0.0000000000000000 [Eh]
	 Same-Spin Energy          =      -0.3482108776149164 [Eh]
	 Opposite-Spin Energy      =      -1.1056759061971388 [Eh]
	 Correlation Energy        =      -1.4538867838120553 [Eh]
	 Total Energy              =    -344.7323442505059461 [Eh]

	 ================> DF-SCS-MP2 Energies <==================
	-----------------------------------------------------------
	 SCS Same-Spin Scale       =       0.3333333333333333 [-]
	 SCS Opposite-Spin Scale   =       1.2000000000000000 [-]
	 SCS Same-Spin Energy      =      -0.1160702925383054 [Eh]
	 SCS Opposite-Spin Energy  =      -1.3268110874365666 [Eh]
	 SCS Correlation Energy    =      -1.4428813799748721 [Eh]
	 SCS Total Energy          =    -344.7213388466688002 [Eh]
	-----------------------------------------------------------

  Dipole Moment: [D]
     X:    -9.4618      Y:    -1.2307      Z:    -0.5608     Total:     9.5580

*** Psi4 exiting successfully. Buy a developer a beer!
