                               Psi4 1.3.2 release

  ==> Input File <==

--------------------------------------------------------------------------
#psi4
#
memory 32 gb

molecule  {
-1 1
  O        1.8996640     1.2894670    -0.0585490
  O        2.6973380    -0.8133440     0.2844750
  C       -2.1094854    -0.3289294    -0.5002751
  C       -3.0415820     0.2042600     0.5765370
  C       -0.7068410     0.1811810    -0.3555730
  C        0.3877500    -0.5533880    -0.1062960
  C        1.7796670     0.0321010     0.0519970
  H       -2.0810980    -1.4485100    -0.4425170
  H       -2.4999350    -0.0921100    -1.4864390
  H       -3.0846480     1.2965650     0.5261450
  H       -4.0584310    -0.1803650     0.4515950
  H       -2.6909580    -0.0729930     1.5749670
  H       -0.5965924     1.2630086    -0.4454617
  H        0.3073520    -1.6376590    -0.0083210
units angstrom
no_reorient  #important for SAPT in psi4, default
symmetry c1  #important for SAPT in psi4, default
}

set PROPERTIES_ORIGIN ["COM"]
properties('MP2/aug-cc-pvtz', properties = ['dipole'])
--------------------------------------------------------------------------

    Molecular point group: c1
  Charge       = -1
  Multiplicity = 1
  Basis Set: AUG-CC-PVTZ
    Blend: AUG-CC-PVTZ
  Basis Set: (AUG-CC-PVTZ AUX)
    Blend: AUG-CC-PVTZ-JKFIT

    Orbital Energies [Eh]
    ---------------------

    Doubly Occupied:

       1A    -20.295503     2A    -20.291583     3A    -11.142234
       4A    -11.115577     5A    -11.114159     6A    -11.085849
       7A    -11.070948     8A     -1.161871     9A     -1.061062
      10A     -0.955376    11A     -0.863316    12A     -0.743787
      13A     -0.632358    14A     -0.549083    15A     -0.496643
      16A     -0.485184    17A     -0.445840    18A     -0.421837
      19A     -0.411676    20A     -0.379854    21A     -0.376760
      22A     -0.358243    23A     -0.344458    24A     -0.211513
      25A     -0.208945    26A     -0.205530    27A     -0.191170

  @DF-RHF Final Energy:  -343.28465088000218

   => Energetics <=

    Nuclear Repulsion Energy =            270.8666047276374798
    One-Electron Energy =               -1015.0617945340947017
    Two-Electron Energy =                 400.9105389264549899
    Total Energy =                       -343.2846508800021752
  Basis Set: (AUG-CC-PVTZ AUX)
    Blend: AUG-CC-PVTZ-RI
    Molecular point group: c1

    Geometry (in Angstrom), charge = -1, multiplicity = 1:

       Center              X                  Y                   Z               Mass
    ------------   -----------------  -----------------  -----------------  -----------------
         O            1.754038847866     1.277761621242    -0.056344379027    15.994914619570
         O            2.551712847866    -0.825049378758     0.286679620973    15.994914619570
         C           -2.255110552134    -0.340634778758    -0.498070479027    12.000000000000
         C           -3.187207152134     0.192554621242     0.578741620973    12.000000000000
         C           -0.852466152134     0.169475621242    -0.353368379027    12.000000000000
         C            0.242124847866    -0.565093378758    -0.104091379027    12.000000000000
         C            1.634041847866     0.020395621242     0.054201620973    12.000000000000
         H           -2.226723152134    -1.460215378758    -0.440312379027     1.007825032230
         H           -2.645560152134    -0.103815378758    -1.484234379027     1.007825032230
         H           -3.230273152134     1.284859621242     0.528349620973     1.007825032230
         H           -4.204056152134    -0.192070378758     0.453799620973     1.007825032230
         H           -2.836583152134    -0.084698378758     1.577171620973     1.007825032230
         H           -0.742217552134     1.251303221242    -0.443257079027     1.007825032230
         H            0.161726847866    -1.649364378758    -0.006116379027     1.007825032230

  Basis Set: AUG-CC-PVTZ
    Blend: AUG-CC-PVTZ
  Basis Set: (AUG-CC-PVTZ AUX)
    Blend: AUG-CC-PVTZ-JKFIT
	 Reference Energy          =    -343.2846508800021752 [Eh]
	 Singles Energy            =      -0.0000000000000000 [Eh]
	 Same-Spin Energy          =      -0.3481959391035117 [Eh]
	 Opposite-Spin Energy      =      -1.1057205257459768 [Eh]
	 Correlation Energy        =      -1.4539164648494884 [Eh]
	 Total Energy              =    -344.7385673448516741 [Eh]

	 ================> DF-SCS-MP2 Energies <==================
	-----------------------------------------------------------
	 SCS Same-Spin Scale       =       0.3333333333333333 [-]
	 SCS Opposite-Spin Scale   =       1.2000000000000000 [-]
	 SCS Same-Spin Energy      =      -0.1160653130345039 [Eh]
	 SCS Opposite-Spin Energy  =      -1.3268646308951721 [Eh]
	 SCS Correlation Energy    =      -1.4429299439296761 [Eh]
	 SCS Total Energy          =    -344.7275808239318735 [Eh]
	-----------------------------------------------------------

  Dipole Moment: [D]
     X:    -9.5214      Y:    -1.1228      Z:    -0.5824     Total:     9.6051

*** Psi4 exiting successfully. Buy a developer a beer!
