                               Psi4 1.4a3.dev225

  ==> Input File <==

--------------------------------------------------------------------------
#psi4
#
memory 32 gb

molecule  {
0 1
  S        2.3127110    -1.0235480     0.0053950
  N       -0.6038690    -1.4671430     0.0025680
  N        1.5465020     1.4501510    -0.0053670
  C       -2.6591070     0.4777660    -0.0131840
  C       -0.3303560    -0.1463500    -0.0014890
  C       -1.3149260     0.8499960    -0.0079370
  C        1.0885480     0.2076610    -0.0012920
  C       -2.9473560    -0.8932820    -0.0075970
  C       -3.7562130     1.5070280     0.0143710
  C       -1.9011700    -1.8146870    -0.0009620
  C        3.5068880     0.2049870     0.0025490
  C        2.9141540     1.4483870    -0.0033310
  H       -1.0097250     1.8934330    -0.0150530
  H       -3.9776190    -1.2428240    -0.0150370
  H       -4.0970980     1.6828510     1.0402330
  H       -3.4086480     2.4606730    -0.3912090
  H       -4.6191930     1.1768790    -0.5707550
  H       -2.1040920    -2.8844300    -0.0003970
  H        4.5630320    -0.0321470     0.0049780
  H        3.4734092     2.4357497    -0.0063772
units angstrom
no_reorient  #important for SAPT in psi4, default
symmetry c1  #important for SAPT in psi4, default
}

set PROPERTIES_ORIGIN ["COM"]
properties('MP2/aug-cc-pvtz', properties = ['dipole'])
--------------------------------------------------------------------------

    Molecular point group: c1
  Charge       = 0
  Multiplicity = 1
  Basis Set: AUG-CC-PVTZ
    Blend: AUG-CC-PVTZ
  Basis Set: (AUG-CC-PVTZ AUX)
    Blend: AUG-CC-PVTZ-JKFIT

    Orbital Energies [Eh]
    ---------------------

    Doubly Occupied:

       1A    -91.994033     2A    -15.572913     3A    -15.572047
       4A    -11.312122     5A    -11.294147     6A    -11.282026
       7A    -11.273935     8A    -11.271723     9A    -11.263679
      10A    -11.243544    11A    -11.242116    12A    -11.239866
      13A     -8.994013    14A     -6.674778    15A     -6.674226
      16A     -6.673563    17A     -1.285023    18A     -1.256760
      19A     -1.114003    20A     -1.065325    21A     -1.060371
      22A     -0.983123    23A     -0.972331    24A     -0.871321
      25A     -0.844024    26A     -0.781384    27A     -0.748439
      28A     -0.696804    29A     -0.678219    30A     -0.670109
      31A     -0.631733    32A     -0.595972    33A     -0.584845
      34A     -0.572882    35A     -0.570994    36A     -0.561709
      37A     -0.547145    38A     -0.526613    39A     -0.515224
      40A     -0.498395    41A     -0.441257    42A     -0.421445
      43A     -0.393766    44A     -0.381805    45A     -0.366508
      46A     -0.305131

  @DF-RHF Final Energy:  -852.05902298903823

   => Energetics <=

    Nuclear Repulsion Energy =            720.0912662558581587
    One-Electron Energy =               -2595.2577919356808707
    Two-Electron Energy =                1023.1075026907845995
    Total Energy =                       -852.0590229890382261
  Basis Set: (AUG-CC-PVTZ AUX)
    Blend: AUG-CC-PVTZ-RI
    Molecular point group: c1

    Geometry (in Angstrom), charge = 0, multiplicity = 1:

       Center              X                  Y                   Z               Mass
    ------------   -----------------  -----------------  -----------------  -----------------
         S            2.249770783926    -0.993261432461     0.005658708914    31.972071174400
         N           -0.666809216074    -1.436856432461     0.002831708914    14.003074004430
         N            1.483561783926     1.480437567539    -0.005103291086    14.003074004430
         C           -2.722047216074     0.508052567539    -0.012920291086    12.000000000000
         C           -0.393296216074    -0.116063432461    -0.001225291086    12.000000000000
         C           -1.377866216074     0.880282567539    -0.007673291086    12.000000000000
         C            1.025607783926     0.237947567539    -0.001028291086    12.000000000000
         C           -3.010296216074    -0.862995432461    -0.007333291086    12.000000000000
         C           -3.819153216074     1.537314567539     0.014634708914    12.000000000000
         C           -1.964110216074    -1.784400432461    -0.000698291086    12.000000000000
         C            3.443947783926     0.235273567539     0.002812708914    12.000000000000
         C            2.851213783926     1.478673567539    -0.003067291086    12.000000000000
         H           -1.072665216074     1.923719567539    -0.014789291086     1.007825032230
         H           -4.040559216074    -1.212537432461    -0.014773291086     1.007825032230
         H           -4.160038216074     1.713137567539     1.040496708914     1.007825032230
         H           -3.471588216074     2.490959567539    -0.390945291086     1.007825032230
         H           -4.682133216074     1.207165567539    -0.570491291086     1.007825032230
         H           -2.167032216074    -2.854143432461    -0.000133291086     1.007825032230
         H            4.500091783926    -0.001860432461     0.005241708914     1.007825032230
         H            3.410468983926     2.466036267539    -0.006113491086     1.007825032230

  Basis Set: AUG-CC-PVTZ
    Blend: AUG-CC-PVTZ
  Basis Set: (AUG-CC-PVTZ AUX)
    Blend: AUG-CC-PVTZ-JKFIT
	 Reference Energy          =    -852.0590229890382261 [Eh]
	 Singles Energy            =      -0.0000000000000000 [Eh]
	 Same-Spin Energy          =      -0.5692758409229282 [Eh]
	 Opposite-Spin Energy      =      -1.7096579732932937 [Eh]
	 Correlation Energy        =      -2.2789338142162219 [Eh]
	 Total Energy              =    -854.3379568032544285 [Eh]

	 ================> DF-SCS-MP2 Energies <==================
	-----------------------------------------------------------
	 SCS Same-Spin Scale       =       0.3333333333333333 [-]
	 SCS Opposite-Spin Scale   =       1.2000000000000000 [-]
	 SCS Same-Spin Energy      =      -0.1897586136409760 [Eh]
	 SCS Opposite-Spin Energy  =      -2.0515895679519525 [Eh]
	 SCS Correlation Energy    =      -2.2413481815929286 [Eh]
	 SCS Total Energy          =    -854.3003711706311378 [Eh]
	-----------------------------------------------------------

  Dipole Moment: [D]
     X:    -1.2959      Y:     0.3881      Z:     0.0421     Total:     1.3534

*** Psi4 exiting successfully. Buy a developer a beer!
