                               Psi4 1.4a3.dev225

  ==> Input File <==

--------------------------------------------------------------------------
#psi4
#
memory 32 gb

molecule  {
0 1
  S        2.3127110    -1.0235480     0.0053950
  N       -0.6038690    -1.4671430     0.0025680
  N        1.5465020     1.4501510    -0.0053670
  C       -2.6591070     0.4777660    -0.0131840
  C       -0.3303560    -0.1463500    -0.0014890
  C       -1.3149260     0.8499960    -0.0079370
  C        1.0885480     0.2076610    -0.0012920
  C       -2.9473560    -0.8932820    -0.0075970
  C       -3.7562130     1.5070280     0.0143710
  C       -1.9011700    -1.8146870    -0.0009620
  C        3.5068880     0.2049870     0.0025490
  C        2.9141540     1.4483870    -0.0033310
  H       -1.0097250     1.8934330    -0.0150530
  H       -3.9776190    -1.2428240    -0.0150370
  H       -4.0970980     1.6828510     1.0402330
  H       -3.4086480     2.4606730    -0.3912090
  H       -4.6191930     1.1768790    -0.5707550
  H       -2.1040920    -2.8844300    -0.0003970
  H        4.5630320    -0.0321470     0.0049780
  H        3.4980514     2.4792554    -0.0065114
units angstrom
no_reorient  #important for SAPT in psi4, default
symmetry c1  #important for SAPT in psi4, default
}

set PROPERTIES_ORIGIN ["COM"]
properties('MP2/aug-cc-pvtz', properties = ['dipole'])
--------------------------------------------------------------------------

    Molecular point group: c1
  Charge       = 0
  Multiplicity = 1
  Basis Set: AUG-CC-PVTZ
    Blend: AUG-CC-PVTZ
  Basis Set: (AUG-CC-PVTZ AUX)
    Blend: AUG-CC-PVTZ-JKFIT

    Orbital Energies [Eh]
    ---------------------

    Doubly Occupied:

       1A    -91.994349     2A    -15.573453     3A    -15.572210
       4A    -11.312541     5A    -11.294334     6A    -11.282156
       7A    -11.279193     8A    -11.271842     9A    -11.264055
      10A    -11.243673    11A    -11.242259    12A    -11.239945
      13A     -8.994320    14A     -6.675083    15A     -6.674531
      16A     -6.673865    17A     -1.285317    18A     -1.256947
      19A     -1.114124    20A     -1.065438    21A     -1.060503
      22A     -0.982169    23A     -0.972266    24A     -0.870806
      25A     -0.844182    26A     -0.779474    27A     -0.747409
      28A     -0.696371    29A     -0.677737    30A     -0.668789
      31A     -0.629523    32A     -0.596085    33A     -0.582185
      34A     -0.573148    35A     -0.570265    36A     -0.561559
      37A     -0.547305    38A     -0.526816    39A     -0.515360
      40A     -0.495952    41A     -0.441222    42A     -0.421666
      43A     -0.394019    44A     -0.381980    45A     -0.366677
      46A     -0.305314

  @DF-RHF Final Energy:  -852.05398835215522

   => Energetics <=

    Nuclear Repulsion Energy =            719.8372578308325274
    One-Electron Energy =               -2594.7456582853892542
    Two-Electron Energy =                1022.8544121024013975
    Total Energy =                       -852.0539883521552156
  Basis Set: (AUG-CC-PVTZ AUX)
    Blend: AUG-CC-PVTZ-RI
    Molecular point group: c1

    Geometry (in Angstrom), charge = 0, multiplicity = 1:

       Center              X                  Y                   Z               Mass
    ------------   -----------------  -----------------  -----------------  -----------------
         S            2.249629708543    -0.993510500453     0.005659477202    31.972071174400
         N           -0.666950291457    -1.437105500453     0.002832477202    14.003074004430
         N            1.483420708543     1.480188499547    -0.005102522798    14.003074004430
         C           -2.722188291457     0.507803499547    -0.012919522798    12.000000000000
         C           -0.393437291457    -0.116312500453    -0.001224522798    12.000000000000
         C           -1.378007291457     0.880033499547    -0.007672522798    12.000000000000
         C            1.025466708543     0.237698499547    -0.001027522798    12.000000000000
         C           -3.010437291457    -0.863244500453    -0.007332522798    12.000000000000
         C           -3.819294291457     1.537065499547     0.014635477202    12.000000000000
         C           -1.964251291457    -1.784649500453    -0.000697522798    12.000000000000
         C            3.443806708543     0.235024499547     0.002813477202    12.000000000000
         C            2.851072708543     1.478424499547    -0.003066522798    12.000000000000
         H           -1.072806291457     1.923470499547    -0.014788522798     1.007825032230
         H           -4.040700291457    -1.212786500453    -0.014772522798     1.007825032230
         H           -4.160179291457     1.712888499547     1.040497477202     1.007825032230
         H           -3.471729291457     2.490710499547    -0.390944522798     1.007825032230
         H           -4.682274291457     1.206916499547    -0.570490522798     1.007825032230
         H           -2.167173291457    -2.854392500453    -0.000132522798     1.007825032230
         H            4.499950708543    -0.002109500453     0.005242477202     1.007825032230
         H            3.434970108543     2.509292899547    -0.006246922798     1.007825032230

  Basis Set: AUG-CC-PVTZ
    Blend: AUG-CC-PVTZ
  Basis Set: (AUG-CC-PVTZ AUX)
    Blend: AUG-CC-PVTZ-JKFIT
	 Reference Energy          =    -852.0539883521552156 [Eh]
	 Singles Energy            =      -0.0000000000000000 [Eh]
	 Same-Spin Energy          =      -0.5694208871942210 [Eh]
	 Opposite-Spin Energy      =      -1.7101524149188849 [Eh]
	 Correlation Energy        =      -2.2795733021131062 [Eh]
	 Total Energy              =    -854.3335616542683510 [Eh]

	 ================> DF-SCS-MP2 Energies <==================
	-----------------------------------------------------------
	 SCS Same-Spin Scale       =       0.3333333333333333 [-]
	 SCS Opposite-Spin Scale   =       1.2000000000000000 [-]
	 SCS Same-Spin Energy      =      -0.1898069623980737 [Eh]
	 SCS Opposite-Spin Energy  =      -2.0521828979026617 [Eh]
	 SCS Correlation Energy    =      -2.2419898603007353 [Eh]
	 SCS Total Energy          =    -854.2959782124559069 [Eh]
	-----------------------------------------------------------

  Dipole Moment: [D]
     X:    -1.3149      Y:     0.3776      Z:     0.0421     Total:     1.3687

*** Psi4 exiting successfully. Buy a developer a beer!
