                               Psi4 1.4a3.dev225

  ==> Input File <==

--------------------------------------------------------------------------
#psi4
#
memory 32 gb

molecule  {
0 1
  S        2.3127110    -1.0235480     0.0053950
  N       -0.6038690    -1.4671430     0.0025680
  N        1.5465020     1.4501510    -0.0053670
  C       -2.6591070     0.4777660    -0.0131840
  C       -0.3303560    -0.1463500    -0.0014890
  C       -1.3149260     0.8499960    -0.0079370
  C        1.0885480     0.2076610    -0.0012920
  C       -2.9473560    -0.8932820    -0.0075970
  C       -3.7562130     1.5070280     0.0143710
  C       -1.9011700    -1.8146870    -0.0009620
  C        3.5068880     0.2049870     0.0025490
  C        2.9141540     1.4483870    -0.0033310
  H       -1.0097250     1.8934330    -0.0150530
  H       -3.9776190    -1.2428240    -0.0150370
  H       -4.0970980     1.6828510     1.0402330
  H       -3.4086480     2.4606730    -0.3912090
  H       -4.6191930     1.1768790    -0.5707550
  H       -2.1040920    -2.8844300    -0.0003970
  H        4.5630320    -0.0321470     0.0049780
  H        3.4389101     2.3748417    -0.0061893
units angstrom
no_reorient  #important for SAPT in psi4, default
symmetry c1  #important for SAPT in psi4, default
}

set PROPERTIES_ORIGIN ["COM"]
properties('MP2/aug-cc-pvtz', properties = ['dipole'])
--------------------------------------------------------------------------

    Molecular point group: c1
  Charge       = 0
  Multiplicity = 1
  Basis Set: AUG-CC-PVTZ
    Blend: AUG-CC-PVTZ
  Basis Set: (AUG-CC-PVTZ AUX)
    Blend: AUG-CC-PVTZ-JKFIT

    Orbital Energies [Eh]
    ---------------------

    Doubly Occupied:

       1A    -91.993675     2A    -15.572261     3A    -15.571855
       4A    -11.311606     5A    -11.293922     6A    -11.281873
       7A    -11.271583     8A    -11.266290     9A    -11.263190
      10A    -11.243392    11A    -11.241945    12A    -11.239772
      13A     -8.993666    14A     -6.674432    15A     -6.673881
      16A     -6.673222    17A     -1.284704    18A     -1.256562
      19A     -1.113861    20A     -1.065327    21A     -1.060263
      22A     -0.985003    23A     -0.972443    24A     -0.872361
      25A     -0.843845    26A     -0.785220    27A     -0.750110
      28A     -0.697796    29A     -0.679511    30A     -0.671810
      31A     -0.634939    32A     -0.595839    33A     -0.588559
      34A     -0.572570    35A     -0.571550    36A     -0.561802
      37A     -0.546949    38A     -0.526376    39A     -0.515066
      40A     -0.501204    41A     -0.441271    42A     -0.421177
      43A     -0.393470    44A     -0.381611    45A     -0.366323
      46A     -0.304943

  @DF-RHF Final Energy:  -852.06169273932801

   => Energetics <=

    Nuclear Repulsion Energy =            720.4713079256662240
    One-Electron Energy =               -2596.0079403551144424
    Two-Electron Energy =                1023.4749396901202090
    Total Energy =                       -852.0616927393280093
  Basis Set: (AUG-CC-PVTZ AUX)
    Blend: AUG-CC-PVTZ-RI
    Molecular point group: c1

    Geometry (in Angstrom), charge = 0, multiplicity = 1:

       Center              X                  Y                   Z               Mass
    ------------   -----------------  -----------------  -----------------  -----------------
         S            2.249968289576    -0.992912737157     0.005657633195    31.972071174400
         N           -0.666611710424    -1.436507737157     0.002830633195    14.003074004430
         N            1.483759289576     1.480786262843    -0.005104366805    14.003074004430
         C           -2.721849710424     0.508401262843    -0.012921366805    12.000000000000
         C           -0.393098710424    -0.115714737157    -0.001226366805    12.000000000000
         C           -1.377668710424     0.880631262843    -0.007674366805    12.000000000000
         C            1.025805289576     0.238296262843    -0.001029366805    12.000000000000
         C           -3.010098710424    -0.862646737157    -0.007334366805    12.000000000000
         C           -3.818955710424     1.537663262843     0.014633633195    12.000000000000
         C           -1.963912710424    -1.784051737157    -0.000699366805    12.000000000000
         C            3.444145289576     0.235622262843     0.002811633195    12.000000000000
         C            2.851411289576     1.479022262843    -0.003068366805    12.000000000000
         H           -1.072467710424     1.924068262843    -0.014790366805     1.007825032230
         H           -4.040361710424    -1.212188737157    -0.014774366805     1.007825032230
         H           -4.159840710424     1.713486262843     1.040495633195     1.007825032230
         H           -3.471390710424     2.491308262843    -0.390946366805     1.007825032230
         H           -4.681935710424     1.207514262843    -0.570492366805     1.007825032230
         H           -2.166834710424    -2.853794737157    -0.000134366805     1.007825032230
         H            4.500289289576    -0.001511737157     0.005240633195     1.007825032230
         H            3.376167389576     2.405476962843    -0.005926666805     1.007825032230

  Basis Set: AUG-CC-PVTZ
    Blend: AUG-CC-PVTZ
  Basis Set: (AUG-CC-PVTZ AUX)
    Blend: AUG-CC-PVTZ-JKFIT
	 Reference Energy          =    -852.0616927393280093 [Eh]
	 Singles Energy            =      -0.0000000000000000 [Eh]
	 Same-Spin Energy          =      -0.5691018988870705 [Eh]
	 Opposite-Spin Energy      =      -1.7091443763175325 [Eh]
	 Correlation Energy        =      -2.2782462752046029 [Eh]
	 Total Energy              =    -854.3399390145326606 [Eh]

	 ================> DF-SCS-MP2 Energies <==================
	-----------------------------------------------------------
	 SCS Same-Spin Scale       =       0.3333333333333333 [-]
	 SCS Opposite-Spin Scale   =       1.2000000000000000 [-]
	 SCS Same-Spin Energy      =      -0.1897006329623568 [Eh]
	 SCS Opposite-Spin Energy  =      -2.0509732515810390 [Eh]
	 SCS Correlation Energy    =      -2.2406738845433960 [Eh]
	 SCS Total Energy          =    -854.3023666238714213 [Eh]
	-----------------------------------------------------------

  Dipole Moment: [D]
     X:    -1.2746      Y:     0.3969      Z:     0.0420     Total:     1.3357

*** Psi4 exiting successfully. Buy a developer a beer!
