                               Psi4 1.4a3.dev225

  ==> Input File <==

--------------------------------------------------------------------------
#psi4
#
memory 32 gb

molecule  {
0 1
  S        2.3127110    -1.0235480     0.0053950
  N       -0.6038690    -1.4671430     0.0025680
  N        1.5465020     1.4501510    -0.0053670
  C       -2.6591070     0.4777660    -0.0131840
  C       -0.3303560    -0.1463500    -0.0014890
  C       -1.3149260     0.8499960    -0.0079370
  C        1.0885480     0.2076610    -0.0012920
  C       -2.9473560    -0.8932820    -0.0075970
  C       -3.7562130     1.5070280     0.0143710
  C       -1.9011700    -1.8146870    -0.0009620
  C        3.5068880     0.2049870     0.0025490
  C        3.0141538     1.4482580    -0.0031821
  H       -1.0097250     1.8934330    -0.0150530
  H       -3.9776190    -1.2428240    -0.0150370
  H       -4.0970980     1.6828510     1.0402330
  H       -3.4086480     2.4606730    -0.3912090
  H       -4.6191930     1.1768790    -0.5707550
  H       -2.1040920    -2.8844300    -0.0003970
  H        4.5630320    -0.0321470     0.0049780
  H        3.4487670     2.3922440    -0.0062430
units angstrom
no_reorient  #important for SAPT in psi4, default
symmetry c1  #important for SAPT in psi4, default
}

set PROPERTIES_ORIGIN ["COM"]
properties('MP2/aug-cc-pvtz', properties = ['dipole'])
--------------------------------------------------------------------------

    Molecular point group: c1
  Charge       = 0
  Multiplicity = 1
  Basis Set: AUG-CC-PVTZ
    Blend: AUG-CC-PVTZ
  Basis Set: (AUG-CC-PVTZ AUX)
    Blend: AUG-CC-PVTZ-JKFIT

    Orbital Energies [Eh]
    ---------------------

    Doubly Occupied:

       1A    -91.990170     2A    -15.574412     3A    -15.573023
       4A    -11.311603     5A    -11.294262     6A    -11.282124
       7A    -11.271803     8A    -11.266642     9A    -11.262348
      10A    -11.244291    11A    -11.242509    12A    -11.239958
      13A     -8.990601    14A     -6.671466    15A     -6.670792
      16A     -6.670039    17A     -1.275069    18A     -1.245790
      19A     -1.114215    20A     -1.069376    21A     -1.051106
      22A     -0.989016    23A     -0.973324    24A     -0.875473
      25A     -0.842737    26A     -0.782905    27A     -0.749237
      28A     -0.696342    29A     -0.680462    30A     -0.672983
      31A     -0.633035    32A     -0.595640    33A     -0.587204
      34A     -0.567621    35A     -0.566562    36A     -0.559760
      37A     -0.542933    38A     -0.523525    39A     -0.516376
      40A     -0.514222    41A     -0.438147    42A     -0.416280
      43A     -0.396121    44A     -0.378058    45A     -0.362236
      46A     -0.315015

  @DF-RHF Final Energy:  -852.05341016806426

   => Energetics <=

    Nuclear Repulsion Energy =            718.7841153511320726
    One-Electron Energy =               -2592.7014319710019663
    Two-Electron Energy =                1021.8639064518055193
    Total Energy =                       -852.0534101680642607
  Basis Set: (AUG-CC-PVTZ AUX)
    Blend: AUG-CC-PVTZ-RI
    Molecular point group: c1

    Geometry (in Angstrom), charge = 0, multiplicity = 1:

       Center              X                  Y                   Z               Mass
    ------------   -----------------  -----------------  -----------------  -----------------
         S            2.243095272089    -0.993003571053     0.005647790707    31.972071174400
         N           -0.673484727911    -1.436598571053     0.002820790707    14.003074004430
         N            1.476886272089     1.480695428947    -0.005114209293    14.003074004430
         C           -2.728722727911     0.508310428947    -0.012931209293    12.000000000000
         C           -0.399971727911    -0.115805571053    -0.001236209293    12.000000000000
         C           -1.384541727911     0.880540428947    -0.007684209293    12.000000000000
         C            1.018932272089     0.238205428947    -0.001039209293    12.000000000000
         C           -3.016971727911    -0.862737571053    -0.007344209293    12.000000000000
         C           -3.825828727911     1.537572428947     0.014623790707    12.000000000000
         C           -1.970785727911    -1.784142571053    -0.000709209293    12.000000000000
         C            3.437272272089     0.235531428947     0.002801790707    12.000000000000
         C            2.944538072089     1.478802428947    -0.002929309293    12.000000000000
         H           -1.079340727911     1.923977428947    -0.014800209293     1.007825032230
         H           -4.047234727911    -1.212279571053    -0.014784209293     1.007825032230
         H           -4.166713727911     1.713395428947     1.040485790707     1.007825032230
         H           -3.478263727911     2.491217428947    -0.390956209293     1.007825032230
         H           -4.688808727911     1.207423428947    -0.570502209293     1.007825032230
         H           -2.173707727911    -2.853885571053    -0.000144209293     1.007825032230
         H            4.493416272089    -0.001602571053     0.005230790707     1.007825032230
         H            3.379151272089     2.422788428947    -0.005990209293     1.007825032230

  Basis Set: AUG-CC-PVTZ
    Blend: AUG-CC-PVTZ
  Basis Set: (AUG-CC-PVTZ AUX)
    Blend: AUG-CC-PVTZ-JKFIT
	 Reference Energy          =    -852.0534101680642607 [Eh]
	 Singles Energy            =      -0.0000000000000000 [Eh]
	 Same-Spin Energy          =      -0.5671976373150571 [Eh]
	 Opposite-Spin Energy      =      -1.7090985963945255 [Eh]
	 Correlation Energy        =      -2.2762962337095827 [Eh]
	 Total Energy              =    -854.3297064017738194 [Eh]

	 ================> DF-SCS-MP2 Energies <==================
	-----------------------------------------------------------
	 SCS Same-Spin Scale       =       0.3333333333333333 [-]
	 SCS Opposite-Spin Scale   =       1.2000000000000000 [-]
	 SCS Same-Spin Energy      =      -0.1890658791050190 [Eh]
	 SCS Opposite-Spin Energy  =      -2.0509183156734307 [Eh]
	 SCS Correlation Energy    =      -2.2399841947784496 [Eh]
	 SCS Total Energy          =    -854.2933943628427187 [Eh]
	-----------------------------------------------------------

  Dipole Moment: [D]
     X:    -1.4033      Y:     0.4389      Z:     0.0417     Total:     1.4709

*** Psi4 exiting successfully. Buy a developer a beer!
