                               Psi4 1.4a3.dev225

  ==> Input File <==

--------------------------------------------------------------------------
#psi4
#
memory 32 gb

molecule  {
0 1
  S        2.3127110    -1.0235480     0.0053950
  N       -0.6038690    -1.4671430     0.0025680
  N        1.5465020     1.4501510    -0.0053670
  C       -2.6591070     0.4777660    -0.0131840
  C       -0.3303560    -0.1463500    -0.0014890
  C       -1.3149260     0.8499960    -0.0079370
  C        1.0885480     0.2076610    -0.0012920
  C       -2.9473560    -0.8932820    -0.0075970
  C       -3.7562130     1.5070280     0.0143710
  C       -1.9011700    -1.8146870    -0.0009620
  C        3.4720376     0.1691339     0.0026321
  C        2.9141540     1.4483870    -0.0033310
  H       -1.0097250     1.8934330    -0.0150530
  H       -3.9776190    -1.2428240    -0.0150370
  H       -4.0970980     1.6828510     1.0402330
  H       -3.4086480     2.4606730    -0.3912090
  H       -4.6191930     1.1768790    -0.5707550
  H       -2.1040920    -2.8844300    -0.0003970
  H        4.5630320    -0.0321470     0.0049780
  H        3.4487670     2.3922440    -0.0062430
units angstrom
no_reorient  #important for SAPT in psi4, default
symmetry c1  #important for SAPT in psi4, default
}

set PROPERTIES_ORIGIN ["COM"]
properties('MP2/aug-cc-pvtz', properties = ['dipole'])
--------------------------------------------------------------------------

    Molecular point group: c1
  Charge       = 0
  Multiplicity = 1
  Basis Set: AUG-CC-PVTZ
    Blend: AUG-CC-PVTZ
  Basis Set: (AUG-CC-PVTZ AUX)
    Blend: AUG-CC-PVTZ-JKFIT

    Orbital Energies [Eh]
    ---------------------

    Doubly Occupied:

       1A    -91.995886     2A    -15.573357     3A    -15.570593
       4A    -11.308663     5A    -11.293293     6A    -11.281200
       7A    -11.270810     8A    -11.269334     9A    -11.264717
      10A    -11.242018    11A    -11.240551    12A    -11.239159
      13A     -8.996799    14A     -6.677656    15A     -6.676993
      16A     -6.676324    17A     -1.285525    18A     -1.256271
      19A     -1.113002    20A     -1.072759    21A     -1.061328
      22A     -0.981476    23A     -0.971066    24A     -0.870764
      25A     -0.841846    26A     -0.781458    27A     -0.750453
      28A     -0.696462    29A     -0.678022    30A     -0.669285
      31A     -0.633586    32A     -0.595334    33A     -0.586879
      34A     -0.573687    35A     -0.569319    36A     -0.560797
      37A     -0.544274    38A     -0.526734    39A     -0.516591
      40A     -0.505613    41A     -0.441056    42A     -0.421639
      43A     -0.398004    44A     -0.380673    45A     -0.365390
      46A     -0.300615

  @DF-RHF Final Energy:  -852.05736361663969

   => Energetics <=

    Nuclear Repulsion Energy =            721.3394319184226333
    One-Electron Energy =               -2597.7390667745708015
    Two-Electron Energy =                1024.3422712395085910
    Total Energy =                       -852.0573636166395772
  Basis Set: (AUG-CC-PVTZ AUX)
    Blend: AUG-CC-PVTZ-RI
    Molecular point group: c1

    Geometry (in Angstrom), charge = 0, multiplicity = 1:

       Center              X                  Y                   Z               Mass
    ------------   -----------------  -----------------  -----------------  -----------------
         S            2.252287471972    -0.990568401748     0.005652276030    31.972071174400
         N           -0.664292528028    -1.434163401748     0.002825276030    14.003074004430
         N            1.486078471972     1.483130598252    -0.005109723970    14.003074004430
         C           -2.719530528028     0.510745598252    -0.012926723970    12.000000000000
         C           -0.390779528028    -0.113370401748    -0.001231723970    12.000000000000
         C           -1.375349528028     0.882975598252    -0.007679723970    12.000000000000
         C            1.028124471972     0.240640598252    -0.001034723970    12.000000000000
         C           -3.007779528028    -0.860302401748    -0.007339723970    12.000000000000
         C           -3.816636528028     1.540007598252     0.014628276030    12.000000000000
         C           -1.961593528028    -1.781707401748    -0.000704723970    12.000000000000
         C            3.411614071972     0.202113498252     0.002889376030    12.000000000000
         C            2.853730471972     1.481366598252    -0.003073723970    12.000000000000
         H           -1.070148528028     1.926412598252    -0.014795723970     1.007825032230
         H           -4.038042528028    -1.209844401748    -0.014779723970     1.007825032230
         H           -4.157521528028     1.715830598252     1.040490276030     1.007825032230
         H           -3.469071528028     2.493652598252    -0.390951723970     1.007825032230
         H           -4.679616528028     1.209858598252    -0.570497723970     1.007825032230
         H           -2.164515528028    -2.851450401748    -0.000139723970     1.007825032230
         H            4.502608471972     0.000832598252     0.005235276030     1.007825032230
         H            3.388343471972     2.425223598252    -0.005985723970     1.007825032230

  Basis Set: AUG-CC-PVTZ
    Blend: AUG-CC-PVTZ
  Basis Set: (AUG-CC-PVTZ AUX)
    Blend: AUG-CC-PVTZ-JKFIT
	 Reference Energy          =    -852.0573636166396909 [Eh]
	 Singles Energy            =      -0.0000000000000000 [Eh]
	 Same-Spin Energy          =      -0.5702313694816763 [Eh]
	 Opposite-Spin Energy      =      -1.7100738864985723 [Eh]
	 Correlation Energy        =      -2.2803052559802488 [Eh]
	 Total Energy              =    -854.3376688726199291 [Eh]

	 ================> DF-SCS-MP2 Energies <==================
	-----------------------------------------------------------
	 SCS Same-Spin Scale       =       0.3333333333333333 [-]
	 SCS Opposite-Spin Scale   =       1.2000000000000000 [-]
	 SCS Same-Spin Energy      =      -0.1900771231605587 [Eh]
	 SCS Opposite-Spin Energy  =      -2.0520886637982865 [Eh]
	 SCS Correlation Energy    =      -2.2421657869588452 [Eh]
	 SCS Total Energy          =    -854.2995294035985125 [Eh]
	-----------------------------------------------------------

  Dipole Moment: [D]
     X:    -1.2074      Y:     0.3642      Z:     0.0422     Total:     1.2618

*** Psi4 exiting successfully. Buy a developer a beer!
