                               Psi4 1.4a3.dev225

  ==> Input File <==

--------------------------------------------------------------------------
#psi4
#
memory 32 gb

molecule  {
0 1
  S        2.3127110    -1.0235480     0.0053950
  N       -0.6038690    -1.4671430     0.0025680
  N        1.5465020     1.4501510    -0.0053670
  C       -2.6591070     0.4777660    -0.0131840
  C       -0.3303560    -0.1463500    -0.0014890
  C       -1.3149260     0.8499960    -0.0079370
  C        1.0885480     0.2076610    -0.0012920
  C       -2.9473560    -0.8932820    -0.0075970
  C       -3.7562130     1.5070280     0.0143710
  C       -1.9011700    -1.8146870    -0.0009620
  C        3.5208282     0.2193282     0.0025158
  C        2.9141540     1.4483870    -0.0033310
  H       -1.0097250     1.8934330    -0.0150530
  H       -3.9776190    -1.2428240    -0.0150370
  H       -4.0970980     1.6828510     1.0402330
  H       -3.4086480     2.4606730    -0.3912090
  H       -4.6191930     1.1768790    -0.5707550
  H       -2.1040920    -2.8844300    -0.0003970
  H        4.5630320    -0.0321470     0.0049780
  H        3.4487670     2.3922440    -0.0062430
units angstrom
no_reorient  #important for SAPT in psi4, default
symmetry c1  #important for SAPT in psi4, default
}

set PROPERTIES_ORIGIN ["COM"]
properties('MP2/aug-cc-pvtz', properties = ['dipole'])
--------------------------------------------------------------------------

    Molecular point group: c1
  Charge       = 0
  Multiplicity = 1
  Basis Set: AUG-CC-PVTZ
    Blend: AUG-CC-PVTZ
  Basis Set: (AUG-CC-PVTZ AUX)
    Blend: AUG-CC-PVTZ-JKFIT

    Orbital Energies [Eh]
    ---------------------

    Doubly Occupied:

       1A    -91.992835     2A    -15.572383     3A    -15.572102
       4A    -11.312896     5A    -11.294231     6A    -11.282169
       7A    -11.271915     8A    -11.268249     9A    -11.262952
      10A    -11.243955    11A    -11.242525    12A    -11.240031
      13A     -8.992522    14A     -6.673268    15A     -6.672724
      16A     -6.672079    17A     -1.284542    18A     -1.256715
      19A     -1.114235    20A     -1.064975    21A     -1.057653
      22A     -0.985522    23A     -0.972865    24A     -0.872482
      25A     -0.844652    26A     -0.785028    27A     -0.749355
      28A     -0.698128    29A     -0.679460    30A     -0.672159
      31A     -0.634177    32A     -0.596079    33A     -0.587780
      34A     -0.572525    35A     -0.572251    36A     -0.562141
      37A     -0.548013    38A     -0.526333    39A     -0.515157
      40A     -0.496998    41A     -0.441366    42A     -0.421009
      43A     -0.392097    44A     -0.381912    45A     -0.366703
      46A     -0.306680

  @DF-RHF Final Energy:  -852.06184545229416

   => Energetics <=

    Nuclear Repulsion Energy =            719.9786682284402559
    One-Electron Energy =               -2595.0293724388125156
    Two-Electron Energy =                1022.9888587580780950
    Total Energy =                       -852.0618454522941647
  Basis Set: (AUG-CC-PVTZ AUX)
    Blend: AUG-CC-PVTZ-RI
    Molecular point group: c1

    Geometry (in Angstrom), charge = 0, multiplicity = 1:

       Center              X                  Y                   Z               Mass
    ------------   -----------------  -----------------  -----------------  -----------------
         S            2.248961611516    -0.993989946830     0.005660203737    31.972071174400
         N           -0.667618388484    -1.437584946830     0.002833203737    14.003074004430
         N            1.482752611516     1.479709053170    -0.005101796263    14.003074004430
         C           -2.722856388484     0.507324053170    -0.012918796263    12.000000000000
         C           -0.394105388484    -0.116791946830    -0.001223796263    12.000000000000
         C           -1.378675388484     0.879554053170    -0.007671796263    12.000000000000
         C            1.024798611516     0.237219053170    -0.001026796263    12.000000000000
         C           -3.011105388484    -0.863723946830    -0.007331796263    12.000000000000
         C           -3.819962388484     1.536586053170     0.014636203737    12.000000000000
         C           -1.964919388484    -1.785128946830    -0.000696796263    12.000000000000
         C            3.457078811516     0.248886253170     0.002781003737    12.000000000000
         C            2.850404611516     1.477945053170    -0.003065796263    12.000000000000
         H           -1.073474388484     1.922991053170    -0.014787796263     1.007825032230
         H           -4.041368388484    -1.213265946830    -0.014771796263     1.007825032230
         H           -4.160847388484     1.712409053170     1.040498203737     1.007825032230
         H           -3.472397388484     2.490231053170    -0.390943796263     1.007825032230
         H           -4.682942388484     1.206437053170    -0.570489796263     1.007825032230
         H           -2.167841388484    -2.854871946830    -0.000131796263     1.007825032230
         H            4.499282611516    -0.002588946830     0.005243203737     1.007825032230
         H            3.385017611516     2.421802053170    -0.005977796263     1.007825032230

  Basis Set: AUG-CC-PVTZ
    Blend: AUG-CC-PVTZ
  Basis Set: (AUG-CC-PVTZ AUX)
    Blend: AUG-CC-PVTZ-JKFIT
	 Reference Energy          =    -852.0618454522941647 [Eh]
	 Singles Energy            =      -0.0000000000000000 [Eh]
	 Same-Spin Energy          =      -0.5687630400113430 [Eh]
	 Opposite-Spin Energy      =      -1.7090195147556941 [Eh]
	 Correlation Energy        =      -2.2777825547670369 [Eh]
	 Total Energy              =    -854.3396280070611510 [Eh]

	 ================> DF-SCS-MP2 Energies <==================
	-----------------------------------------------------------
	 SCS Same-Spin Scale       =       0.3333333333333333 [-]
	 SCS Opposite-Spin Scale   =       1.2000000000000000 [-]
	 SCS Same-Spin Energy      =      -0.1895876800037810 [Eh]
	 SCS Opposite-Spin Energy  =      -2.0508234177068330 [Eh]
	 SCS Correlation Energy    =      -2.2404110977106138 [Eh]
	 SCS Total Energy          =    -854.3022565500048131 [Eh]
	-----------------------------------------------------------

  Dipole Moment: [D]
     X:    -1.3072      Y:     0.4083      Z:     0.0420     Total:     1.3701

*** Psi4 exiting successfully. Buy a developer a beer!
