                               Psi4 1.4a3.dev225

  ==> Input File <==

--------------------------------------------------------------------------
#psi4
#
memory 32 gb

molecule  {
0 1
  S        2.3127110    -1.0235480     0.0053950
  N       -0.6038690    -1.4671430     0.0025680
  N        1.5465020     1.4501510    -0.0053670
  C       -2.6591070     0.4777660    -0.0131840
  C       -0.3303560    -0.1463500    -0.0014890
  C       -1.3149260     0.8499960    -0.0079370
  C        1.0885480     0.2076610    -0.0012920
  C       -2.9473560    -0.8932820    -0.0075970
  C       -3.7562130     1.5070280     0.0143710
  C       -1.9011700    -1.8146870    -0.0009620
  C        3.5068880     0.2049870     0.0025490
  C        2.9141540     1.4483870    -0.0033310
  H       -1.0097250     1.8934330    -0.0150530
  H       -3.9776190    -1.2428240    -0.0150370
  H       -4.0970980     1.6828510     1.0402330
  H       -3.4404460     2.3734259    -0.3541033
  H       -4.6191930     1.1768790    -0.5707550
  H       -2.1040920    -2.8844300    -0.0003970
  H        4.5630320    -0.0321470     0.0049780
  H        3.4487670     2.3922440    -0.0062430
units angstrom
no_reorient  #important for SAPT in psi4, default
symmetry c1  #important for SAPT in psi4, default
}

set PROPERTIES_ORIGIN ["COM"]
properties('MP2/aug-cc-pvtz', properties = ['dipole'])
--------------------------------------------------------------------------

    Molecular point group: c1
  Charge       = 0
  Multiplicity = 1
  Basis Set: AUG-CC-PVTZ
    Blend: AUG-CC-PVTZ
  Basis Set: (AUG-CC-PVTZ AUX)
    Blend: AUG-CC-PVTZ-JKFIT

    Orbital Energies [Eh]
    ---------------------

    Doubly Occupied:

       1A    -91.993699     2A    -15.572373     3A    -15.571667
       4A    -11.311683     5A    -11.293890     6A    -11.281562
       7A    -11.270898     8A    -11.268432     9A    -11.263286
      10A    -11.242831    11A    -11.241905    12A    -11.227689
      13A     -8.993687    14A     -6.674453    15A     -6.673902
      16A     -6.673241    17A     -1.284684    18A     -1.256425
      19A     -1.115035    20A     -1.065174    21A     -1.060237
      22A     -0.985881    23A     -0.979188    24A     -0.871811
      25A     -0.846119    26A     -0.784323    27A     -0.750206
      28A     -0.698206    29A     -0.679967    30A     -0.671894
      31A     -0.635062    32A     -0.598668    33A     -0.587366
      34A     -0.576594    35A     -0.571533    36A     -0.569717
      37A     -0.547182    38A     -0.526492    39A     -0.516515
      40A     -0.500443    41A     -0.441155    42A     -0.421042
      43A     -0.393425    44A     -0.381484    45A     -0.366314
      46A     -0.304858

  @DF-RHF Final Energy:  -852.05558185309394

   => Energetics <=

    Nuclear Repulsion Energy =            720.8047438186973750
    One-Electron Energy =               -2596.6362583044397070
    Two-Electron Energy =                1023.7759326326485052
    Total Energy =                       -852.0555818530939405
  Basis Set: (AUG-CC-PVTZ AUX)
    Blend: AUG-CC-PVTZ-RI
    Molecular point group: c1

    Geometry (in Angstrom), charge = 0, multiplicity = 1:

       Center              X                  Y                   Z               Mass
    ------------   -----------------  -----------------  -----------------  -----------------
         S            2.250093901295    -0.992512879112     0.005445512318    31.972071174400
         N           -0.666486098705    -1.436107879112     0.002618512318    14.003074004430
         N            1.483884901295     1.481186120888    -0.005316487682    14.003074004430
         C           -2.721724098705     0.508801120888    -0.013133487682    12.000000000000
         C           -0.392973098705    -0.115314879112    -0.001438487682    12.000000000000
         C           -1.377543098705     0.881031120888    -0.007886487682    12.000000000000
         C            1.025930901295     0.238696120888    -0.001241487682    12.000000000000
         C           -3.009973098705    -0.862246879112    -0.007546487682    12.000000000000
         C           -3.818830098705     1.538063120888     0.014421512318    12.000000000000
         C           -1.963787098705    -1.783651879112    -0.000911487682    12.000000000000
         C            3.444270901295     0.236022120888     0.002599512318    12.000000000000
         C            2.851536901295     1.479422120888    -0.003280487682    12.000000000000
         H           -1.072342098705     1.924468120888    -0.015002487682     1.007825032230
         H           -4.040236098705    -1.211788879112    -0.014986487682     1.007825032230
         H           -4.159715098705     1.713886120888     1.040283512318     1.007825032230
         H           -3.503063098705     2.404461020888    -0.354052787682     1.007825032230
         H           -4.681810098705     1.207914120888    -0.570704487682     1.007825032230
         H           -2.166709098705    -2.853394879112    -0.000346487682     1.007825032230
         H            4.500414901295    -0.001111879112     0.005028512318     1.007825032230
         H            3.386149901295     2.423279120888    -0.006192487682     1.007825032230

  Basis Set: AUG-CC-PVTZ
    Blend: AUG-CC-PVTZ
  Basis Set: (AUG-CC-PVTZ AUX)
    Blend: AUG-CC-PVTZ-JKFIT
	 Reference Energy          =    -852.0555818530939405 [Eh]
	 Singles Energy            =      -0.0000000000000000 [Eh]
	 Same-Spin Energy          =      -0.5691373857966684 [Eh]
	 Opposite-Spin Energy      =      -1.7087467215694807 [Eh]
	 Correlation Energy        =      -2.2778841073661491 [Eh]
	 Total Energy              =    -854.3334659604601029 [Eh]

	 ================> DF-SCS-MP2 Energies <==================
	-----------------------------------------------------------
	 SCS Same-Spin Scale       =       0.3333333333333333 [-]
	 SCS Opposite-Spin Scale   =       1.2000000000000000 [-]
	 SCS Same-Spin Energy      =      -0.1897124619322228 [Eh]
	 SCS Opposite-Spin Energy  =      -2.0504960658833769 [Eh]
	 SCS Correlation Energy    =      -2.2402085278155996 [Eh]
	 SCS Total Energy          =    -854.2957903809095797 [Eh]
	-----------------------------------------------------------

  Dipole Moment: [D]
     X:    -1.2916      Y:     0.4328      Z:     0.0325     Total:     1.3626

*** Psi4 exiting successfully. Buy a developer a beer!
