                               Psi4 1.4a3.dev225

  ==> Input File <==

--------------------------------------------------------------------------
#psi4
#
memory 32 gb

molecule  {
0 1
  S        2.3127110    -1.0235480     0.0053950
  N       -0.6038690    -1.4671430     0.0025680
  N        1.5465020     1.4501510    -0.0053670
  C       -2.6591070     0.4777660    -0.0131840
  C       -0.3263004    -0.1267656    -0.0015492
  C       -1.3149260     0.8499960    -0.0079370
  C        1.0885480     0.2076610    -0.0012920
  C       -2.9473560    -0.8932820    -0.0075970
  C       -3.7562130     1.5070280     0.0143710
  C       -1.9011700    -1.8146870    -0.0009620
  C        3.5068880     0.2049870     0.0025490
  C        2.9141540     1.4483870    -0.0033310
  H       -1.0097250     1.8934330    -0.0150530
  H       -3.9776190    -1.2428240    -0.0150370
  H       -4.0970980     1.6828510     1.0402330
  H       -3.4086480     2.4606730    -0.3912090
  H       -4.6191930     1.1768790    -0.5707550
  H       -2.1040920    -2.8844300    -0.0003970
  H        4.5630320    -0.0321470     0.0049780
  H        3.4487670     2.3922440    -0.0062430
units angstrom
no_reorient  #important for SAPT in psi4, default
symmetry c1  #important for SAPT in psi4, default
}

set PROPERTIES_ORIGIN ["COM"]
properties('MP2/aug-cc-pvtz', properties = ['dipole'])
--------------------------------------------------------------------------

    Molecular point group: c1
  Charge       = 0
  Multiplicity = 1
  Basis Set: AUG-CC-PVTZ
    Blend: AUG-CC-PVTZ
  Basis Set: (AUG-CC-PVTZ AUX)
    Blend: AUG-CC-PVTZ-JKFIT

    Orbital Energies [Eh]
    ---------------------

    Doubly Occupied:

       1A    -91.994332     2A    -15.572533     3A    -15.572282
       4A    -11.311432     5A    -11.293278     6A    -11.281764
       7A    -11.272064     8A    -11.268517     9A    -11.263547
      10A    -11.243247    11A    -11.241289    12A    -11.239989
      13A     -8.994257    14A     -6.675018    15A     -6.674475
      16A     -6.673807    17A     -1.283978    18A     -1.252515
      19A     -1.113088    20A     -1.066868    21A     -1.060682
      22A     -0.984345    23A     -0.972932    24A     -0.871565
      25A     -0.843891    26A     -0.784176    27A     -0.750228
      28A     -0.697475    29A     -0.677210    30A     -0.671739
      31A     -0.633928    32A     -0.595782    33A     -0.588192
      34A     -0.572577    35A     -0.571736    36A     -0.560763
      37A     -0.546842    38A     -0.524763    39A     -0.515652
      40A     -0.500466    41A     -0.440614    42A     -0.421876
      43A     -0.394355    44A     -0.380236    45A     -0.367484
      46A     -0.304477

  @DF-RHF Final Energy:  -852.06020779019593

   => Energetics <=

    Nuclear Repulsion Energy =            720.3052636780212197
    One-Electron Energy =               -2595.6864133433155075
    Two-Electron Energy =                1023.3209418750983559
    Total Energy =                       -852.0602077901959319
  Basis Set: (AUG-CC-PVTZ AUX)
    Blend: AUG-CC-PVTZ-RI
    Molecular point group: c1

    Geometry (in Angstrom), charge = 0, multiplicity = 1:

       Center              X                  Y                   Z               Mass
    ------------   -----------------  -----------------  -----------------  -----------------
         S            2.249635405244    -0.994347354846     0.005662044219    31.972071174400
         N           -0.666944594756    -1.437942354846     0.002835044219    14.003074004430
         N            1.483426405244     1.479351645154    -0.005099955781    14.003074004430
         C           -2.722182594756     0.506966645154    -0.012916955781    12.000000000000
         C           -0.389375994756    -0.097564954846    -0.001282155781    12.000000000000
         C           -1.378001594756     0.879196645154    -0.007669955781    12.000000000000
         C            1.025472405244     0.236861645154    -0.001024955781    12.000000000000
         C           -3.010431594756    -0.864081354846    -0.007329955781    12.000000000000
         C           -3.819288594756     1.536228645154     0.014638044219    12.000000000000
         C           -1.964245594756    -1.785486354846    -0.000694955781    12.000000000000
         C            3.443812405244     0.234187645154     0.002816044219    12.000000000000
         C            2.851078405244     1.477587645154    -0.003063955781    12.000000000000
         H           -1.072800594756     1.922633645154    -0.014785955781     1.007825032230
         H           -4.040694594756    -1.213623354846    -0.014769955781     1.007825032230
         H           -4.160173594756     1.712051645154     1.040500044219     1.007825032230
         H           -3.471723594756     2.489873645154    -0.390941955781     1.007825032230
         H           -4.682268594756     1.206079645154    -0.570487955781     1.007825032230
         H           -2.167167594756    -2.855229354846    -0.000129955781     1.007825032230
         H            4.499956405244    -0.002946354846     0.005245044219     1.007825032230
         H            3.385691405244     2.421444645154    -0.005975955781     1.007825032230

  Basis Set: AUG-CC-PVTZ
    Blend: AUG-CC-PVTZ
  Basis Set: (AUG-CC-PVTZ AUX)
    Blend: AUG-CC-PVTZ-JKFIT
	 Reference Energy          =    -852.0602077901959319 [Eh]
	 Singles Energy            =      -0.0000000000000000 [Eh]
	 Same-Spin Energy          =      -0.5693851041414959 [Eh]
	 Opposite-Spin Energy      =      -1.7098228001346341 [Eh]
	 Correlation Energy        =      -2.2792079042761300 [Eh]
	 Total Energy              =    -854.3394156944721090 [Eh]

	 ================> DF-SCS-MP2 Energies <==================
	-----------------------------------------------------------
	 SCS Same-Spin Scale       =       0.3333333333333333 [-]
	 SCS Opposite-Spin Scale   =       1.2000000000000000 [-]
	 SCS Same-Spin Energy      =      -0.1897950347138320 [Eh]
	 SCS Opposite-Spin Energy  =      -2.0517873601615606 [Eh]
	 SCS Correlation Energy    =      -2.2415823948753926 [Eh]
	 SCS Total Energy          =    -854.3017901850713542 [Eh]
	-----------------------------------------------------------

  Dipole Moment: [D]
     X:    -1.2584      Y:     0.4001      Z:     0.0420     Total:     1.3211

*** Psi4 exiting successfully. Buy a developer a beer!
