                               Psi4 1.4a3.dev225

  ==> Input File <==

--------------------------------------------------------------------------
#psi4
#
memory 32 gb

molecule  {
0 1
  S        2.3127110    -1.0235480     0.0053950
  N       -0.6038690    -1.4671430     0.0025680
  N        1.5465020     1.4501510    -0.0053670
  C       -2.6591070     0.4777660    -0.0131840
  C       -0.3303560    -0.1463500    -0.0014890
  C       -1.3149260     0.8499960    -0.0079370
  C        1.0885480     0.2076610    -0.0012920
  C       -2.9473560    -0.8932820    -0.0075970
  C       -3.7562130     1.5070280     0.0143710
  C       -1.9011700    -1.8146870    -0.0009620
  C        3.5417384     0.2408401     0.0024659
  C        2.9141540     1.4483870    -0.0033310
  H       -1.0097250     1.8934330    -0.0150530
  H       -3.9776190    -1.2428240    -0.0150370
  H       -4.0970980     1.6828510     1.0402330
  H       -3.4086480     2.4606730    -0.3912090
  H       -4.6191930     1.1768790    -0.5707550
  H       -2.1040920    -2.8844300    -0.0003970
  H        4.5630320    -0.0321470     0.0049780
  H        3.4487670     2.3922440    -0.0062430
units angstrom
no_reorient  #important for SAPT in psi4, default
symmetry c1  #important for SAPT in psi4, default
}

set PROPERTIES_ORIGIN ["COM"]
properties('MP2/aug-cc-pvtz', properties = ['dipole'])
--------------------------------------------------------------------------

    Molecular point group: c1
  Charge       = 0
  Multiplicity = 1
  Basis Set: AUG-CC-PVTZ
    Blend: AUG-CC-PVTZ
  Basis Set: (AUG-CC-PVTZ AUX)
    Blend: AUG-CC-PVTZ-JKFIT

    Orbital Energies [Eh]
    ---------------------

    Doubly Occupied:

       1A    -91.991339     2A    -15.573047     3A    -15.571637
       4A    -11.314541     5A    -11.294573     6A    -11.282520
       7A    -11.272327     8A    -11.268038     9A    -11.262548
      10A    -11.244696    11A    -11.243284    12A    -11.240358
      13A     -8.990637    14A     -6.671368    15A     -6.670808
      16A     -6.670192    17A     -1.284226    18A     -1.256840
      19A     -1.114713    20A     -1.065454    21A     -1.053216
      22A     -0.987134    23A     -0.973479    24A     -0.873128
      25A     -0.845735    26A     -0.786698    27A     -0.749088
      28A     -0.699436    29A     -0.680044    30A     -0.673250
      31A     -0.634376    32A     -0.596373    33A     -0.588142
      34A     -0.574134    35A     -0.571830    36A     -0.562631
      37A     -0.549349    38A     -0.526192    39A     -0.515482
      40A     -0.490983    41A     -0.441515    42A     -0.420547
      43A     -0.390433    44A     -0.381988    45A     -0.367120
      46A     -0.309150

  @DF-RHF Final Energy:  -852.06092362589902

   => Energetics <=

    Nuclear Repulsion Energy =            719.4177550723361492
    One-Electron Energy =               -2593.9081630000582663
    Two-Electron Energy =                1022.4294843018230949
    Total Energy =                       -852.0609236258990222
  Basis Set: (AUG-CC-PVTZ AUX)
    Blend: AUG-CC-PVTZ-RI
    Molecular point group: c1

    Geometry (in Angstrom), charge = 0, multiplicity = 1:

       Center              X                  Y                   Z               Mass
    ------------   -----------------  -----------------  -----------------  -----------------
         S            2.247536246645    -0.995456327189     0.005663605221    31.972071174400
         N           -0.669043753355    -1.439051327189     0.002836605221    14.003074004430
         N            1.481327246645     1.478242672811    -0.005098394779    14.003074004430
         C           -2.724281753355     0.505857672811    -0.012915394779    12.000000000000
         C           -0.395530753355    -0.118258327189    -0.001220394779    12.000000000000
         C           -1.380100753355     0.878087672811    -0.007668394779    12.000000000000
         C            1.023373246645     0.235752672811    -0.001023394779    12.000000000000
         C           -3.012530753355    -0.865190327189    -0.007328394779    12.000000000000
         C           -3.821387753355     1.535119672811     0.014639605221    12.000000000000
         C           -1.966344753355    -1.786595327189    -0.000693394779    12.000000000000
         C            3.476563646645     0.268931772811     0.002734505221    12.000000000000
         C            2.848979246645     1.476478672811    -0.003062394779    12.000000000000
         H           -1.074899753355     1.921524672811    -0.014784394779     1.007825032230
         H           -4.042793753355    -1.214732327189    -0.014768394779     1.007825032230
         H           -4.162272753355     1.710942672811     1.040501605221     1.007825032230
         H           -3.473822753355     2.488764672811    -0.390940394779     1.007825032230
         H           -4.684367753355     1.204970672811    -0.570486394779     1.007825032230
         H           -2.169266753355    -2.856338327189    -0.000128394779     1.007825032230
         H            4.497857246645    -0.004055327189     0.005246605221     1.007825032230
         H            3.383592246645     2.420335672811    -0.005974394779     1.007825032230

  Basis Set: AUG-CC-PVTZ
    Blend: AUG-CC-PVTZ
  Basis Set: (AUG-CC-PVTZ AUX)
    Blend: AUG-CC-PVTZ-JKFIT
	 Reference Energy          =    -852.0609236258990222 [Eh]
	 Singles Energy            =      -0.0000000000000000 [Eh]
	 Same-Spin Energy          =      -0.5682409969958468 [Eh]
	 Opposite-Spin Energy      =      -1.7087233459979303 [Eh]
	 Correlation Energy        =      -2.2769643429937769 [Eh]
	 Total Energy              =    -854.3378879688928009 [Eh]

	 ================> DF-SCS-MP2 Energies <==================
	-----------------------------------------------------------
	 SCS Same-Spin Scale       =       0.3333333333333333 [-]
	 SCS Opposite-Spin Scale   =       1.2000000000000000 [-]
	 SCS Same-Spin Energy      =      -0.1894136656652823 [Eh]
	 SCS Opposite-Spin Energy  =      -2.0504680151975161 [Eh]
	 SCS Correlation Energy    =      -2.2398816808627982 [Eh]
	 SCS Total Energy          =    -854.3008053067618448 [Eh]
	-----------------------------------------------------------

  Dipole Moment: [D]
     X:    -1.3454      Y:     0.4290      Z:     0.0419     Total:     1.4127

*** Psi4 exiting successfully. Buy a developer a beer!
