                               Psi4 1.4a3.dev225

  ==> Input File <==

--------------------------------------------------------------------------
#psi4
#
memory 32 gb

molecule  {
0 1
  S        2.3127110    -1.0235480     0.0053950
  N       -0.6038690    -1.4671430     0.0025680
  N        1.5465020     1.4501510    -0.0053670
  C       -2.6591070     0.4777660    -0.0131840
  C       -0.3303560    -0.1463500    -0.0014890
  C       -1.3149260     0.8499960    -0.0079370
  C        1.0885480     0.2076610    -0.0012920
  C       -2.9473560    -0.8932820    -0.0075970
  C       -3.7562130     1.5070280     0.0143710
  C       -1.9011700    -1.8146870    -0.0009620
  C        3.5068880     0.2049870     0.0025490
  C        2.9141540     1.4483870    -0.0033310
  H       -1.0097250     1.8934330    -0.0150530
  H       -3.9776190    -1.2428240    -0.0150370
  H       -4.0970980     1.6828510     1.0402330
  H       -3.4086480     2.4606730    -0.3912090
  H       -4.6191930     1.1768790    -0.5707550
  H       -2.1003646    -2.8647804    -0.0004074
  H        4.5630320    -0.0321470     0.0049780
  H        3.4487670     2.3922440    -0.0062430
units angstrom
no_reorient  #important for SAPT in psi4, default
symmetry c1  #important for SAPT in psi4, default
}

set PROPERTIES_ORIGIN ["COM"]
properties('MP2/aug-cc-pvtz', properties = ['dipole'])
--------------------------------------------------------------------------

    Molecular point group: c1
  Charge       = 0
  Multiplicity = 1
  Basis Set: AUG-CC-PVTZ
    Blend: AUG-CC-PVTZ
  Basis Set: (AUG-CC-PVTZ AUX)
    Blend: AUG-CC-PVTZ-JKFIT

    Orbital Energies [Eh]
    ---------------------

    Doubly Occupied:

       1A    -91.993719     2A    -15.572379     3A    -15.571728
       4A    -11.311684     5A    -11.293828     6A    -11.279599
       7A    -11.271502     8A    -11.268439     9A    -11.263301
      10A    -11.243264    11A    -11.241939    12A    -11.239727
      13A     -8.993708    14A     -6.674474    15A     -6.673923
      16A     -6.673262    17A     -1.284724    18A     -1.256572
      19A     -1.113794    20A     -1.065470    21A     -1.060435
      22A     -0.984542    23A     -0.972332    24A     -0.872263
      25A     -0.845199    26A     -0.784119    27A     -0.750005
      28A     -0.697626    29A     -0.679050    30A     -0.671288
      31A     -0.636687    32A     -0.595802    33A     -0.587962
      34A     -0.572588    35A     -0.571392    36A     -0.561803
      37A     -0.547072    38A     -0.526340    39A     -0.515574
      40A     -0.500502    41A     -0.441337    42A     -0.421310
      43A     -0.393494    44A     -0.381573    45A     -0.366300
      46A     -0.304931

  @DF-RHF Final Energy:  -852.06171152143224

   => Energetics <=

    Nuclear Repulsion Energy =            720.4706648156804931
    One-Electron Energy =               -2596.0076314387806633
    Two-Electron Energy =                1023.4752551016679263
    Total Energy =                       -852.0617115214322439
  Basis Set: (AUG-CC-PVTZ AUX)
    Blend: AUG-CC-PVTZ-RI
    Molecular point group: c1

    Geometry (in Angstrom), charge = 0, multiplicity = 1:

       Center              X                  Y                   Z               Mass
    ------------   -----------------  -----------------  -----------------  -----------------
         S            2.249890520127    -0.993124857462     0.005658000165    31.972071174400
         N           -0.666689479873    -1.436719857462     0.002831000165    14.003074004430
         N            1.483681520127     1.480574142538    -0.005103999835    14.003074004430
         C           -2.721927479873     0.508189142538    -0.012920999835    12.000000000000
         C           -0.393176479873    -0.115926857462    -0.001225999835    12.000000000000
         C           -1.377746479873     0.880419142538    -0.007673999835    12.000000000000
         C            1.025727520127     0.238084142538    -0.001028999835    12.000000000000
         C           -3.010176479873    -0.862858857462    -0.007333999835    12.000000000000
         C           -3.819033479873     1.537451142538     0.014634000165    12.000000000000
         C           -1.963990479873    -1.784263857462    -0.000698999835    12.000000000000
         C            3.444067520127     0.235410142538     0.002812000165    12.000000000000
         C            2.851333520127     1.478810142538    -0.003067999835    12.000000000000
         H           -1.072545479873     1.923856142538    -0.014789999835     1.007825032230
         H           -4.040439479873    -1.212400857462    -0.014773999835     1.007825032230
         H           -4.159918479873     1.713274142538     1.040496000165     1.007825032230
         H           -3.471468479873     2.491096142538    -0.390945999835     1.007825032230
         H           -4.682013479873     1.207302142538    -0.570491999835     1.007825032230
         H           -2.163185079873    -2.834357257462    -0.000144399835     1.007825032230
         H            4.500211520127    -0.001723857462     0.005241000165     1.007825032230
         H            3.385946520127     2.422667142538    -0.005979999835     1.007825032230

  Basis Set: AUG-CC-PVTZ
    Blend: AUG-CC-PVTZ
  Basis Set: (AUG-CC-PVTZ AUX)
    Blend: AUG-CC-PVTZ-JKFIT
	 Reference Energy          =    -852.0617115214322439 [Eh]
	 Singles Energy            =      -0.0000000000000000 [Eh]
	 Same-Spin Energy          =      -0.5690990651306508 [Eh]
	 Opposite-Spin Energy      =      -1.7091108920412075 [Eh]
	 Correlation Energy        =      -2.2782099571718581 [Eh]
	 Total Energy              =    -854.3399214786040829 [Eh]

	 ================> DF-SCS-MP2 Energies <==================
	-----------------------------------------------------------
	 SCS Same-Spin Scale       =       0.3333333333333333 [-]
	 SCS Opposite-Spin Scale   =       1.2000000000000000 [-]
	 SCS Same-Spin Energy      =      -0.1896996883768836 [Eh]
	 SCS Opposite-Spin Energy  =      -2.0509330704494491 [Eh]
	 SCS Correlation Energy    =      -2.2406327588263326 [Eh]
	 SCS Total Energy          =    -854.3023442802585805 [Eh]
	-----------------------------------------------------------

  Dipole Moment: [D]
     X:    -1.2858      Y:     0.3874      Z:     0.0421     Total:     1.3436

*** Psi4 exiting successfully. Buy a developer a beer!
