                               Psi4 1.4a3.dev225

  ==> Input File <==

--------------------------------------------------------------------------
#psi4
#
memory 32 gb

molecule  {
0 1
  S        2.3127110    -1.0235480     0.0053950
  N       -0.6038690    -1.4671430     0.0025680
  N        1.5465020     1.4501510    -0.0053670
  C       -2.6591070     0.4777660    -0.0131840
  C       -0.3303560    -0.1463500    -0.0014890
  C       -1.3149260     0.8499960    -0.0079370
  C        1.0954647     0.2264268    -0.0013535
  C       -2.9473560    -0.8932820    -0.0075970
  C       -3.7562130     1.5070280     0.0143710
  C       -1.9011700    -1.8146870    -0.0009620
  C        3.5068880     0.2049870     0.0025490
  C        2.9141540     1.4483870    -0.0033310
  H       -1.0097250     1.8934330    -0.0150530
  H       -3.9776190    -1.2428240    -0.0150370
  H       -4.0970980     1.6828510     1.0402330
  H       -3.4086480     2.4606730    -0.3912090
  H       -4.6191930     1.1768790    -0.5707550
  H       -2.1040920    -2.8844300    -0.0003970
  H        4.5630320    -0.0321470     0.0049780
  H        3.4487670     2.3922440    -0.0062430
units angstrom
no_reorient  #important for SAPT in psi4, default
symmetry c1  #important for SAPT in psi4, default
}

set PROPERTIES_ORIGIN ["COM"]
properties('MP2/aug-cc-pvtz', properties = ['dipole'])
--------------------------------------------------------------------------

    Molecular point group: c1
  Charge       = 0
  Multiplicity = 1
  Basis Set: AUG-CC-PVTZ
    Blend: AUG-CC-PVTZ
  Basis Set: (AUG-CC-PVTZ AUX)
    Blend: AUG-CC-PVTZ-JKFIT

    Orbital Energies [Eh]
    ---------------------

    Doubly Occupied:

       1A    -91.992016     2A    -15.572197     3A    -15.571639
       4A    -11.311322     5A    -11.294645     6A    -11.282067
       7A    -11.271579     8A    -11.268343     9A    -11.263614
      10A    -11.243405    11A    -11.241760    12A    -11.239795
      13A     -8.992040    14A     -6.672811    15A     -6.672229
      16A     -6.671564    17A     -1.288939    18A     -1.258090
      19A     -1.113782    20A     -1.065823    21A     -1.059370
      22A     -0.984178    23A     -0.972380    24A     -0.870762
      25A     -0.843660    26A     -0.786341    27A     -0.748422
      28A     -0.697925    29A     -0.679076    30A     -0.671381
      31A     -0.634087    32A     -0.595931    33A     -0.588460
      34A     -0.573838    35A     -0.570990    36A     -0.562040
      37A     -0.546764    38A     -0.527110    39A     -0.514576
      40A     -0.500115    41A     -0.441920    42A     -0.420131
      43A     -0.395170    44A     -0.381063    45A     -0.365824
      46A     -0.306319

  @DF-RHF Final Energy:  -852.06265453862807

   => Energetics <=

    Nuclear Repulsion Energy =            720.3435160738581544
    One-Electron Energy =               -2595.7613543915085756
    Two-Electron Energy =                1023.3551837790223544
    Total Energy =                       -852.0626545386280668
  Basis Set: (AUG-CC-PVTZ AUX)
    Blend: AUG-CC-PVTZ-RI
    Molecular point group: c1

    Geometry (in Angstrom), charge = 0, multiplicity = 1:

       Center              X                  Y                   Z               Mass
    ------------   -----------------  -----------------  -----------------  -----------------
         S            2.249440375477    -0.994291554151     0.005662132835    31.972071174400
         N           -0.667139624523    -1.437886554151     0.002835132835    14.003074004430
         N            1.483231375477     1.479407445849    -0.005099867165    14.003074004430
         C           -2.722377624523     0.507022445849    -0.012916867165    12.000000000000
         C           -0.393626624523    -0.117093554151    -0.001221867165    12.000000000000
         C           -1.378196624523     0.879252445849    -0.007669867165    12.000000000000
         C            1.032194075477     0.255683245849    -0.001086367165    12.000000000000
         C           -3.010626624523    -0.864025554151    -0.007329867165    12.000000000000
         C           -3.819483624523     1.536284445849     0.014638132835    12.000000000000
         C           -1.964440624523    -1.785430554151    -0.000694867165    12.000000000000
         C            3.443617375477     0.234243445849     0.002816132835    12.000000000000
         C            2.850883375477     1.477643445849    -0.003063867165    12.000000000000
         H           -1.072995624523     1.922689445849    -0.014785867165     1.007825032230
         H           -4.040889624523    -1.213567554151    -0.014769867165     1.007825032230
         H           -4.160368624523     1.712107445849     1.040500132835     1.007825032230
         H           -3.471918624523     2.489929445849    -0.390941867165     1.007825032230
         H           -4.682463624523     1.206135445849    -0.570487867165     1.007825032230
         H           -2.167362624523    -2.855173554151    -0.000129867165     1.007825032230
         H            4.499761375477    -0.002890554151     0.005245132835     1.007825032230
         H            3.385496375477     2.421500445849    -0.005975867165     1.007825032230

  Basis Set: AUG-CC-PVTZ
    Blend: AUG-CC-PVTZ
  Basis Set: (AUG-CC-PVTZ AUX)
    Blend: AUG-CC-PVTZ-JKFIT
	 Reference Energy          =    -852.0626545386280668 [Eh]
	 Singles Energy            =      -0.0000000000000000 [Eh]
	 Same-Spin Energy          =      -0.5685265449518893 [Eh]
	 Opposite-Spin Energy      =      -1.7084136431240524 [Eh]
	 Correlation Energy        =      -2.2769401880759417 [Eh]
	 Total Energy              =    -854.3395947267040356 [Eh]

	 ================> DF-SCS-MP2 Energies <==================
	-----------------------------------------------------------
	 SCS Same-Spin Scale       =       0.3333333333333333 [-]
	 SCS Opposite-Spin Scale   =       1.2000000000000000 [-]
	 SCS Same-Spin Energy      =      -0.1895088483172964 [Eh]
	 SCS Opposite-Spin Energy  =      -2.0500963717488627 [Eh]
	 SCS Correlation Energy    =      -2.2396052200661591 [Eh]
	 SCS Total Energy          =    -854.3022597586942766 [Eh]
	-----------------------------------------------------------

  Dipole Moment: [D]
     X:    -1.3304      Y:     0.4265      Z:     0.0419     Total:     1.3977

*** Psi4 exiting successfully. Buy a developer a beer!
