                               Psi4 1.4a3.dev225

  ==> Input File <==

--------------------------------------------------------------------------
#psi4
#
memory 32 gb

molecule  {
0 1
  S        2.3127110    -1.0235480     0.0053950
  N       -0.6038690    -1.4671430     0.0025680
  N        1.5465020     1.4501510    -0.0053670
  C       -2.6591070     0.4777660    -0.0131840
  C       -0.3303560    -0.1463500    -0.0014890
  C       -1.3149260     0.8499960    -0.0079370
  C        1.0885480     0.2076610    -0.0012920
  C       -2.9473560    -0.8932820    -0.0075970
  C       -3.7562130     1.5070280     0.0143710
  C       -1.9011700    -1.8146870    -0.0009620
  C        3.5068880     0.2049870     0.0025490
  C        2.9141540     1.4483870    -0.0033310
  H       -1.0097250     1.8934330    -0.0150530
  H       -3.9302710    -1.2267600    -0.0146951
  H       -4.0970980     1.6828510     1.0402330
  H       -3.4086480     2.4606730    -0.3912090
  H       -4.6191930     1.1768790    -0.5707550
  H       -2.1040920    -2.8844300    -0.0003970
  H        4.5630320    -0.0321470     0.0049780
  H        3.4487670     2.3922440    -0.0062430
units angstrom
no_reorient  #important for SAPT in psi4, default
symmetry c1  #important for SAPT in psi4, default
}

set PROPERTIES_ORIGIN ["COM"]
properties('MP2/aug-cc-pvtz', properties = ['dipole'])
--------------------------------------------------------------------------

    Molecular point group: c1
  Charge       = 0
  Multiplicity = 1
  Basis Set: AUG-CC-PVTZ
    Blend: AUG-CC-PVTZ
  Basis Set: (AUG-CC-PVTZ AUX)
    Blend: AUG-CC-PVTZ-JKFIT

    Orbital Energies [Eh]
    ---------------------

    Doubly Occupied:

       1A    -91.993662     2A    -15.572322     3A    -15.571545
       4A    -11.311623     5A    -11.293796     6A    -11.281513
       7A    -11.271163     8A    -11.268387     9A    -11.263249
      10A    -11.241632    11A    -11.239823    12A    -11.237559
      13A     -8.993649    14A     -6.674415    15A     -6.673864
      16A     -6.673203    17A     -1.284625    18A     -1.256380
      19A     -1.114286    20A     -1.065524    21A     -1.060310
      22A     -0.985533    23A     -0.972416    24A     -0.874165
      25A     -0.843665    26A     -0.783880    27A     -0.749863
      28A     -0.698777    29A     -0.680393    30A     -0.676105
      31A     -0.634303    32A     -0.595825    33A     -0.589152
      34A     -0.572554    35A     -0.571433    36A     -0.563521
      37A     -0.546892    38A     -0.526220    39A     -0.516223
      40A     -0.500364    41A     -0.441177    42A     -0.421113
      43A     -0.393413    44A     -0.381453    45A     -0.366139
      46A     -0.304859

  @DF-RHF Final Energy:  -852.06082169465412

   => Energetics <=

    Nuclear Repulsion Energy =            720.6375737116619575
    One-Electron Energy =               -2596.3328519087608584
    Two-Electron Energy =                1023.6344565024448912
    Total Energy =                       -852.0608216946541233
  Basis Set: (AUG-CC-PVTZ AUX)
    Blend: AUG-CC-PVTZ-RI
    Molecular point group: c1

    Geometry (in Angstrom), charge = 0, multiplicity = 1:

       Center              X                  Y                   Z               Mass
    ------------   -----------------  -----------------  -----------------  -----------------
         S            2.249640794338    -0.993104330078     0.005655983265    31.972071174400
         N           -0.666939205662    -1.436699330078     0.002828983265    14.003074004430
         N            1.483431794338     1.480594669922    -0.005106016735    14.003074004430
         C           -2.722177205662     0.508209669922    -0.012923016735    12.000000000000
         C           -0.393426205662    -0.115906330078    -0.001228016735    12.000000000000
         C           -1.377996205662     0.880439669922    -0.007676016735    12.000000000000
         C            1.025477794338     0.238104669922    -0.001031016735    12.000000000000
         C           -3.010426205662    -0.862838330078    -0.007336016735    12.000000000000
         C           -3.819283205662     1.537471669922     0.014631983265    12.000000000000
         C           -1.964240205662    -1.784243330078    -0.000701016735    12.000000000000
         C            3.443817794338     0.235430669922     0.002809983265    12.000000000000
         C            2.851083794338     1.478830669922    -0.003070016735    12.000000000000
         H           -1.072795205662     1.923876669922    -0.014792016735     1.007825032230
         H           -3.993341205662    -1.196316330078    -0.014434116735     1.007825032230
         H           -4.160168205662     1.713294669922     1.040493983265     1.007825032230
         H           -3.471718205662     2.491116669922    -0.390948016735     1.007825032230
         H           -4.682263205662     1.207322669922    -0.570494016735     1.007825032230
         H           -2.167162205662    -2.853986330078    -0.000136016735     1.007825032230
         H            4.499961794338    -0.001703330078     0.005238983265     1.007825032230
         H            3.385696794338     2.422687669922    -0.005982016735     1.007825032230

  Basis Set: AUG-CC-PVTZ
    Blend: AUG-CC-PVTZ
  Basis Set: (AUG-CC-PVTZ AUX)
    Blend: AUG-CC-PVTZ-JKFIT
	 Reference Energy          =    -852.0608216946541233 [Eh]
	 Singles Energy            =      -0.0000000000000000 [Eh]
	 Same-Spin Energy          =      -0.5690407002758135 [Eh]
	 Opposite-Spin Energy      =      -1.7089331599517130 [Eh]
	 Correlation Energy        =      -2.2779738602275268 [Eh]
	 Total Energy              =    -854.3387955548816990 [Eh]

	 ================> DF-SCS-MP2 Energies <==================
	-----------------------------------------------------------
	 SCS Same-Spin Scale       =       0.3333333333333333 [-]
	 SCS Opposite-Spin Scale   =       1.2000000000000000 [-]
	 SCS Same-Spin Energy      =      -0.1896802334252712 [Eh]
	 SCS Opposite-Spin Energy  =      -2.0507197919420554 [Eh]
	 SCS Correlation Energy    =      -2.2404000253673266 [Eh]
	 SCS Total Energy          =    -854.3012217200214309 [Eh]
	-----------------------------------------------------------

  Dipole Moment: [D]
     X:    -1.2962      Y:     0.3899      Z:     0.0419     Total:     1.3543

*** Psi4 exiting successfully. Buy a developer a beer!
