                               Psi4 1.4a3.dev225

  ==> Input File <==

--------------------------------------------------------------------------
#psi4
#
memory 32 gb

molecule  {
0 1
  S        2.3127110    -1.0235480     0.0053950
  N       -0.6038690    -1.4671430     0.0025680
  N        1.5465020     1.4501510    -0.0053670
  C       -2.6591070     0.4777660    -0.0131840
  C       -0.3303560    -0.1463500    -0.0014890
  C       -1.3149260     0.8499960    -0.0079370
  C        1.0885480     0.2076610    -0.0012920
  C       -2.9473560    -0.8932820    -0.0075970
  C       -3.7562130     1.5070280     0.0143710
  C       -1.9011700    -1.8146870    -0.0009620
  C        3.5068880     0.2049870     0.0025490
  C        3.1141536     1.4481290    -0.0030333
  H       -1.0097250     1.8934330    -0.0150530
  H       -3.9776190    -1.2428240    -0.0150370
  H       -4.0970980     1.6828510     1.0402330
  H       -3.4086480     2.4606730    -0.3912090
  H       -4.6191930     1.1768790    -0.5707550
  H       -2.1040920    -2.8844300    -0.0003970
  H        4.5630320    -0.0321470     0.0049780
  H        3.4487670     2.3922440    -0.0062430
units angstrom
no_reorient  #important for SAPT in psi4, default
symmetry c1  #important for SAPT in psi4, default
}

set PROPERTIES_ORIGIN ["COM"]
properties('MP2/aug-cc-pvtz', properties = ['dipole'])
--------------------------------------------------------------------------

    Molecular point group: c1
  Charge       = 0
  Multiplicity = 1
  Basis Set: AUG-CC-PVTZ
    Blend: AUG-CC-PVTZ
  Basis Set: (AUG-CC-PVTZ AUX)
    Blend: AUG-CC-PVTZ-JKFIT

    Orbital Energies [Eh]
    ---------------------

    Doubly Occupied:

       1A    -91.988102     2A    -15.574496     3A    -15.573549
       4A    -11.310592     5A    -11.294294     6A    -11.282050
       7A    -11.271684     8A    -11.266874     9A    -11.262662
      10A    -11.244612    11A    -11.242536    12A    -11.239890
      13A     -8.988812    14A     -6.669753    15A     -6.668961
      16A     -6.668144    17A     -1.272069    18A     -1.233742
      19A     -1.114197    20A     -1.073920    21A     -1.044289
      22A     -0.993589    23A     -0.973429    24A     -0.877957
      25A     -0.841645    26A     -0.787434    27A     -0.747734
      28A     -0.698482    29A     -0.680842    30A     -0.673745
      31A     -0.631009    32A     -0.595377    33A     -0.586605
      34A     -0.565351    35A     -0.564331    36A     -0.557967
      37A     -0.532176    38A     -0.527121    39A     -0.521181
      40A     -0.515008    41A     -0.435324    42A     -0.406839
      43A     -0.400853    44A     -0.376162    45A     -0.357468
      46A     -0.322867

  @DF-RHF Final Energy:  -852.02908876413699

   => Energetics <=

    Nuclear Repulsion Energy =            717.3040800682930467
    One-Electron Energy =               -2589.7548887768502937
    Two-Electron Energy =                1020.4217199444203743
    Total Energy =                       -852.0290887641369864
  Basis Set: (AUG-CC-PVTZ AUX)
    Blend: AUG-CC-PVTZ-RI
    Molecular point group: c1

    Geometry (in Angstrom), charge = 0, multiplicity = 1:

       Center              X                  Y                   Z               Mass
    ------------   -----------------  -----------------  -----------------  -----------------
         S            2.236278684869    -0.992994777638     0.005637647604    31.972071174400
         N           -0.680301315131    -1.436589777638     0.002810647604    14.003074004430
         N            1.470069684869     1.480704222362    -0.005124352396    14.003074004430
         C           -2.735539315131     0.508319222362    -0.012941352396    12.000000000000
         C           -0.406788315131    -0.115796777638    -0.001246352396    12.000000000000
         C           -1.391358315131     0.880549222362    -0.007694352396    12.000000000000
         C            1.012115684869     0.238214222362    -0.001049352396    12.000000000000
         C           -3.023788315131    -0.862728777638    -0.007354352396    12.000000000000
         C           -3.832645315131     1.537581222362     0.014613647604    12.000000000000
         C           -1.977602315131    -1.784133777638    -0.000719352396    12.000000000000
         C            3.430455684869     0.235540222362     0.002791647604    12.000000000000
         C            3.037721284869     1.478682222362    -0.002790652396    12.000000000000
         H           -1.086157315131     1.923986222362    -0.014810352396     1.007825032230
         H           -4.054051315131    -1.212270777638    -0.014794352396     1.007825032230
         H           -4.173530315131     1.713404222362     1.040475647604     1.007825032230
         H           -3.485080315131     2.491226222362    -0.390966352396     1.007825032230
         H           -4.695625315131     1.207432222362    -0.570512352396     1.007825032230
         H           -2.180524315131    -2.853876777638    -0.000154352396     1.007825032230
         H            4.486599684869    -0.001593777638     0.005220647604     1.007825032230
         H            3.372334684869     2.422797222362    -0.006000352396     1.007825032230

  Basis Set: AUG-CC-PVTZ
    Blend: AUG-CC-PVTZ
  Basis Set: (AUG-CC-PVTZ AUX)
    Blend: AUG-CC-PVTZ-JKFIT
	 Reference Energy          =    -852.0290887641369864 [Eh]
	 Singles Energy            =      -0.0000000000000000 [Eh]
	 Same-Spin Energy          =      -0.5661804139791276 [Eh]
	 Opposite-Spin Energy      =      -1.7103465447575186 [Eh]
	 Correlation Energy        =      -2.2765269587366461 [Eh]
	 Total Energy              =    -854.3056157228736538 [Eh]

	 ================> DF-SCS-MP2 Energies <==================
	-----------------------------------------------------------
	 SCS Same-Spin Scale       =       0.3333333333333333 [-]
	 SCS Opposite-Spin Scale   =       1.2000000000000000 [-]
	 SCS Same-Spin Energy      =      -0.1887268046597092 [Eh]
	 SCS Opposite-Spin Energy  =      -2.0524158537090220 [Eh]
	 SCS Correlation Energy    =      -2.2411426583687311 [Eh]
	 SCS Total Energy          =    -854.2702314225057307 [Eh]
	-----------------------------------------------------------

  Dipole Moment: [D]
     X:    -1.5043      Y:     0.4953      Z:     0.0414     Total:     1.5843

*** Psi4 exiting successfully. Buy a developer a beer!
