                               Psi4 1.4a3.dev225

  ==> Input File <==

--------------------------------------------------------------------------
#psi4
#
memory 32 gb

molecule  {
0 1
  S        2.3127110    -1.0235480     0.0053950
  N       -0.6038690    -1.4671430     0.0025680
  N        1.5465020     1.4501510    -0.0053670
  C       -2.6591070     0.4777660    -0.0131840
  C       -0.3303560    -0.1463500    -0.0014890
  C       -1.3149260     0.8499960    -0.0079370
  C        1.0885480     0.2076610    -0.0012920
  C       -2.9473560    -0.8932820    -0.0075970
  C       -3.7562130     1.5070280     0.0143710
  C       -1.9011700    -1.8146870    -0.0009620
  C        3.5068880     0.2049870     0.0025490
  C        2.9141540     1.4483870    -0.0033310
  H       -1.0097250     1.8934330    -0.0150530
  H       -3.9776190    -1.2428240    -0.0150370
  H       -4.0970980     1.6828510     1.0402330
  H       -3.4086480     2.4606730    -0.3912090
  H       -4.6191930     1.1768790    -0.5707550
  H       -2.1040920    -2.8844300    -0.0003970
  H        4.5630320    -0.0321470     0.0049780
  H        3.4241248     2.3487383    -0.0061088
units angstrom
no_reorient  #important for SAPT in psi4, default
symmetry c1  #important for SAPT in psi4, default
}

set PROPERTIES_ORIGIN ["COM"]
properties('MP2/aug-cc-pvtz', properties = ['dipole'])
--------------------------------------------------------------------------

    Molecular point group: c1
  Charge       = 0
  Multiplicity = 1
  Basis Set: AUG-CC-PVTZ
    Blend: AUG-CC-PVTZ
  Basis Set: (AUG-CC-PVTZ AUX)
    Blend: AUG-CC-PVTZ-JKFIT

    Orbital Energies [Eh]
    ---------------------

    Doubly Occupied:

       1A    -91.993551     2A    -15.572021     3A    -15.571784
       4A    -11.311411     5A    -11.293838     6A    -11.281817
       7A    -11.271532     8A    -11.263696     9A    -11.262237
      10A    -11.243336    11A    -11.241882    12A    -11.239738
      13A     -8.993547    14A     -6.674313    15A     -6.673763
      16A     -6.673104    17A     -1.284601    18A     -1.256502
      19A     -1.113809    20A     -1.065398    21A     -1.060245
      22A     -0.986046    23A     -0.972495    24A     -0.872947
      25A     -0.843783    26A     -0.787365    27A     -0.750878
      28A     -0.698393    29A     -0.680310    30A     -0.672380
      31A     -0.636270    32A     -0.595790    33A     -0.590013
      34A     -0.572458    35A     -0.571694    36A     -0.561820
      37A     -0.546876    38A     -0.526291    39A     -0.515010
      40A     -0.502226    41A     -0.441272    42A     -0.421077
      43A     -0.393364    44A     -0.381546    45A     -0.366261
      46A     -0.304887

  @DF-RHF Final Energy:  -852.06076965242119

   => Energetics <=

    Nuclear Repulsion Energy =            720.6439351295318829
    One-Electron Energy =               -2596.3422526561166706
    Two-Electron Energy =                1023.6375478741636016
    Total Energy =                       -852.0607696524211860
  Basis Set: (AUG-CC-PVTZ AUX)
    Blend: AUG-CC-PVTZ-RI
    Molecular point group: c1

    Geometry (in Angstrom), charge = 0, multiplicity = 1:

       Center              X                  Y                   Z               Mass
    ------------   -----------------  -----------------  -----------------  -----------------
         S            2.250052934691    -0.992763296476     0.005657172337    31.972071174400
         N           -0.666527065309    -1.436358296476     0.002830172337    14.003074004430
         N            1.483843934691     1.480935703524    -0.005104827663    14.003074004430
         C           -2.721765065309     0.508550703524    -0.012921827663    12.000000000000
         C           -0.393014065309    -0.115565296476    -0.001226827663    12.000000000000
         C           -1.377584065309     0.880780703524    -0.007674827663    12.000000000000
         C            1.025889934691     0.238445703524    -0.001029827663    12.000000000000
         C           -3.010014065309    -0.862497296476    -0.007334827663    12.000000000000
         C           -3.818871065309     1.537812703524     0.014633172337    12.000000000000
         C           -1.963828065309    -1.783902296476    -0.000699827663    12.000000000000
         C            3.444229934691     0.235771703524     0.002811172337    12.000000000000
         C            2.851495934691     1.479171703524    -0.003068827663    12.000000000000
         H           -1.072383065309     1.924217703524    -0.014790827663     1.007825032230
         H           -4.040277065309    -1.212039296476    -0.014774827663     1.007825032230
         H           -4.159756065309     1.713635703524     1.040495172337     1.007825032230
         H           -3.471306065309     2.491457703524    -0.390946827663     1.007825032230
         H           -4.681851065309     1.207663703524    -0.570492827663     1.007825032230
         H           -2.166750065309    -2.853645296476    -0.000134827663     1.007825032230
         H            4.500373934691    -0.001362296476     0.005240172337     1.007825032230
         H            3.361466734691     2.379523003524    -0.005846627663     1.007825032230

  Basis Set: AUG-CC-PVTZ
    Blend: AUG-CC-PVTZ
  Basis Set: (AUG-CC-PVTZ AUX)
    Blend: AUG-CC-PVTZ-JKFIT
	 Reference Energy          =    -852.0607696524211860 [Eh]
	 Singles Energy            =      -0.0000000000000000 [Eh]
	 Same-Spin Energy          =      -0.5690404707569994 [Eh]
	 Opposite-Spin Energy      =      -1.7089939935617018 [Eh]
	 Correlation Energy        =      -2.2780344643187012 [Eh]
	 Total Energy              =    -854.3388041167398796 [Eh]

	 ================> DF-SCS-MP2 Energies <==================
	-----------------------------------------------------------
	 SCS Same-Spin Scale       =       0.3333333333333333 [-]
	 SCS Opposite-Spin Scale   =       1.2000000000000000 [-]
	 SCS Same-Spin Energy      =      -0.1896801569189998 [Eh]
	 SCS Opposite-Spin Energy  =      -2.0507927922740419 [Eh]
	 SCS Correlation Energy    =      -2.2404729491930415 [Eh]
	 SCS Total Energy          =    -854.3012426016142626 [Eh]
	-----------------------------------------------------------

  Dipole Moment: [D]
     X:    -1.2674      Y:     0.3986      Z:     0.0420     Total:     1.3293

*** Psi4 exiting successfully. Buy a developer a beer!
