                               Psi4 1.4a3.dev225

  ==> Input File <==

--------------------------------------------------------------------------
#psi4
#
memory 32 gb

molecule  {
0 1
  S        2.3127110    -1.0235480     0.0053950
  N       -0.6038690    -1.4671430     0.0025680
  N        1.5465020     1.4501510    -0.0053670
  C       -2.6591070     0.4777660    -0.0131840
  C       -0.3303560    -0.1463500    -0.0014890
  C       -1.3149260     0.8499960    -0.0079370
  C        1.0180410     0.2785738    -0.0016771
  C       -2.9473560    -0.8932820    -0.0075970
  C       -3.7562130     1.5070280     0.0143710
  C       -1.9011700    -1.8146870    -0.0009620
  C        3.5068880     0.2049870     0.0025490
  C        2.9141540     1.4483870    -0.0033310
  H       -1.0097250     1.8934330    -0.0150530
  H       -3.9776190    -1.2428240    -0.0150370
  H       -4.0970980     1.6828510     1.0402330
  H       -3.4086480     2.4606730    -0.3912090
  H       -4.6191930     1.1768790    -0.5707550
  H       -2.1040920    -2.8844300    -0.0003970
  H        4.5630320    -0.0321470     0.0049780
  H        3.4487670     2.3922440    -0.0062430
units angstrom
no_reorient  #important for SAPT in psi4, default
symmetry c1  #important for SAPT in psi4, default
}

set PROPERTIES_ORIGIN ["COM"]
properties('MP2/aug-cc-pvtz', properties = ['dipole'])
--------------------------------------------------------------------------

    Molecular point group: c1
  Charge       = 0
  Multiplicity = 1
  Basis Set: AUG-CC-PVTZ
    Blend: AUG-CC-PVTZ
  Basis Set: (AUG-CC-PVTZ AUX)
    Blend: AUG-CC-PVTZ-JKFIT

    Orbital Energies [Eh]
    ---------------------

    Doubly Occupied:

       1A    -91.983593     2A    -15.575422     3A    -15.574039
       4A    -11.313932     5A    -11.293025     6A    -11.284534
       7A    -11.273217     8A    -11.268063     9A    -11.266375
      10A    -11.246159    11A    -11.244168    12A    -11.241157
      13A     -8.982678    14A     -6.663459    15A     -6.662730
      16A     -6.662199    17A     -1.290754    18A     -1.260372
      19A     -1.115806    20A     -1.074965    21A     -1.054110
      22A     -0.981729    23A     -0.972881    24A     -0.877992
      25A     -0.850220    26A     -0.787685    27A     -0.749241
      28A     -0.696360    29A     -0.682849    30A     -0.672767
      31A     -0.639115    32A     -0.601248    33A     -0.598187
      34A     -0.575131    35A     -0.568693    36A     -0.565122
      37A     -0.543801    38A     -0.526731    39A     -0.519027
      40A     -0.494184    41A     -0.437012    42A     -0.410567
      43A     -0.401452    44A     -0.381072    45A     -0.365913
      46A     -0.301600

  @DF-RHF Final Energy:  -852.05387707973784

   => Energetics <=

    Nuclear Repulsion Energy =            719.9898911524541063
    One-Electron Energy =               -2595.0248595272037164
    Two-Electron Energy =                1022.9810912950116517
    Total Energy =                       -852.0538770797378447
  Basis Set: (AUG-CC-PVTZ AUX)
    Blend: AUG-CC-PVTZ-RI
    Molecular point group: c1

    Geometry (in Angstrom), charge = 0, multiplicity = 1:

       Center              X                  Y                   Z               Mass
    ------------   -----------------  -----------------  -----------------  -----------------
         S            2.254718040072    -0.997846206998     0.005684191355    31.972071174400
         N           -0.661861959928    -1.441441206998     0.002857191355    14.003074004430
         N            1.488509040072     1.475852793002    -0.005077808645    14.003074004430
         C           -2.717099959928     0.503467793002    -0.012894808645    12.000000000000
         C           -0.388348959928    -0.120648206998    -0.001199808645    12.000000000000
         C           -1.372918959928     0.875697793002    -0.007647808645    12.000000000000
         C            0.960048040072     0.304275593002    -0.001387908645    12.000000000000
         C           -3.005348959928    -0.867580206998    -0.007307808645    12.000000000000
         C           -3.814205959928     1.532729793002     0.014660191355    12.000000000000
         C           -1.959162959928    -1.788985206998    -0.000672808645    12.000000000000
         C            3.448895040072     0.230688793002     0.002838191355    12.000000000000
         C            2.856161040072     1.474088793002    -0.003041808645    12.000000000000
         H           -1.067717959928     1.919134793002    -0.014763808645     1.007825032230
         H           -4.035611959928    -1.217122206998    -0.014747808645     1.007825032230
         H           -4.155090959928     1.708552793002     1.040522191355     1.007825032230
         H           -3.466640959928     2.486374793002    -0.390919808645     1.007825032230
         H           -4.677185959928     1.202580793002    -0.570465808645     1.007825032230
         H           -2.162084959928    -2.858728206998    -0.000107808645     1.007825032230
         H            4.505039040072    -0.006445206998     0.005267191355     1.007825032230
         H            3.390774040072     2.417945793002    -0.005953808645     1.007825032230

  Basis Set: AUG-CC-PVTZ
    Blend: AUG-CC-PVTZ
  Basis Set: (AUG-CC-PVTZ AUX)
    Blend: AUG-CC-PVTZ-JKFIT
	 Reference Energy          =    -852.0538770797378447 [Eh]
	 Singles Energy            =      -0.0000000000000000 [Eh]
	 Same-Spin Energy          =      -0.5692706927082736 [Eh]
	 Opposite-Spin Energy      =      -1.7097841417959310 [Eh]
	 Correlation Energy        =      -2.2790548345042048 [Eh]
	 Total Energy              =    -854.3329319142420673 [Eh]

	 ================> DF-SCS-MP2 Energies <==================
	-----------------------------------------------------------
	 SCS Same-Spin Scale       =       0.3333333333333333 [-]
	 SCS Opposite-Spin Scale   =       1.2000000000000000 [-]
	 SCS Same-Spin Energy      =      -0.1897568975694245 [Eh]
	 SCS Opposite-Spin Energy  =      -2.0517409701551172 [Eh]
	 SCS Correlation Energy    =      -2.2414978677245418 [Eh]
	 SCS Total Energy          =    -854.2953749474623919 [Eh]
	-----------------------------------------------------------

  Dipole Moment: [D]
     X:    -1.6550      Y:     0.6508      Z:     0.0408     Total:     1.7788

*** Psi4 exiting successfully. Buy a developer a beer!
