                               Psi4 1.4a3.dev225

  ==> Input File <==

--------------------------------------------------------------------------
#psi4
#
memory 32 gb

molecule  {
0 1
  S        2.3127110    -1.0235480     0.0053950
  N       -0.6038690    -1.4671430     0.0025680
  N        1.5465020     1.4501510    -0.0053670
  C       -2.6591070     0.4777660    -0.0131840
  C       -0.3303560    -0.1463500    -0.0014890
  C       -1.4112984     0.8233086    -0.0083132
  C        1.0885480     0.2076610    -0.0012920
  C       -2.9473560    -0.8932820    -0.0075970
  C       -3.7562130     1.5070280     0.0143710
  C       -1.9011700    -1.8146870    -0.0009620
  C        3.5068880     0.2049870     0.0025490
  C        2.9141540     1.4483870    -0.0033310
  H       -1.0097250     1.8934330    -0.0150530
  H       -3.9776190    -1.2428240    -0.0150370
  H       -4.0970980     1.6828510     1.0402330
  H       -3.4086480     2.4606730    -0.3912090
  H       -4.6191930     1.1768790    -0.5707550
  H       -2.1040920    -2.8844300    -0.0003970
  H        4.5630320    -0.0321470     0.0049780
  H        3.4487670     2.3922440    -0.0062430
units angstrom
no_reorient  #important for SAPT in psi4, default
symmetry c1  #important for SAPT in psi4, default
}

set PROPERTIES_ORIGIN ["COM"]
properties('MP2/aug-cc-pvtz', properties = ['dipole'])
--------------------------------------------------------------------------

    Molecular point group: c1
  Charge       = 0
  Multiplicity = 1
  Basis Set: AUG-CC-PVTZ
    Blend: AUG-CC-PVTZ
  Basis Set: (AUG-CC-PVTZ AUX)
    Blend: AUG-CC-PVTZ-JKFIT

    Orbital Energies [Eh]
    ---------------------

    Doubly Occupied:

       1A    -91.996844     2A    -15.576141     3A    -15.573260
       4A    -11.315619     5A    -11.301232     6A    -11.277582
       7A    -11.270802     8A    -11.266625     9A    -11.255128
      10A    -11.243009    11A    -11.239665    12A    -11.236719
      13A     -8.996763    14A     -6.677517    15A     -6.676975
      16A     -6.676302    17A     -1.286766    18A     -1.258489
      19A     -1.127685    20A     -1.065560    21A     -1.058011
      22A     -0.985779    23A     -0.969394    24A     -0.878890
      25A     -0.839404    26A     -0.785199    27A     -0.754364
      28A     -0.698377    29A     -0.680123    30A     -0.670273
      31A     -0.626593    32A     -0.596841    33A     -0.584512
      34A     -0.573442    35A     -0.573075    36A     -0.556800
      37A     -0.545221    38A     -0.527061    39A     -0.521758
      40A     -0.500968    41A     -0.442482    42A     -0.416588
      43A     -0.394808    44A     -0.391233    45A     -0.368782
      46A     -0.303671

  @DF-RHF Final Energy:  -852.04728369691668

   => Energetics <=

    Nuclear Repulsion Energy =            720.6392444730450961
    One-Electron Energy =               -2596.2483888038168516
    Two-Electron Energy =                1023.5618606338551899
    Total Energy =                       -852.0472836969166792
  Basis Set: (AUG-CC-PVTZ AUX)
    Blend: AUG-CC-PVTZ-RI
    Molecular point group: c1

    Geometry (in Angstrom), charge = 0, multiplicity = 1:

       Center              X                  Y                   Z               Mass
    ------------   -----------------  -----------------  -----------------  -----------------
         S            2.256481181149    -0.991193190932     0.005683584678    31.972071174400
         N           -0.660098818851    -1.434788190932     0.002856584678    14.003074004430
         N            1.490272181149     1.482505809068    -0.005078415322    14.003074004430
         C           -2.715336818851     0.510120809068    -0.012895415322    12.000000000000
         C           -0.386585818851    -0.113995190932    -0.001200415322    12.000000000000
         C           -1.467528218851     0.855663409068    -0.008024615322    12.000000000000
         C            1.032318181149     0.240015809068    -0.001003415322    12.000000000000
         C           -3.003585818851    -0.860927190932    -0.007308415322    12.000000000000
         C           -3.812442818851     1.539382809068     0.014659584678    12.000000000000
         C           -1.957399818851    -1.782332190932    -0.000673415322    12.000000000000
         C            3.450658181149     0.237341809068     0.002837584678    12.000000000000
         C            2.857924181149     1.480741809068    -0.003042415322    12.000000000000
         H           -1.065954818851     1.925787809068    -0.014764415322     1.007825032230
         H           -4.033848818851    -1.210469190932    -0.014748415322     1.007825032230
         H           -4.153327818851     1.715205809068     1.040521584678     1.007825032230
         H           -3.464877818851     2.493027809068    -0.390920415322     1.007825032230
         H           -4.675422818851     1.209233809068    -0.570466415322     1.007825032230
         H           -2.160321818851    -2.852075190932    -0.000108415322     1.007825032230
         H            4.506802181149     0.000207809068     0.005266584678     1.007825032230
         H            3.392537181149     2.424598809068    -0.005954415322     1.007825032230

  Basis Set: AUG-CC-PVTZ
    Blend: AUG-CC-PVTZ
  Basis Set: (AUG-CC-PVTZ AUX)
    Blend: AUG-CC-PVTZ-JKFIT
	 Reference Energy          =    -852.0472836969166792 [Eh]
	 Singles Energy            =      -0.0000000000000000 [Eh]
	 Same-Spin Energy          =      -0.5692866929897047 [Eh]
	 Opposite-Spin Energy      =      -1.7098492896261590 [Eh]
	 Correlation Energy        =      -2.2791359826158635 [Eh]
	 Total Energy              =    -854.3264196795325915 [Eh]

	 ================> DF-SCS-MP2 Energies <==================
	-----------------------------------------------------------
	 SCS Same-Spin Scale       =       0.3333333333333333 [-]
	 SCS Opposite-Spin Scale   =       1.2000000000000000 [-]
	 SCS Same-Spin Energy      =      -0.1897622309965682 [Eh]
	 SCS Opposite-Spin Energy  =      -2.0518191475513907 [Eh]
	 SCS Correlation Energy    =      -2.2415813785479588 [Eh]
	 SCS Total Energy          =    -854.2888650754646278 [Eh]
	-----------------------------------------------------------

  Dipole Moment: [D]
     X:    -1.0424      Y:     0.3650      Z:     0.0393     Total:     1.1051

*** Psi4 exiting successfully. Buy a developer a beer!
