                               Psi4 1.4a3.dev225

  ==> Input File <==

--------------------------------------------------------------------------
#psi4
#
memory 32 gb

molecule  {
0 1
  S        2.3127110    -1.0235480     0.0053950
  N       -0.6038690    -1.4671430     0.0025680
  N        1.5465020     1.4501510    -0.0053670
  C       -2.6591070     0.4777660    -0.0131840
  C       -0.3303560    -0.1463500    -0.0014890
  C       -1.3631122     0.8366523    -0.0081251
  C        1.0885480     0.2076610    -0.0012920
  C       -2.9473560    -0.8932820    -0.0075970
  C       -3.7562130     1.5070280     0.0143710
  C       -1.9011700    -1.8146870    -0.0009620
  C        3.5068880     0.2049870     0.0025490
  C        2.9141540     1.4483870    -0.0033310
  H       -1.0097250     1.8934330    -0.0150530
  H       -3.9776190    -1.2428240    -0.0150370
  H       -4.0970980     1.6828510     1.0402330
  H       -3.4086480     2.4606730    -0.3912090
  H       -4.6191930     1.1768790    -0.5707550
  H       -2.1040920    -2.8844300    -0.0003970
  H        4.5630320    -0.0321470     0.0049780
  H        3.4487670     2.3922440    -0.0062430
units angstrom
no_reorient  #important for SAPT in psi4, default
symmetry c1  #important for SAPT in psi4, default
}

set PROPERTIES_ORIGIN ["COM"]
properties('MP2/aug-cc-pvtz', properties = ['dipole'])
--------------------------------------------------------------------------

    Molecular point group: c1
  Charge       = 0
  Multiplicity = 1
  Basis Set: AUG-CC-PVTZ
    Blend: AUG-CC-PVTZ
  Basis Set: (AUG-CC-PVTZ AUX)
    Blend: AUG-CC-PVTZ-JKFIT

    Orbital Energies [Eh]
    ---------------------

    Doubly Occupied:

       1A    -91.995336     2A    -15.574327     3A    -15.572576
       4A    -11.313695     5A    -11.297630     6A    -11.279682
       7A    -11.269658     8A    -11.265020     9A    -11.263765
      10A    -11.243201    11A    -11.240989    12A    -11.238247
      13A     -8.995289    14A     -6.676049    15A     -6.675503
      16A     -6.674835    17A     -1.285757    18A     -1.257527
      19A     -1.120193    20A     -1.064766    21A     -1.059656
      22A     -0.985120    23A     -0.970861    24A     -0.875155
      25A     -0.842019    26A     -0.784683    27A     -0.751971
      28A     -0.697834    29A     -0.679202    30A     -0.671028
      31A     -0.629931    32A     -0.596203    33A     -0.585940
      34A     -0.572954    35A     -0.572368    36A     -0.558715
      37A     -0.546862    38A     -0.526731    39A     -0.519422
      40A     -0.500918    41A     -0.441783    42A     -0.419416
      43A     -0.393773    44A     -0.385736    45A     -0.368013
      46A     -0.304359

  @DF-RHF Final Energy:  -852.05818370789166

   => Energetics <=

    Nuclear Repulsion Energy =            720.4741786474638729
    One-Electron Energy =               -2595.9753296647754723
    Two-Electron Energy =                1023.4429673094200552
    Total Energy =                       -852.0581837078916578
  Basis Set: (AUG-CC-PVTZ AUX)
    Blend: AUG-CC-PVTZ-RI
    Molecular point group: c1

    Geometry (in Angstrom), charge = 0, multiplicity = 1:

       Center              X                  Y                   Z               Mass
    ------------   -----------------  -----------------  -----------------  -----------------
         S            2.253196520229    -0.992102777700     0.005670762651    31.972071174400
         N           -0.663383479771    -1.435697777700     0.002843762651    14.003074004430
         N            1.486987520229     1.481596222300    -0.005091237349    14.003074004430
         C           -2.718621479771     0.509211222300    -0.012908237349    12.000000000000
         C           -0.389870479771    -0.114904777700    -0.001213237349    12.000000000000
         C           -1.422626679771     0.868097522300    -0.007849337349    12.000000000000
         C            1.029033520229     0.239106222300    -0.001016237349    12.000000000000
         C           -3.006870479771    -0.861836777700    -0.007321237349    12.000000000000
         C           -3.815727479771     1.538473222300     0.014646762651    12.000000000000
         C           -1.960684479771    -1.783241777700    -0.000686237349    12.000000000000
         C            3.447373520229     0.236432222300     0.002824762651    12.000000000000
         C            2.854639520229     1.479832222300    -0.003055237349    12.000000000000
         H           -1.069239479771     1.924878222300    -0.014777237349     1.007825032230
         H           -4.037133479771    -1.211378777700    -0.014761237349     1.007825032230
         H           -4.156612479771     1.714296222300     1.040508762651     1.007825032230
         H           -3.468162479771     2.492118222300    -0.390933237349     1.007825032230
         H           -4.678707479771     1.208324222300    -0.570479237349     1.007825032230
         H           -2.163606479771    -2.852984777700    -0.000121237349     1.007825032230
         H            4.503517520229    -0.000701777700     0.005253762651     1.007825032230
         H            3.389252520229     2.423689222300    -0.005967237349     1.007825032230

  Basis Set: AUG-CC-PVTZ
    Blend: AUG-CC-PVTZ
  Basis Set: (AUG-CC-PVTZ AUX)
    Blend: AUG-CC-PVTZ-JKFIT
	 Reference Energy          =    -852.0581837078916578 [Eh]
	 Singles Energy            =      -0.0000000000000000 [Eh]
	 Same-Spin Energy          =      -0.5692535516789948 [Eh]
	 Opposite-Spin Energy      =      -1.7094561948953289 [Eh]
	 Correlation Energy        =      -2.2787097465743238 [Eh]
	 Total Energy              =    -854.3368934544660078 [Eh]

	 ================> DF-SCS-MP2 Energies <==================
	-----------------------------------------------------------
	 SCS Same-Spin Scale       =       0.3333333333333333 [-]
	 SCS Opposite-Spin Scale   =       1.2000000000000000 [-]
	 SCS Same-Spin Energy      =      -0.1897511838929983 [Eh]
	 SCS Opposite-Spin Energy  =      -2.0513474338743944 [Eh]
	 SCS Correlation Energy    =      -2.2410986177673928 [Eh]
	 SCS Total Energy          =    -854.2992823256590782 [Eh]
	-----------------------------------------------------------

  Dipole Moment: [D]
     X:    -1.1632      Y:     0.3839      Z:     0.0407     Total:     1.2256

*** Psi4 exiting successfully. Buy a developer a beer!
