                               Psi4 1.4a3.dev225

  ==> Input File <==

--------------------------------------------------------------------------
#psi4
#
memory 32 gb

molecule  {
0 1
  S        2.3127110    -1.0235480     0.0053950
  N       -0.6038690    -1.4671430     0.0025680
  N        1.5465020     1.4501510    -0.0053670
  C       -2.6591070     0.4777660    -0.0131840
  C       -0.3303560    -0.1463500    -0.0014890
  C       -1.3149260     0.8499960    -0.0079370
  C        1.0885480     0.2076610    -0.0012920
  C       -2.9473560    -0.8932820    -0.0075970
  C       -3.7562130     1.5070280     0.0143710
  C       -2.0943570    -1.8664414    -0.0014877
  C        3.5068880     0.2049870     0.0025490
  C        2.9141540     1.4483870    -0.0033310
  H       -1.0097250     1.8934330    -0.0150530
  H       -3.9776190    -1.2428240    -0.0150370
  H       -4.0970980     1.6828510     1.0402330
  H       -3.4086480     2.4606730    -0.3912090
  H       -4.6191930     1.1768790    -0.5707550
  H       -2.1040920    -2.8844300    -0.0003970
  H        4.5630320    -0.0321470     0.0049780
  H        3.4487670     2.3922440    -0.0062430
units angstrom
no_reorient  #important for SAPT in psi4, default
symmetry c1  #important for SAPT in psi4, default
}

set PROPERTIES_ORIGIN ["COM"]
properties('MP2/aug-cc-pvtz', properties = ['dipole'])
--------------------------------------------------------------------------

    Molecular point group: c1
  Charge       = 0
  Multiplicity = 1
  Basis Set: AUG-CC-PVTZ
    Blend: AUG-CC-PVTZ
  Basis Set: (AUG-CC-PVTZ AUX)
    Blend: AUG-CC-PVTZ-JKFIT

    Orbital Energies [Eh]
    ---------------------

    Doubly Occupied:

       1A    -91.992946     2A    -15.576731     3A    -15.573666
       4A    -11.311435     5A    -11.293401     6A    -11.277817
       7A    -11.274169     8A    -11.267890     9A    -11.263634
      10A    -11.242195    11A    -11.241352    12A    -11.238247
      13A     -8.992917    14A     -6.673680    15A     -6.673120
      16A     -6.672459    17A     -1.281094    18A     -1.225240
      19A     -1.111996    20A     -1.066958    21A     -1.058979
      22A     -0.993154    23A     -0.971113    24A     -0.858842
      25A     -0.856469    26A     -0.784232    27A     -0.750610
      28A     -0.699677    29A     -0.679969    30A     -0.671178
      31A     -0.638004    32A     -0.595369    33A     -0.592108
      34A     -0.571788    35A     -0.570307    36A     -0.556984
      37A     -0.541220    38A     -0.514831    39A     -0.509185
      40A     -0.500711    41A     -0.439262    42A     -0.414345
      43A     -0.403904    44A     -0.383929    45A     -0.348573
      46A     -0.313544

  @DF-RHF Final Energy:  -852.01688240550823

   => Energetics <=

    Nuclear Repulsion Energy =            717.6555681421344843
    One-Electron Energy =               -2590.4064323069619604
    Two-Electron Energy =                1020.7339817593191356
    Total Energy =                       -852.0168824055082268
  Basis Set: (AUG-CC-PVTZ AUX)
    Blend: AUG-CC-PVTZ-RI
    Molecular point group: c1

    Geometry (in Angstrom), charge = 0, multiplicity = 1:

       Center              X                  Y                   Z               Mass
    ------------   -----------------  -----------------  -----------------  -----------------
         S            2.263080645999    -0.989484473596     0.005693775496    31.972071174400
         N           -0.653499354001    -1.433079473596     0.002866775496    14.003074004430
         N            1.496871645999     1.484214526404    -0.005068224504    14.003074004430
         C           -2.708737354001     0.511829526404    -0.012885224504    12.000000000000
         C           -0.379986354001    -0.112286473596    -0.001190224504    12.000000000000
         C           -1.364556354001     0.884059526404    -0.007638224504    12.000000000000
         C            1.038917645999     0.241724526404    -0.000993224504    12.000000000000
         C           -2.996986354001    -0.859218473596    -0.007298224504    12.000000000000
         C           -3.805843354001     1.541091526404     0.014669775496    12.000000000000
         C           -2.143987354001    -1.832377873596    -0.001188924504    12.000000000000
         C            3.457257645999     0.239050526404     0.002847775496    12.000000000000
         C            2.864523645999     1.482450526404    -0.003032224504    12.000000000000
         H           -1.059355354001     1.927496526404    -0.014754224504     1.007825032230
         H           -4.027249354001    -1.208760473596    -0.014738224504     1.007825032230
         H           -4.146728354001     1.716914526404     1.040531775496     1.007825032230
         H           -3.458278354001     2.494736526404    -0.390910224504     1.007825032230
         H           -4.668823354001     1.210942526404    -0.570456224504     1.007825032230
         H           -2.153722354001    -2.850366473596    -0.000098224504     1.007825032230
         H            4.513401645999     0.001916526404     0.005276775496     1.007825032230
         H            3.399136645999     2.426307526404    -0.005944224504     1.007825032230

  Basis Set: AUG-CC-PVTZ
    Blend: AUG-CC-PVTZ
  Basis Set: (AUG-CC-PVTZ AUX)
    Blend: AUG-CC-PVTZ-JKFIT
	 Reference Energy          =    -852.0168824055082268 [Eh]
	 Singles Energy            =      -0.0000000000000000 [Eh]
	 Same-Spin Energy          =      -0.5696729033201152 [Eh]
	 Opposite-Spin Energy      =      -1.7150430503839369 [Eh]
	 Correlation Energy        =      -2.2847159537040520 [Eh]
	 Total Energy              =    -854.3015983592123348 [Eh]

	 ================> DF-SCS-MP2 Energies <==================
	-----------------------------------------------------------
	 SCS Same-Spin Scale       =       0.3333333333333333 [-]
	 SCS Opposite-Spin Scale   =       1.2000000000000000 [-]
	 SCS Same-Spin Energy      =      -0.1898909677733717 [Eh]
	 SCS Opposite-Spin Energy  =      -2.0580516604607242 [Eh]
	 SCS Correlation Energy    =      -2.2479426282340960 [Eh]
	 SCS Total Energy          =    -854.2648250337423406 [Eh]
	-----------------------------------------------------------

  Dipole Moment: [D]
     X:    -1.3227      Y:     0.3979      Z:     0.0407     Total:     1.3819

*** Psi4 exiting successfully. Buy a developer a beer!
