                               Psi4 1.4a3.dev225

  ==> Input File <==

--------------------------------------------------------------------------
#psi4
#
memory 32 gb

molecule  {
0 1
  S        2.3127110    -1.0235480     0.0053950
  N       -0.6038690    -1.4671430     0.0025680
  N        1.5465020     1.4501510    -0.0053670
  C       -2.6591070     0.4777660    -0.0131840
  C       -0.3303560    -0.1463500    -0.0014890
  C       -1.2185536     0.8766834    -0.0075608
  C        1.0885480     0.2076610    -0.0012920
  C       -2.9473560    -0.8932820    -0.0075970
  C       -3.7562130     1.5070280     0.0143710
  C       -1.9011700    -1.8146870    -0.0009620
  C        3.5068880     0.2049870     0.0025490
  C        2.9141540     1.4483870    -0.0033310
  H       -1.0097250     1.8934330    -0.0150530
  H       -3.9776190    -1.2428240    -0.0150370
  H       -4.0970980     1.6828510     1.0402330
  H       -3.4086480     2.4606730    -0.3912090
  H       -4.6191930     1.1768790    -0.5707550
  H       -2.1040920    -2.8844300    -0.0003970
  H        4.5630320    -0.0321470     0.0049780
  H        3.4487670     2.3922440    -0.0062430
units angstrom
no_reorient  #important for SAPT in psi4, default
symmetry c1  #important for SAPT in psi4, default
}

set PROPERTIES_ORIGIN ["COM"]
properties('MP2/aug-cc-pvtz', properties = ['dipole'])
--------------------------------------------------------------------------

    Molecular point group: c1
  Charge       = 0
  Multiplicity = 1
  Basis Set: AUG-CC-PVTZ
    Blend: AUG-CC-PVTZ
  Basis Set: (AUG-CC-PVTZ AUX)
    Blend: AUG-CC-PVTZ-JKFIT

    Orbital Energies [Eh]
    ---------------------

    Doubly Occupied:

       1A    -91.990601     2A    -15.570682     3A    -15.568632
       4A    -11.307987     5A    -11.287076     6A    -11.286559
       7A    -11.284498     8A    -11.266175     9A    -11.259981
      10A    -11.243861    11A    -11.243509    12A    -11.242664
      13A     -8.990665    14A     -6.671442    15A     -6.670881
      16A     -6.670233    17A     -1.283129    18A     -1.254892
      19A     -1.104350    20A     -1.070672    21A     -1.058365
      22A     -0.982950    23A     -0.975237    24A     -0.868939
      25A     -0.844459    26A     -0.782222    27A     -0.745878
      28A     -0.697838    29A     -0.684187    30A     -0.668828
      31A     -0.642529    32A     -0.595758    33A     -0.590265
      34A     -0.572364    35A     -0.570252    36A     -0.565572
      37A     -0.546548    38A     -0.525903    39A     -0.500841
      40A     -0.498979    41A     -0.440931    42A     -0.422506
      43A     -0.394554    44A     -0.378361    45A     -0.360769
      46A     -0.305972

  @DF-RHF Final Energy:  -852.04991643497874

   => Energetics <=

    Nuclear Repulsion Energy =            720.2579419260835039
    One-Electron Energy =               -2595.6367255398813541
    Two-Electron Energy =                1023.3288671788191095
    Total Energy =                       -852.0499164349787407
  Basis Set: (AUG-CC-PVTZ AUX)
    Blend: AUG-CC-PVTZ-RI
    Molecular point group: c1

    Geometry (in Angstrom), charge = 0, multiplicity = 1:

       Center              X                  Y                   Z               Mass
    ------------   -----------------  -----------------  -----------------  -----------------
         S            2.243342537468    -0.994831538004     0.005632296573    31.972071174400
         N           -0.673237462532    -1.438426538004     0.002805296573    14.003074004430
         N            1.477133537468     1.478867461996    -0.005129703427    14.003074004430
         C           -2.728475462532     0.506482461996    -0.012946703427    12.000000000000
         C           -0.399724462532    -0.117633538004    -0.001251703427    12.000000000000
         C           -1.287922062532     0.905399861996    -0.007323503427    12.000000000000
         C            1.019179537468     0.236377461996    -0.001054703427    12.000000000000
         C           -3.016724462532    -0.864565538004    -0.007359703427    12.000000000000
         C           -3.825581462532     1.535744461996     0.014608296573    12.000000000000
         C           -1.970538462532    -1.785970538004    -0.000724703427    12.000000000000
         C            3.437519537468     0.233703461996     0.002786296573    12.000000000000
         C            2.844785537468     1.477103461996    -0.003093703427    12.000000000000
         H           -1.079093462532     1.922149461996    -0.014815703427     1.007825032230
         H           -4.046987462532    -1.214107538004    -0.014799703427     1.007825032230
         H           -4.166466462532     1.711567461996     1.040470296573     1.007825032230
         H           -3.478016462532     2.489389461996    -0.390971703427     1.007825032230
         H           -4.688561462532     1.205595461996    -0.570517703427     1.007825032230
         H           -2.173460462532    -2.855713538004    -0.000159703427     1.007825032230
         H            4.493663537468    -0.003430538004     0.005215296573     1.007825032230
         H            3.379398537468     2.420960461996    -0.006005703427     1.007825032230

  Basis Set: AUG-CC-PVTZ
    Blend: AUG-CC-PVTZ
  Basis Set: (AUG-CC-PVTZ AUX)
    Blend: AUG-CC-PVTZ-JKFIT
	 Reference Energy          =    -852.0499164349787407 [Eh]
	 Singles Energy            =      -0.0000000000000000 [Eh]
	 Same-Spin Energy          =      -0.5687645760103039 [Eh]
	 Opposite-Spin Energy      =      -1.7095383941053415 [Eh]
	 Correlation Energy        =      -2.2783029701156456 [Eh]
	 Total Energy              =    -854.3282194050943872 [Eh]

	 ================> DF-SCS-MP2 Energies <==================
	-----------------------------------------------------------
	 SCS Same-Spin Scale       =       0.3333333333333333 [-]
	 SCS Opposite-Spin Scale   =       1.2000000000000000 [-]
	 SCS Same-Spin Energy      =      -0.1895881920034346 [Eh]
	 SCS Opposite-Spin Energy  =      -2.0514460729264097 [Eh]
	 SCS Correlation Energy    =      -2.2410342649298443 [Eh]
	 SCS Total Energy          =    -854.2909506999085352 [Eh]
	-----------------------------------------------------------

  Dipole Moment: [D]
     X:    -1.5024      Y:     0.3965      Z:     0.0447     Total:     1.5545

*** Psi4 exiting successfully. Buy a developer a beer!
