                               Psi4 1.4a3.dev225

  ==> Input File <==

--------------------------------------------------------------------------
#psi4
#
memory 32 gb

molecule  {
0 1
  S        2.1773068    -1.1447628     0.0057470
  N       -0.6038690    -1.4671430     0.0025680
  N        1.5465020     1.4501510    -0.0053670
  C       -2.6591070     0.4777660    -0.0131840
  C       -0.3303560    -0.1463500    -0.0014890
  C       -1.3149260     0.8499960    -0.0079370
  C        1.0885480     0.2076610    -0.0012920
  C       -2.9473560    -0.8932820    -0.0075970
  C       -3.7562130     1.5070280     0.0143710
  C       -1.9011700    -1.8146870    -0.0009620
  C        3.5068880     0.2049870     0.0025490
  C        2.9141540     1.4483870    -0.0033310
  H       -1.0097250     1.8934330    -0.0150530
  H       -3.9776190    -1.2428240    -0.0150370
  H       -4.0970980     1.6828510     1.0402330
  H       -3.4086480     2.4606730    -0.3912090
  H       -4.6191930     1.1768790    -0.5707550
  H       -2.1040920    -2.8844300    -0.0003970
  H        4.5630320    -0.0321470     0.0049780
  H        3.4487670     2.3922440    -0.0062430
units angstrom
no_reorient  #important for SAPT in psi4, default
symmetry c1  #important for SAPT in psi4, default
}

set PROPERTIES_ORIGIN ["COM"]
properties('MP2/aug-cc-pvtz', properties = ['dipole'])
--------------------------------------------------------------------------

    Molecular point group: c1
  Charge       = 0
  Multiplicity = 1
  Basis Set: AUG-CC-PVTZ
    Blend: AUG-CC-PVTZ
  Basis Set: (AUG-CC-PVTZ AUX)
    Blend: AUG-CC-PVTZ-JKFIT

    Orbital Energies [Eh]
    ---------------------

    Doubly Occupied:

       1A    -91.996122     2A    -15.574354     3A    -15.571342
       4A    -11.317369     5A    -11.292737     6A    -11.283737
       7A    -11.273626     8A    -11.272694     9A    -11.272263
      10A    -11.245393    11A    -11.243168    12A    -11.240638
      13A     -8.993227    14A     -6.673865    15A     -6.672971
      16A     -6.672515    17A     -1.281991    18A     -1.255163
      19A     -1.115560    20A     -1.066589    21A     -1.030984
      22A     -0.987600    23A     -0.973452    24A     -0.871143
      25A     -0.846309    26A     -0.788435    27A     -0.742674
      28A     -0.690433    29A     -0.680838    30A     -0.669262
      31A     -0.633600    32A     -0.596589    33A     -0.589482
      34A     -0.569085    35A     -0.567434    36A     -0.563111
      37A     -0.548039    38A     -0.522585    39A     -0.513423
      40A     -0.482455    41A     -0.442152    42A     -0.420644
      43A     -0.386993    44A     -0.379414    45A     -0.368875
      46A     -0.308627

  @DF-RHF Final Energy:  -852.04363465225413

   => Energetics <=

    Nuclear Repulsion Energy =            718.3224599591529795
    One-Electron Energy =               -2591.7542618673719517
    Two-Electron Energy =                1021.3881672559647313
    Total Energy =                       -852.0436346522541271
  Basis Set: (AUG-CC-PVTZ AUX)
    Blend: AUG-CC-PVTZ-RI
    Molecular point group: c1

    Geometry (in Angstrom), charge = 0, multiplicity = 1:

       Center              X                  Y                   Z               Mass
    ------------   -----------------  -----------------  -----------------  -----------------
         S            2.139099414411    -1.092212450919     0.005946011310    31.972071174400
         N           -0.642076385589    -1.414592650919     0.002767011310    14.003074004430
         N            1.508294614411     1.502701349081    -0.005167988690    14.003074004430
         C           -2.697314385589     0.530316349081    -0.012984988690    12.000000000000
         C           -0.368563385589    -0.093799650919    -0.001289988690    12.000000000000
         C           -1.353133385589     0.902546349081    -0.007737988690    12.000000000000
         C            1.050340614411     0.260211349081    -0.001092988690    12.000000000000
         C           -2.985563385589    -0.840731650919    -0.007397988690    12.000000000000
         C           -3.794420385589     1.559578349081     0.014570011310    12.000000000000
         C           -1.939377385589    -1.762136650919    -0.000762988690    12.000000000000
         C            3.468680614411     0.257537349081     0.002748011310    12.000000000000
         C            2.875946614411     1.500937349081    -0.003131988690    12.000000000000
         H           -1.047932385589     1.945983349081    -0.014853988690     1.007825032230
         H           -4.015826385589    -1.190273650919    -0.014837988690     1.007825032230
         H           -4.135305385589     1.735401349081     1.040432011310     1.007825032230
         H           -3.446855385589     2.513223349081    -0.391009988690     1.007825032230
         H           -4.657400385589     1.229429349081    -0.570555988690     1.007825032230
         H           -2.142299385589    -2.831879650919    -0.000197988690     1.007825032230
         H            4.524824614411     0.020403349081     0.005177011310     1.007825032230
         H            3.410559614411     2.444794349081    -0.006043988690     1.007825032230

  Basis Set: AUG-CC-PVTZ
    Blend: AUG-CC-PVTZ
  Basis Set: (AUG-CC-PVTZ AUX)
    Blend: AUG-CC-PVTZ-JKFIT
	 Reference Energy          =    -852.0436346522541271 [Eh]
	 Singles Energy            =      -0.0000000000000000 [Eh]
	 Same-Spin Energy          =      -0.5683899222481197 [Eh]
	 Opposite-Spin Energy      =      -1.7122197378866351 [Eh]
	 Correlation Energy        =      -2.2806096601347550 [Eh]
	 Total Energy              =    -854.3242443123888279 [Eh]

	 ================> DF-SCS-MP2 Energies <==================
	-----------------------------------------------------------
	 SCS Same-Spin Scale       =       0.3333333333333333 [-]
	 SCS Opposite-Spin Scale   =       1.2000000000000000 [-]
	 SCS Same-Spin Energy      =      -0.1894633074160399 [Eh]
	 SCS Opposite-Spin Energy  =      -2.0546636854639622 [Eh]
	 SCS Correlation Energy    =      -2.2441269928800018 [Eh]
	 SCS Total Energy          =    -854.2877616451340828 [Eh]
	-----------------------------------------------------------

  Dipole Moment: [D]
     X:    -1.5486      Y:     0.4234      Z:     0.0417     Total:     1.6060

*** Psi4 exiting successfully. Buy a developer a beer!
