                               Psi4 1.4a3.dev225

  ==> Input File <==

--------------------------------------------------------------------------
#psi4
#
memory 32 gb

molecule  {
0 1
  S        2.3127110    -1.0235480     0.0053950
  N       -0.6038690    -1.4671430     0.0025680
  N        1.5465020     1.4501510    -0.0053670
  C       -2.6591070     0.4777660    -0.0131840
  C       -0.3303560    -0.1463500    -0.0014890
  C       -1.3149260     0.8499960    -0.0079370
  C        1.0816313     0.1888952    -0.0012305
  C       -2.9473560    -0.8932820    -0.0075970
  C       -3.7562130     1.5070280     0.0143710
  C       -1.9011700    -1.8146870    -0.0009620
  C        3.5068880     0.2049870     0.0025490
  C        2.9141540     1.4483870    -0.0033310
  H       -1.0097250     1.8934330    -0.0150530
  H       -3.9776190    -1.2428240    -0.0150370
  H       -4.0970980     1.6828510     1.0402330
  H       -3.4086480     2.4606730    -0.3912090
  H       -4.6191930     1.1768790    -0.5707550
  H       -2.1040920    -2.8844300    -0.0003970
  H        4.5630320    -0.0321470     0.0049780
  H        3.4487670     2.3922440    -0.0062430
units angstrom
no_reorient  #important for SAPT in psi4, default
symmetry c1  #important for SAPT in psi4, default
}

set PROPERTIES_ORIGIN ["COM"]
properties('MP2/aug-cc-pvtz', properties = ['dipole'])
--------------------------------------------------------------------------

    Molecular point group: c1
  Charge       = 0
  Multiplicity = 1
  Basis Set: AUG-CC-PVTZ
    Blend: AUG-CC-PVTZ
  Basis Set: (AUG-CC-PVTZ AUX)
    Blend: AUG-CC-PVTZ-JKFIT

    Orbital Energies [Eh]
    ---------------------

    Doubly Occupied:

       1A    -91.995485     2A    -15.573144     3A    -15.571609
       4A    -11.312093     5A    -11.293288     6A    -11.281755
       7A    -11.271662     8A    -11.268654     9A    -11.263094
      10A    -11.243459    11A    -11.242223    12A    -11.239800
      13A     -8.995439    14A     -6.676200    15A     -6.675679
      16A     -6.675022    17A     -1.281545    18A     -1.254625
      19A     -1.114025    20A     -1.065427    21A     -1.060654
      22A     -0.984524    23A     -0.972433    24A     -0.873333
      25A     -0.844084    26A     -0.781606    27A     -0.750738
      28A     -0.697035    29A     -0.679045    30A     -0.671352
      31A     -0.633997    32A     -0.595846    33A     -0.586846
      34A     -0.571801    35A     -0.571615    36A     -0.561469
      37A     -0.547212    38A     -0.525769    39A     -0.515675
      40A     -0.500787    41A     -0.440429    42A     -0.422190
      43A     -0.392118    44A     -0.382233    45A     -0.366885
      46A     -0.303579

  @DF-RHF Final Energy:  -852.05948454827626

   => Energetics <=

    Nuclear Repulsion Energy =            720.3822077030414448
    One-Electron Energy =               -2595.8284146093938034
    Two-Electron Energy =                1023.3867223580762129
    Total Energy =                       -852.0594845482762594
  Basis Set: (AUG-CC-PVTZ AUX)
    Blend: AUG-CC-PVTZ-RI
    Molecular point group: c1

    Geometry (in Angstrom), charge = 0, multiplicity = 1:

       Center              X                  Y                   Z               Mass
    ------------   -----------------  -----------------  -----------------  -----------------
         S            2.250383343140    -0.991733174785     0.005653748416    31.972071174400
         N           -0.666196656860    -1.435328174785     0.002826748416    14.003074004430
         N            1.484174343140     1.481965825215    -0.005108251584    14.003074004430
         C           -2.721434656860     0.509580825215    -0.012925251584    12.000000000000
         C           -0.392683656860    -0.114535174785    -0.001230251584    12.000000000000
         C           -1.377253656860     0.881810825215    -0.007678251584    12.000000000000
         C            1.019303643140     0.220710025215    -0.000971751584    12.000000000000
         C           -3.009683656860    -0.861467174785    -0.007338251584    12.000000000000
         C           -3.818540656860     1.538842825215     0.014629748416    12.000000000000
         C           -1.963497656860    -1.782872174785    -0.000703251584    12.000000000000
         C            3.444560343140     0.236801825215     0.002807748416    12.000000000000
         C            2.851826343140     1.480201825215    -0.003072251584    12.000000000000
         H           -1.072052656860     1.925247825215    -0.014794251584     1.007825032230
         H           -4.039946656860    -1.211009174785    -0.014778251584     1.007825032230
         H           -4.159425656860     1.714665825215     1.040491748416     1.007825032230
         H           -3.470975656860     2.492487825215    -0.390950251584     1.007825032230
         H           -4.681520656860     1.208693825215    -0.570496251584     1.007825032230
         H           -2.166419656860    -2.852615174785    -0.000138251584     1.007825032230
         H            4.500704343140    -0.000332174785     0.005236748416     1.007825032230
         H            3.386439343140     2.424058825215    -0.005984251584     1.007825032230

  Basis Set: AUG-CC-PVTZ
    Blend: AUG-CC-PVTZ
  Basis Set: (AUG-CC-PVTZ AUX)
    Blend: AUG-CC-PVTZ-JKFIT
	 Reference Energy          =    -852.0594845482762594 [Eh]
	 Singles Energy            =      -0.0000000000000000 [Eh]
	 Same-Spin Energy          =      -0.5697892514468772 [Eh]
	 Opposite-Spin Energy      =      -1.7101746579388823 [Eh]
	 Correlation Energy        =      -2.2799639093857595 [Eh]
	 Total Energy              =    -854.3394484576620016 [Eh]

	 ================> DF-SCS-MP2 Energies <==================
	-----------------------------------------------------------
	 SCS Same-Spin Scale       =       0.3333333333333333 [-]
	 SCS Opposite-Spin Scale   =       1.2000000000000000 [-]
	 SCS Same-Spin Energy      =      -0.1899297504822924 [Eh]
	 SCS Opposite-Spin Energy  =      -2.0522095895266586 [Eh]
	 SCS Correlation Energy    =      -2.2421393400089511 [Eh]
	 SCS Total Energy          =    -854.3016238882852349 [Eh]
	-----------------------------------------------------------

  Dipole Moment: [D]
     X:    -1.2304      Y:     0.3680      Z:     0.0422     Total:     1.2849

*** Psi4 exiting successfully. Buy a developer a beer!
