                               Psi4 1.4a3.dev225

  ==> Input File <==

--------------------------------------------------------------------------
#psi4
#
memory 32 gb

molecule  {
0 1
  S        2.3127110    -1.0235480     0.0053950
  N       -0.6038690    -1.4671430     0.0025680
  N        1.5465020     1.4501510    -0.0053670
  C       -2.6591070     0.4777660    -0.0131840
  C       -0.3303560    -0.1463500    -0.0014890
  C       -1.3149260     0.8499960    -0.0079370
  C        1.0885480     0.2076610    -0.0012920
  C       -2.9473560    -0.8932820    -0.0075970
  C       -3.7562130     1.5070280     0.0143710
  C       -1.8861613    -1.8279056    -0.0008668
  C        3.5068880     0.2049870     0.0025490
  C        2.9141540     1.4483870    -0.0033310
  H       -1.0097250     1.8934330    -0.0150530
  H       -3.9776190    -1.2428240    -0.0150370
  H       -4.0970980     1.6828510     1.0402330
  H       -3.4086480     2.4606730    -0.3912090
  H       -4.6191930     1.1768790    -0.5707550
  H       -2.1040920    -2.8844300    -0.0003970
  H        4.5630320    -0.0321470     0.0049780
  H        3.4487670     2.3922440    -0.0062430
units angstrom
no_reorient  #important for SAPT in psi4, default
symmetry c1  #important for SAPT in psi4, default
}

set PROPERTIES_ORIGIN ["COM"]
properties('MP2/aug-cc-pvtz', properties = ['dipole'])
--------------------------------------------------------------------------

    Molecular point group: c1
  Charge       = 0
  Multiplicity = 1
  Basis Set: AUG-CC-PVTZ
    Blend: AUG-CC-PVTZ
  Basis Set: (AUG-CC-PVTZ AUX)
    Blend: AUG-CC-PVTZ-JKFIT

    Orbital Energies [Eh]
    ---------------------

    Doubly Occupied:

       1A    -91.993570     2A    -15.572002     3A    -15.571532
       4A    -11.311665     5A    -11.293748     6A    -11.283037
       7A    -11.271083     8A    -11.268327     9A    -11.263012
      10A    -11.245288    11A    -11.242454    12A    -11.239557
      13A     -8.993561    14A     -6.674327    15A     -6.673777
      16A     -6.673115    17A     -1.285051    18A     -1.257989
      19A     -1.113644    20A     -1.064848    21A     -1.060184
      22A     -0.982680    23A     -0.971721    24A     -0.873150
      25A     -0.843898    26A     -0.783706    27A     -0.749977
      28A     -0.697045    29A     -0.679311    30A     -0.670461
      31A     -0.636647    32A     -0.595617    33A     -0.587274
      34A     -0.572631    35A     -0.571225    36A     -0.562109
      37A     -0.547531    38A     -0.526660    39A     -0.516613
      40A     -0.500321    41A     -0.440274    42A     -0.419883
      43A     -0.392894    44A     -0.381218    45A     -0.367326
      46A     -0.303583

  @DF-RHF Final Energy:  -852.06129941260588

   => Energetics <=

    Nuclear Repulsion Energy =            720.2546860421451811
    One-Electron Energy =               -2595.5809162486998503
    Two-Electron Energy =                1023.2649307939486789
    Total Energy =                       -852.0612994126058766
  Basis Set: (AUG-CC-PVTZ AUX)
    Blend: AUG-CC-PVTZ-RI
    Molecular point group: c1

    Geometry (in Angstrom), charge = 0, multiplicity = 1:

       Center              X                  Y                   Z               Mass
    ------------   -----------------  -----------------  -----------------  -----------------
         S            2.248888776136    -0.992111305268     0.005651451221    31.972071174400
         N           -0.667691223864    -1.435706305268     0.002824451221    14.003074004430
         N            1.482679776136     1.481587694732    -0.005110548779    14.003074004430
         C           -2.722929223864     0.509202694732    -0.012927548779    12.000000000000
         C           -0.394178223864    -0.114913305268    -0.001232548779    12.000000000000
         C           -1.378748223864     0.881432694732    -0.007680548779    12.000000000000
         C            1.024725776136     0.239097694732    -0.001035548779    12.000000000000
         C           -3.011178223864    -0.861845305268    -0.007340548779    12.000000000000
         C           -3.820035223864     1.538464694732     0.014627451221    12.000000000000
         C           -1.949983523864    -1.796468905268    -0.000610348779    12.000000000000
         C            3.443065776136     0.236423694732     0.002805451221    12.000000000000
         C            2.850331776136     1.479823694732    -0.003074548779    12.000000000000
         H           -1.073547223864     1.924869694732    -0.014796548779     1.007825032230
         H           -4.041441223864    -1.211387305268    -0.014780548779     1.007825032230
         H           -4.160920223864     1.714287694732     1.040489451221     1.007825032230
         H           -3.472470223864     2.492109694732    -0.390952548779     1.007825032230
         H           -4.683015223864     1.208315694732    -0.570498548779     1.007825032230
         H           -2.167914223864    -2.852993305268    -0.000140548779     1.007825032230
         H            4.499209776136    -0.000710305268     0.005234451221     1.007825032230
         H            3.384944776136     2.423680694732    -0.005986548779     1.007825032230

  Basis Set: AUG-CC-PVTZ
    Blend: AUG-CC-PVTZ
  Basis Set: (AUG-CC-PVTZ AUX)
    Blend: AUG-CC-PVTZ-JKFIT
	 Reference Energy          =    -852.0612994126058766 [Eh]
	 Singles Energy            =      -0.0000000000000000 [Eh]
	 Same-Spin Energy          =      -0.5690962812535658 [Eh]
	 Opposite-Spin Energy      =      -1.7091437338509501 [Eh]
	 Correlation Energy        =      -2.2782400151045161 [Eh]
	 Total Energy              =    -854.3395394277104060 [Eh]

	 ================> DF-SCS-MP2 Energies <==================
	-----------------------------------------------------------
	 SCS Same-Spin Scale       =       0.3333333333333333 [-]
	 SCS Opposite-Spin Scale   =       1.2000000000000000 [-]
	 SCS Same-Spin Energy      =      -0.1896987604178553 [Eh]
	 SCS Opposite-Spin Energy  =      -2.0509724806211400 [Eh]
	 SCS Correlation Energy    =      -2.2406712410389953 [Eh]
	 SCS Total Energy          =    -854.3019706536448439 [Eh]
	-----------------------------------------------------------

  Dipole Moment: [D]
     X:    -1.2834      Y:     0.3619      Z:     0.0420     Total:     1.3341

*** Psi4 exiting successfully. Buy a developer a beer!
