                               Psi4 1.4a3.dev225

  ==> Input File <==

--------------------------------------------------------------------------
#psi4
#
memory 32 gb

molecule  {
0 1
  S        2.3127110    -1.0235480     0.0053950
  N       -0.6038690    -1.4671430     0.0025680
  N        1.5465020     1.4501510    -0.0053670
  C       -2.6591070     0.4777660    -0.0131840
  C       -0.3303560    -0.1463500    -0.0014890
  C       -1.3149260     0.8499960    -0.0079370
  C        1.2295619     0.0658355    -0.0005217
  C       -2.9473560    -0.8932820    -0.0075970
  C       -3.7562130     1.5070280     0.0143710
  C       -1.9011700    -1.8146870    -0.0009620
  C        3.5068880     0.2049870     0.0025490
  C        2.9141540     1.4483870    -0.0033310
  H       -1.0097250     1.8934330    -0.0150530
  H       -3.9776190    -1.2428240    -0.0150370
  H       -4.0970980     1.6828510     1.0402330
  H       -3.4086480     2.4606730    -0.3912090
  H       -4.6191930     1.1768790    -0.5707550
  H       -2.1040920    -2.8844300    -0.0003970
  H        4.5630320    -0.0321470     0.0049780
  H        3.4487670     2.3922440    -0.0062430
units angstrom
no_reorient  #important for SAPT in psi4, default
symmetry c1  #important for SAPT in psi4, default
}

set PROPERTIES_ORIGIN ["COM"]
properties('MP2/aug-cc-pvtz', properties = ['dipole'])
--------------------------------------------------------------------------

    Molecular point group: c1
  Charge       = 0
  Multiplicity = 1
  Basis Set: AUG-CC-PVTZ
    Blend: AUG-CC-PVTZ
  Basis Set: (AUG-CC-PVTZ AUX)
    Blend: AUG-CC-PVTZ-JKFIT

    Orbital Energies [Eh]
    ---------------------

    Doubly Occupied:

       1A    -92.006269     2A    -15.569351     3A    -15.566550
       4A    -11.307667     5A    -11.299542     6A    -11.278019
       7A    -11.269954     8A    -11.269796     9A    -11.253692
      10A    -11.240205    11A    -11.239667    12A    -11.238220
      13A     -9.011253    14A     -6.692647    15A     -6.691060
      16A     -6.690536    17A     -1.277485    18A     -1.251244
      19A     -1.112335    20A     -1.090760    21A     -1.046832
      22A     -0.985972    23A     -0.970308    24A     -0.863058
      25A     -0.831369    26A     -0.779567    27A     -0.748636
      28A     -0.699394    29A     -0.674095    30A     -0.668224
      31A     -0.628127    32A     -0.593564    33A     -0.579215
      34A     -0.575482    35A     -0.565810    36A     -0.551574
      37A     -0.548134    38A     -0.527014    39A     -0.513586
      40A     -0.495712    41A     -0.448931    42A     -0.424763
      43A     -0.391452    44A     -0.376224    45A     -0.365518
      46A     -0.308740

  @DF-RHF Final Energy:  -852.01405400860540

   => Energetics <=

    Nuclear Repulsion Energy =            721.5512889323953232
    One-Electron Energy =               -2598.0955779192895534
    Two-Electron Energy =                1024.5302349782887177
    Total Energy =                       -852.0140540086053988
  Basis Set: (AUG-CC-PVTZ AUX)
    Blend: AUG-CC-PVTZ-RI
    Molecular point group: c1

    Geometry (in Angstrom), charge = 0, multiplicity = 1:

       Center              X                  Y                   Z               Mass
    ------------   -----------------  -----------------  -----------------  -----------------
         S            2.240299504598    -0.983344686225     0.005605432349    31.972071174400
         N           -0.676280495402    -1.426939686225     0.002778432349    14.003074004430
         N            1.474090504598     1.490354313775    -0.005156567651    14.003074004430
         C           -2.731518495402     0.517969313775    -0.012973567651    12.000000000000
         C           -0.402767495402    -0.106146686225    -0.001278567651    12.000000000000
         C           -1.387337495402     0.890199313775    -0.007726567651    12.000000000000
         C            1.157150404598     0.106038813775    -0.000311267651    12.000000000000
         C           -3.019767495402    -0.853078686225    -0.007386567651    12.000000000000
         C           -3.828624495402     1.547231313775     0.014581432349    12.000000000000
         C           -1.973581495402    -1.774483686225    -0.000751567651    12.000000000000
         C            3.434476504598     0.245190313775     0.002759432349    12.000000000000
         C            2.841742504598     1.488590313775    -0.003120567651    12.000000000000
         H           -1.082136495402     1.933636313775    -0.014842567651     1.007825032230
         H           -4.050030495402    -1.202620686225    -0.014826567651     1.007825032230
         H           -4.169509495402     1.723054313775     1.040443432349     1.007825032230
         H           -3.481059495402     2.500876313775    -0.390998567651     1.007825032230
         H           -4.691604495402     1.217082313775    -0.570544567651     1.007825032230
         H           -2.176503495402    -2.844226686225    -0.000186567651     1.007825032230
         H            4.490620504598     0.008056313775     0.005188432349     1.007825032230
         H            3.376355504598     2.432447313775    -0.006032567651     1.007825032230

  Basis Set: AUG-CC-PVTZ
    Blend: AUG-CC-PVTZ
  Basis Set: (AUG-CC-PVTZ AUX)
    Blend: AUG-CC-PVTZ-JKFIT
	 Reference Energy          =    -852.0140540086053988 [Eh]
	 Singles Energy            =      -0.0000000000000000 [Eh]
	 Same-Spin Energy          =      -0.5716939837712779 [Eh]
	 Opposite-Spin Energy      =      -1.7127111504680830 [Eh]
	 Correlation Energy        =      -2.2844051342393610 [Eh]
	 Total Energy              =    -854.2984591428447629 [Eh]

	 ================> DF-SCS-MP2 Energies <==================
	-----------------------------------------------------------
	 SCS Same-Spin Scale       =       0.3333333333333333 [-]
	 SCS Opposite-Spin Scale   =       1.2000000000000000 [-]
	 SCS Same-Spin Energy      =      -0.1905646612570926 [Eh]
	 SCS Opposite-Spin Energy  =      -2.0552533805616995 [Eh]
	 SCS Correlation Energy    =      -2.2458180418187923 [Eh]
	 SCS Total Energy          =    -854.2598720504241783 [Eh]
	-----------------------------------------------------------

  Dipole Moment: [D]
     X:    -0.8696      Y:     0.0447      Z:     0.0435     Total:     0.8718

*** Psi4 exiting successfully. Buy a developer a beer!
