                               Psi4 1.4a3.dev225

  ==> Input File <==

--------------------------------------------------------------------------
#psi4
#
memory 32 gb

molecule  {
0 1
  S        2.3127110    -1.0235480     0.0053950
  N       -0.6038690    -1.4671430     0.0025680
  N        1.5465020     1.4501510    -0.0053670
  C       -2.6591070     0.4777660    -0.0131840
  C       -0.3303560    -0.1463500    -0.0014890
  C       -1.3342005     0.8446585    -0.0080122
  C        1.0885480     0.2076610    -0.0012920
  C       -2.9473560    -0.8932820    -0.0075970
  C       -3.7562130     1.5070280     0.0143710
  C       -1.9011700    -1.8146870    -0.0009620
  C        3.5068880     0.2049870     0.0025490
  C        2.9141540     1.4483870    -0.0033310
  H       -1.0097250     1.8934330    -0.0150530
  H       -3.9776190    -1.2428240    -0.0150370
  H       -4.0970980     1.6828510     1.0402330
  H       -3.4086480     2.4606730    -0.3912090
  H       -4.6191930     1.1768790    -0.5707550
  H       -2.1040920    -2.8844300    -0.0003970
  H        4.5630320    -0.0321470     0.0049780
  H        3.4487670     2.3922440    -0.0062430
units angstrom
no_reorient  #important for SAPT in psi4, default
symmetry c1  #important for SAPT in psi4, default
}

set PROPERTIES_ORIGIN ["COM"]
properties('MP2/aug-cc-pvtz', properties = ['dipole'])
--------------------------------------------------------------------------

    Molecular point group: c1
  Charge       = 0
  Multiplicity = 1
  Basis Set: AUG-CC-PVTZ
    Blend: AUG-CC-PVTZ
  Basis Set: (AUG-CC-PVTZ AUX)
    Blend: AUG-CC-PVTZ-JKFIT

    Orbital Energies [Eh]
    ---------------------

    Doubly Occupied:

       1A    -91.994400     2A    -15.573198     3A    -15.572171
       4A    -11.312525     5A    -11.295439     6A    -11.281008
       7A    -11.268954     8A    -11.268582     9A    -11.264022
      10A    -11.243337    11A    -11.241621    12A    -11.239180
      13A     -8.994374    14A     -6.675137    15A     -6.674588
      16A     -6.673925    17A     -1.285166    18A     -1.256972
      19A     -1.116280    20A     -1.064850    21A     -1.060231
      22A     -0.984690    23A     -0.971788    24A     -0.873176
      25A     -0.843252    26A     -0.784272    27A     -0.750536
      28A     -0.697585    29A     -0.678941    30A     -0.671339
      31A     -0.632318    32A     -0.595975    33A     -0.586894
      34A     -0.572760    35A     -0.571813    36A     -0.560542
      37A     -0.547040    38A     -0.526552    39A     -0.517068
      40A     -0.500682    41A     -0.441448    42A     -0.420626
      43A     -0.393583    44A     -0.383058    45A     -0.367150
      46A     -0.304746

  @DF-RHF Final Energy:  -852.06103449302725

   => Energetics <=

    Nuclear Repulsion Energy =            720.3997687337055140
    One-Electron Energy =               -2595.8540196943422416
    Two-Electron Energy =                1023.3932164676094771
    Total Energy =                       -852.0610344930272504
  Basis Set: (AUG-CC-PVTZ AUX)
    Blend: AUG-CC-PVTZ-RI
    Molecular point group: c1

    Geometry (in Angstrom), charge = 0, multiplicity = 1:

       Center              X                  Y                   Z               Mass
    ------------   -----------------  -----------------  -----------------  -----------------
         S            2.251225725040    -0.992648528398     0.005663066709    31.972071174400
         N           -0.665354274960    -1.436243528398     0.002836066709    14.003074004430
         N            1.485016725040     1.481050471602    -0.005098933291    14.003074004430
         C           -2.720592274960     0.508665471602    -0.012915933291    12.000000000000
         C           -0.391841274960    -0.115450528398    -0.001220933291    12.000000000000
         C           -1.395685774960     0.875557971602    -0.007744133291    12.000000000000
         C            1.027062725040     0.238560471602    -0.001023933291    12.000000000000
         C           -3.008841274960    -0.862382528398    -0.007328933291    12.000000000000
         C           -3.817698274960     1.537927471602     0.014639066709    12.000000000000
         C           -1.962655274960    -1.783787528398    -0.000693933291    12.000000000000
         C            3.445402725040     0.235886471602     0.002817066709    12.000000000000
         C            2.852668725040     1.479286471602    -0.003062933291    12.000000000000
         H           -1.071210274960     1.924332471602    -0.014784933291     1.007825032230
         H           -4.039104274960    -1.211924528398    -0.014768933291     1.007825032230
         H           -4.158583274960     1.713750471602     1.040501066709     1.007825032230
         H           -3.470133274960     2.491572471602    -0.390940933291     1.007825032230
         H           -4.680678274960     1.207778471602    -0.570486933291     1.007825032230
         H           -2.165577274960    -2.853530528398    -0.000128933291     1.007825032230
         H            4.501546725040    -0.001247528398     0.005246066709     1.007825032230
         H            3.387281725040     2.423143471602    -0.005974933291     1.007825032230

  Basis Set: AUG-CC-PVTZ
    Blend: AUG-CC-PVTZ
  Basis Set: (AUG-CC-PVTZ AUX)
    Blend: AUG-CC-PVTZ-JKFIT
	 Reference Energy          =    -852.0610344930272504 [Eh]
	 Singles Energy            =      -0.0000000000000000 [Eh]
	 Same-Spin Energy          =      -0.5691988228181786 [Eh]
	 Opposite-Spin Energy      =      -1.7093183167687052 [Eh]
	 Correlation Energy        =      -2.2785171395868837 [Eh]
	 Total Energy              =    -854.3395516326141887 [Eh]

	 ================> DF-SCS-MP2 Energies <==================
	-----------------------------------------------------------
	 SCS Same-Spin Scale       =       0.3333333333333333 [-]
	 SCS Opposite-Spin Scale   =       1.2000000000000000 [-]
	 SCS Same-Spin Energy      =      -0.1897329409393929 [Eh]
	 SCS Opposite-Spin Energy  =      -2.0511819801224460 [Eh]
	 SCS Correlation Energy    =      -2.2409149210618389 [Eh]
	 SCS Total Energy          =    -854.3019494140891084 [Eh]
	-----------------------------------------------------------

  Dipole Moment: [D]
     X:    -1.2338      Y:     0.3915      Z:     0.0415     Total:     1.2951

*** Psi4 exiting successfully. Buy a developer a beer!
