                               Psi4 1.4a3.dev225

  ==> Input File <==

--------------------------------------------------------------------------
#psi4
#
memory 32 gb

molecule  {
0 1
  S        2.3127110    -1.0235480     0.0053950
  N       -0.6038690    -1.4671430     0.0025680
  N        1.5465020     1.4501510    -0.0053670
  C       -2.6591070     0.4777660    -0.0131840
  C       -0.3303560    -0.1463500    -0.0014890
  C       -1.3149260     0.8499960    -0.0079370
  C        1.0885480     0.2076610    -0.0012920
  C       -2.9473560    -0.8932820    -0.0075970
  C       -3.7562130     1.5070280     0.0143710
  C       -1.9011700    -1.8146870    -0.0009620
  C        3.5068880     0.2049870     0.0025490
  C        2.9141540     1.4483870    -0.0033310
  H       -1.0097250     1.8934330    -0.0150530
  H       -3.9776190    -1.2428240    -0.0150370
  H       -4.0970980     1.6828510     1.0402330
  H       -3.3927490     2.5042965    -0.4097619
  H       -4.6191930     1.1768790    -0.5707550
  H       -2.1040920    -2.8844300    -0.0003970
  H        4.5630320    -0.0321470     0.0049780
  H        3.4487670     2.3922440    -0.0062430
units angstrom
no_reorient  #important for SAPT in psi4, default
symmetry c1  #important for SAPT in psi4, default
}

set PROPERTIES_ORIGIN ["COM"]
properties('MP2/aug-cc-pvtz', properties = ['dipole'])
--------------------------------------------------------------------------

    Molecular point group: c1
  Charge       = 0
  Multiplicity = 1
  Basis Set: AUG-CC-PVTZ
    Blend: AUG-CC-PVTZ
  Basis Set: (AUG-CC-PVTZ AUX)
    Blend: AUG-CC-PVTZ-JKFIT

    Orbital Energies [Eh]
    ---------------------

    Doubly Occupied:

       1A    -91.993814     2A    -15.572479     3A    -15.572065
       4A    -11.311789     5A    -11.294056     6A    -11.282128
       7A    -11.272058     8A    -11.268516     9A    -11.263390
      10A    -11.245647    11A    -11.243799    12A    -11.242071
      13A     -8.993803    14A     -6.674569    15A     -6.674018
      16A     -6.673357    17A     -1.284853    18A     -1.256734
      19A     -1.113608    20A     -1.065394    21A     -1.060335
      22A     -0.984273    23A     -0.969469    24A     -0.872154
      25A     -0.843011    26A     -0.783843    27A     -0.749440
      28A     -0.697253    29A     -0.678789    30A     -0.671185
      31A     -0.633716    32A     -0.595463    33A     -0.587643
      34A     -0.572677    35A     -0.571560    36A     -0.555868
      37A     -0.546200    38A     -0.526376    39A     -0.513769
      40A     -0.500463    41A     -0.441345    42A     -0.421381
      43A     -0.393629    44A     -0.381779    45A     -0.366420
      46A     -0.305074

  @DF-RHF Final Energy:  -852.05938425343197

   => Energetics <=

    Nuclear Repulsion Energy =            720.1572493111915492
    One-Electron Energy =               -2595.3907426564983325
    Two-Electron Energy =                1023.1741090918746977
    Total Energy =                       -852.0593842534319720
  Basis Set: (AUG-CC-PVTZ AUX)
    Blend: AUG-CC-PVTZ-RI
    Molecular point group: c1

    Geometry (in Angstrom), charge = 0, multiplicity = 1:

       Center              X                  Y                   Z               Mass
    ------------   -----------------  -----------------  -----------------  -----------------
         S            2.249820838316    -0.993262106860     0.005764155065    31.972071174400
         N           -0.666759161684    -1.436857106860     0.002937155065    14.003074004430
         N            1.483611838316     1.480436893140    -0.004997844935    14.003074004430
         C           -2.721997161684     0.508051893140    -0.012814844935    12.000000000000
         C           -0.393246161684    -0.116064106860    -0.001119844935    12.000000000000
         C           -1.377816161684     0.880281893140    -0.007567844935    12.000000000000
         C            1.025657838316     0.237946893140    -0.000922844935    12.000000000000
         C           -3.010246161684    -0.862996106860    -0.007227844935    12.000000000000
         C           -3.819103161684     1.537313893140     0.014740155065    12.000000000000
         C           -1.964060161684    -1.784401106860    -0.000592844935    12.000000000000
         C            3.443997838316     0.235272893140     0.002918155065    12.000000000000
         C            2.851263838316     1.478672893140    -0.002961844935    12.000000000000
         H           -1.072615161684     1.923718893140    -0.014683844935     1.007825032230
         H           -4.040509161684    -1.212538106860    -0.014667844935     1.007825032230
         H           -4.159988161684     1.713136893140     1.040602155065     1.007825032230
         H           -3.455639161684     2.534582393140    -0.409392744935     1.007825032230
         H           -4.682083161684     1.207164893140    -0.570385844935     1.007825032230
         H           -2.166982161684    -2.854144106860    -0.000027844935     1.007825032230
         H            4.500141838316    -0.001861106860     0.005347155065     1.007825032230
         H            3.385876838316     2.422529893140    -0.005873844935     1.007825032230

  Basis Set: AUG-CC-PVTZ
    Blend: AUG-CC-PVTZ
  Basis Set: (AUG-CC-PVTZ AUX)
    Blend: AUG-CC-PVTZ-JKFIT
	 Reference Energy          =    -852.0593842534319720 [Eh]
	 Singles Energy            =      -0.0000000000000000 [Eh]
	 Same-Spin Energy          =      -0.5691675401055163 [Eh]
	 Opposite-Spin Energy      =      -1.7096311487052231 [Eh]
	 Correlation Energy        =      -2.2787986888107392 [Eh]
	 Total Energy              =    -854.3381829422427245 [Eh]

	 ================> DF-SCS-MP2 Energies <==================
	-----------------------------------------------------------
	 SCS Same-Spin Scale       =       0.3333333333333333 [-]
	 SCS Opposite-Spin Scale   =       1.2000000000000000 [-]
	 SCS Same-Spin Energy      =      -0.1897225133685054 [Eh]
	 SCS Opposite-Spin Energy  =      -2.0515573784462675 [Eh]
	 SCS Correlation Energy    =      -2.2412798918147727 [Eh]
	 SCS Total Energy          =    -854.3006641452467420 [Eh]
	-----------------------------------------------------------

  Dipole Moment: [D]
     X:    -1.2733      Y:     0.3713      Z:     0.0484     Total:     1.3273

*** Psi4 exiting successfully. Buy a developer a beer!
