                               Psi4 1.4a3.dev225

  ==> Input File <==

--------------------------------------------------------------------------
#psi4
#
memory 32 gb

molecule  {
0 1
  S        2.3127110    -1.0235480     0.0053950
  N       -0.6038690    -1.4671430     0.0025680
  N        1.5465020     1.4501510    -0.0053670
  C       -2.6591070     0.4777660    -0.0131840
  C       -0.3303560    -0.1463500    -0.0014890
  C       -1.3149260     0.8499960    -0.0079370
  C        1.0885480     0.2076610    -0.0012920
  C       -2.9473560    -0.8932820    -0.0075970
  C       -3.7562130     1.5070280     0.0143710
  C       -1.9977635    -1.8405642    -0.0012248
  C        3.5068880     0.2049870     0.0025490
  C        2.9141540     1.4483870    -0.0033310
  H       -1.0097250     1.8934330    -0.0150530
  H       -3.9776190    -1.2428240    -0.0150370
  H       -4.0970980     1.6828510     1.0402330
  H       -3.4086480     2.4606730    -0.3912090
  H       -4.6191930     1.1768790    -0.5707550
  H       -2.1040920    -2.8844300    -0.0003970
  H        4.5630320    -0.0321470     0.0049780
  H        3.4487670     2.3922440    -0.0062430
units angstrom
no_reorient  #important for SAPT in psi4, default
symmetry c1  #important for SAPT in psi4, default
}

set PROPERTIES_ORIGIN ["COM"]
properties('MP2/aug-cc-pvtz', properties = ['dipole'])
--------------------------------------------------------------------------

    Molecular point group: c1
  Charge       = 0
  Multiplicity = 1
  Basis Set: AUG-CC-PVTZ
    Blend: AUG-CC-PVTZ
  Basis Set: (AUG-CC-PVTZ AUX)
    Blend: AUG-CC-PVTZ-JKFIT

    Orbital Energies [Eh]
    ---------------------

    Doubly Occupied:

       1A    -91.993458     2A    -15.575484     3A    -15.573301
       4A    -11.311680     5A    -11.294000     6A    -11.279687
       7A    -11.273185     8A    -11.268257     9A    -11.263656
      10A    -11.241609    11A    -11.240698    12A    -11.240399
      13A     -8.993434    14A     -6.674196    15A     -6.673641
      16A     -6.672981    17A     -1.282031    18A     -1.238524
      19A     -1.111987    20A     -1.065900    21A     -1.059179
      22A     -0.989654    23A     -0.971933    24A     -0.864545
      25A     -0.850813    26A     -0.784409    27A     -0.749239
      28A     -0.697768    29A     -0.676139    30A     -0.670472
      31A     -0.639786    32A     -0.595441    33A     -0.590684
      34A     -0.571658    35A     -0.571291    36A     -0.558502
      37A     -0.544303    38A     -0.519470    39A     -0.512822
      40A     -0.501037    41A     -0.441765    42A     -0.420690
      43A     -0.397138    44A     -0.383002    45A     -0.356547
      46A     -0.309954

  @DF-RHF Final Energy:  -852.04761923861429

   => Energetics <=

    Nuclear Repulsion Energy =            718.9385796980592431
    One-Electron Energy =               -2592.9797013355841955
    Two-Electron Energy =                1021.9935023989107776
    Total Energy =                       -852.0476192386142884
  Basis Set: (AUG-CC-PVTZ AUX)
    Blend: AUG-CC-PVTZ-RI
    Molecular point group: c1

    Geometry (in Angstrom), charge = 0, multiplicity = 1:

       Center              X                  Y                   Z               Mass
    ------------   -----------------  -----------------  -----------------  -----------------
         S            2.256496252654    -0.991248419032     0.005675854652    31.972071174400
         N           -0.660083747346    -1.434843419032     0.002848854652    14.003074004430
         N            1.490287252654     1.482450580968    -0.005086145348    14.003074004430
         C           -2.715321747346     0.510065580968    -0.012903145348    12.000000000000
         C           -0.386570747346    -0.114050419032    -0.001208145348    12.000000000000
         C           -1.371140747346     0.882295580968    -0.007656145348    12.000000000000
         C            1.032333252654     0.239960580968    -0.001011145348    12.000000000000
         C           -3.003570747346    -0.860982419032    -0.007316145348    12.000000000000
         C           -3.812427747346     1.539327580968     0.014651854652    12.000000000000
         C           -2.053978247346    -1.808264619032    -0.000943945348    12.000000000000
         C            3.450673252654     0.237286580968     0.002829854652    12.000000000000
         C            2.857939252654     1.480686580968    -0.003050145348    12.000000000000
         H           -1.065939747346     1.925732580968    -0.014772145348     1.007825032230
         H           -4.033833747346    -1.210524419032    -0.014756145348     1.007825032230
         H           -4.153312747346     1.715150580968     1.040513854652     1.007825032230
         H           -3.464862747346     2.492972580968    -0.390928145348     1.007825032230
         H           -4.675407747346     1.209178580968    -0.570474145348     1.007825032230
         H           -2.160306747346    -2.852130419032    -0.000116145348     1.007825032230
         H            4.506817252654     0.000152580968     0.005258854652     1.007825032230
         H            3.392552252654     2.424543580968    -0.005962145348     1.007825032230

  Basis Set: AUG-CC-PVTZ
    Blend: AUG-CC-PVTZ
  Basis Set: (AUG-CC-PVTZ AUX)
    Blend: AUG-CC-PVTZ-JKFIT
	 Reference Energy          =    -852.0476192386142884 [Eh]
	 Singles Energy            =      -0.0000000000000000 [Eh]
	 Same-Spin Energy          =      -0.5694847639216279 [Eh]
	 Opposite-Spin Energy      =      -1.7117272755989803 [Eh]
	 Correlation Energy        =      -2.2812120395206081 [Eh]
	 Total Energy              =    -854.3288312781348850 [Eh]

	 ================> DF-SCS-MP2 Energies <==================
	-----------------------------------------------------------
	 SCS Same-Spin Scale       =       0.3333333333333333 [-]
	 SCS Opposite-Spin Scale   =       1.2000000000000000 [-]
	 SCS Same-Spin Energy      =      -0.1898282546405426 [Eh]
	 SCS Opposite-Spin Energy  =      -2.0540727307187763 [Eh]
	 SCS Correlation Energy    =      -2.2439009853593190 [Eh]
	 SCS Total Energy          =    -854.2915202239736345 [Eh]
	-----------------------------------------------------------

  Dipole Moment: [D]
     X:    -1.3135      Y:     0.3982      Z:     0.0413     Total:     1.3732

*** Psi4 exiting successfully. Buy a developer a beer!
