                               Psi4 1.4a3.dev225

  ==> Input File <==

--------------------------------------------------------------------------
#psi4
#
memory 32 gb

molecule  {
0 1
  S        2.3127110    -1.0235480     0.0053950
  N       -0.6038690    -1.4671430     0.0025680
  N        1.5465020     1.4501510    -0.0053670
  C       -2.6591070     0.4777660    -0.0131840
  C       -0.3303560    -0.1463500    -0.0014890
  C       -1.3149260     0.8499960    -0.0079370
  C        1.0885480     0.2076610    -0.0012920
  C       -2.9473560    -0.8932820    -0.0075970
  C       -3.7562130     1.5070280     0.0143710
  C       -1.7079830    -1.7629326    -0.0004363
  C        3.5068880     0.2049870     0.0025490
  C        2.9141540     1.4483870    -0.0033310
  H       -1.0097250     1.8934330    -0.0150530
  H       -3.9776190    -1.2428240    -0.0150370
  H       -4.0970980     1.6828510     1.0402330
  H       -3.4086480     2.4606730    -0.3912090
  H       -4.6191930     1.1768790    -0.5707550
  H       -2.1040920    -2.8844300    -0.0003970
  H        4.5630320    -0.0321470     0.0049780
  H        3.4487670     2.3922440    -0.0062430
units angstrom
no_reorient  #important for SAPT in psi4, default
symmetry c1  #important for SAPT in psi4, default
}

set PROPERTIES_ORIGIN ["COM"]
properties('MP2/aug-cc-pvtz', properties = ['dipole'])
--------------------------------------------------------------------------

    Molecular point group: c1
  Charge       = 0
  Multiplicity = 1
  Basis Set: AUG-CC-PVTZ
    Blend: AUG-CC-PVTZ
  Basis Set: (AUG-CC-PVTZ AUX)
    Blend: AUG-CC-PVTZ-JKFIT

    Orbital Energies [Eh]
    ---------------------

    Doubly Occupied:

       1A    -91.994819     2A    -15.570611     3A    -15.558861
       4A    -11.312655     5A    -11.294843     6A    -11.281297
       7A    -11.269423     8A    -11.267162     9A    -11.262890
      10A    -11.249477    11A    -11.246700    12A    -11.237595
      13A     -8.994872    14A     -6.675650    15A     -6.675109
      16A     -6.674441    17A     -1.336904    18A     -1.275772
      19A     -1.122733    20A     -1.066411    21A     -1.063045
      22A     -0.977983    23A     -0.965263    24A     -0.889421
      25A     -0.829005    26A     -0.779847    27A     -0.755743
      28A     -0.700825    29A     -0.689434    30A     -0.673878
      31A     -0.623306    32A     -0.604357    33A     -0.579199
      34A     -0.578223    35A     -0.572783    36A     -0.568867
      37A     -0.553504    38A     -0.547596    39A     -0.518143
      40A     -0.499676    41A     -0.434315    42A     -0.405569
      43A     -0.399367    44A     -0.387862    45A     -0.370470
      46A     -0.295472

  @DF-RHF Final Energy:  -852.00468276187007

   => Energetics <=

    Nuclear Repulsion Energy =            723.8563524359394705
    One-Electron Energy =               -2602.4593219955181667
    Two-Electron Energy =                1026.5982867977086244
    Total Energy =                       -852.0046827618700718
  Basis Set: (AUG-CC-PVTZ AUX)
    Blend: AUG-CC-PVTZ-RI
    Molecular point group: c1

    Geometry (in Angstrom), charge = 0, multiplicity = 1:

       Center              X                  Y                   Z               Mass
    ------------   -----------------  -----------------  -----------------  -----------------
         S            2.236743072618    -0.996540255340     0.005622105755    31.972071174400
         N           -0.679836927382    -1.440135255340     0.002795105755    14.003074004430
         N            1.470534072618     1.477158744660    -0.005139894245    14.003074004430
         C           -2.735074927382     0.504773744660    -0.012956894245    12.000000000000
         C           -0.406323927382    -0.119342255340    -0.001261894245    12.000000000000
         C           -1.390893927382     0.877003744660    -0.007709894245    12.000000000000
         C            1.012580072618     0.234668744660    -0.001064894245    12.000000000000
         C           -3.023323927382    -0.866274255340    -0.007369894245    12.000000000000
         C           -3.832180927382     1.534035744660     0.014598105755    12.000000000000
         C           -1.783950927382    -1.735924855340    -0.000209194245    12.000000000000
         C            3.430920072618     0.231994744660     0.002776105755    12.000000000000
         C            2.838186072618     1.475394744660    -0.003103894245    12.000000000000
         H           -1.085692927382     1.920440744660    -0.014825894245     1.007825032230
         H           -4.053586927382    -1.215816255340    -0.014809894245     1.007825032230
         H           -4.173065927382     1.709858744660     1.040460105755     1.007825032230
         H           -3.484615927382     2.487680744660    -0.390981894245     1.007825032230
         H           -4.695160927382     1.203886744660    -0.570527894245     1.007825032230
         H           -2.180059927382    -2.857422255340    -0.000169894245     1.007825032230
         H            4.487064072618    -0.005139255340     0.005205105755     1.007825032230
         H            3.372799072618     2.419251744660    -0.006015894245     1.007825032230

  Basis Set: AUG-CC-PVTZ
    Blend: AUG-CC-PVTZ
  Basis Set: (AUG-CC-PVTZ AUX)
    Blend: AUG-CC-PVTZ-JKFIT
	 Reference Energy          =    -852.0046827618700718 [Eh]
	 Singles Energy            =      -0.0000000000000000 [Eh]
	 Same-Spin Energy          =      -0.5671351099855012 [Eh]
	 Opposite-Spin Energy      =      -1.7071588112875569 [Eh]
	 Correlation Energy        =      -2.2742939212730580 [Eh]
	 Total Energy              =    -854.2789766831431280 [Eh]

	 ================> DF-SCS-MP2 Energies <==================
	-----------------------------------------------------------
	 SCS Same-Spin Scale       =       0.3333333333333333 [-]
	 SCS Opposite-Spin Scale   =       1.2000000000000000 [-]
	 SCS Same-Spin Energy      =      -0.1890450366618337 [Eh]
	 SCS Opposite-Spin Energy  =      -2.0485905735450682 [Eh]
	 SCS Correlation Energy    =      -2.2376356102069019 [Eh]
	 SCS Total Energy          =    -854.2423183720769657 [Eh]
	-----------------------------------------------------------

  Dipole Moment: [D]
     X:    -0.9656      Y:     0.4582      Z:     0.0438     Total:     1.0697

*** Psi4 exiting successfully. Buy a developer a beer!
