                               Psi4 1.4a3.dev225

  ==> Input File <==

--------------------------------------------------------------------------
#psi4
#
memory 32 gb

molecule  {
0 1
  S        2.3127110    -1.0235480     0.0053950
  N       -0.6038690    -1.4671430     0.0025680
  N        1.5465020     1.4501510    -0.0053670
  C       -2.6591070     0.4777660    -0.0131840
  C       -0.3303560    -0.1463500    -0.0014890
  C       -1.3149260     0.8499960    -0.0079370
  C        0.9475341     0.3494865    -0.0020623
  C       -2.9473560    -0.8932820    -0.0075970
  C       -3.7562130     1.5070280     0.0143710
  C       -1.9011700    -1.8146870    -0.0009620
  C        3.5068880     0.2049870     0.0025490
  C        2.9141540     1.4483870    -0.0033310
  H       -1.0097250     1.8934330    -0.0150530
  H       -3.9776190    -1.2428240    -0.0150370
  H       -4.0970980     1.6828510     1.0402330
  H       -3.4086480     2.4606730    -0.3912090
  H       -4.6191930     1.1768790    -0.5707550
  H       -2.1040920    -2.8844300    -0.0003970
  H        4.5630320    -0.0321470     0.0049780
  H        3.4487670     2.3922440    -0.0062430
units angstrom
no_reorient  #important for SAPT in psi4, default
symmetry c1  #important for SAPT in psi4, default
}

set PROPERTIES_ORIGIN ["COM"]
properties('MP2/aug-cc-pvtz', properties = ['dipole'])
--------------------------------------------------------------------------

    Molecular point group: c1
  Charge       = 0
  Multiplicity = 1
  Basis Set: AUG-CC-PVTZ
    Blend: AUG-CC-PVTZ
  Basis Set: (AUG-CC-PVTZ AUX)
    Blend: AUG-CC-PVTZ-JKFIT

    Orbital Energies [Eh]
    ---------------------

    Doubly Occupied:

       1A    -91.970046     2A    -15.579385     3A    -15.577389
       4A    -11.318387     5A    -11.293953     6A    -11.287690
       7A    -11.275542     8A    -11.269382     9A    -11.266829
      10A    -11.249417    11A    -11.247497    12A    -11.243033
      13A     -8.969011    14A     -6.649820    15A     -6.648895
      16A     -6.648480    17A     -1.297424    18A     -1.264556
      19A     -1.118434    20A     -1.086208    21A     -1.051660
      22A     -0.981934    23A     -0.970685    24A     -0.885003
      25A     -0.856653    26A     -0.791470    27A     -0.749917
      28A     -0.696136    29A     -0.687363    30A     -0.673907
      31A     -0.644986    32A     -0.611882    33A     -0.601645
      34A     -0.579553    35A     -0.569032    36A     -0.567250
      37A     -0.541119    38A     -0.527765    39A     -0.520728
      40A     -0.488077    41A     -0.435869    42A     -0.408154
      43A     -0.391387    44A     -0.381994    45A     -0.365528
      46A     -0.297394

  @DF-RHF Final Energy:  -852.03108188181920

   => Energetics <=

    Nuclear Repulsion Energy =            719.6909821221860284
    One-Electron Energy =               -2594.3671933037344388
    Two-Electron Energy =                1022.6451292997290921
    Total Energy =                       -852.0310818818192047
  Basis Set: (AUG-CC-PVTZ AUX)
    Blend: AUG-CC-PVTZ-RI
    Molecular point group: c1

    Geometry (in Angstrom), charge = 0, multiplicity = 1:

       Center              X                  Y                   Z               Mass
    ------------   -----------------  -----------------  -----------------  -----------------
         S            2.259524214019    -1.002680042711     0.005710448902    31.972071174400
         N           -0.657055785981    -1.446275042711     0.002883448902    14.003074004430
         N            1.493315214019     1.471018957289    -0.005051551098    14.003074004430
         C           -2.712293785981     0.498633957289    -0.012868551098    12.000000000000
         C           -0.383542785981    -0.125482042711    -0.001173551098    12.000000000000
         C           -1.368112785981     0.870863957289    -0.007621551098    12.000000000000
         C            0.894347314019     0.370354457289    -0.001746851098    12.000000000000
         C           -3.000542785981    -0.872414042711    -0.007281551098    12.000000000000
         C           -3.809399785981     1.527895957289     0.014686448902    12.000000000000
         C           -1.954356785981    -1.793819042711    -0.000646551098    12.000000000000
         C            3.453701214019     0.225854957289     0.002864448902    12.000000000000
         C            2.860967214019     1.469254957289    -0.003015551098    12.000000000000
         H           -1.062911785981     1.914300957289    -0.014737551098     1.007825032230
         H           -4.030805785981    -1.221956042711    -0.014721551098     1.007825032230
         H           -4.150284785981     1.703718957289     1.040548448902     1.007825032230
         H           -3.461834785981     2.481540957289    -0.390893551098     1.007825032230
         H           -4.672379785981     1.197746957289    -0.570439551098     1.007825032230
         H           -2.157278785981    -2.863562042711    -0.000081551098     1.007825032230
         H            4.509845214019    -0.011279042711     0.005293448902     1.007825032230
         H            3.395580214019     2.413111957289    -0.005927551098     1.007825032230

  Basis Set: AUG-CC-PVTZ
    Blend: AUG-CC-PVTZ
  Basis Set: (AUG-CC-PVTZ AUX)
    Blend: AUG-CC-PVTZ-JKFIT
	 Reference Energy          =    -852.0310818818192047 [Eh]
	 Singles Energy            =      -0.0000000000000000 [Eh]
	 Same-Spin Energy          =      -0.5705761371196530 [Eh]
	 Opposite-Spin Energy      =      -1.7118812514785755 [Eh]
	 Correlation Energy        =      -2.2824573885982287 [Eh]
	 Total Energy              =    -854.3135392704174365 [Eh]

	 ================> DF-SCS-MP2 Energies <==================
	-----------------------------------------------------------
	 SCS Same-Spin Scale       =       0.3333333333333333 [-]
	 SCS Opposite-Spin Scale   =       1.2000000000000000 [-]
	 SCS Same-Spin Energy      =      -0.1901920457065510 [Eh]
	 SCS Opposite-Spin Energy  =      -2.0542575017742903 [Eh]
	 SCS Correlation Energy    =      -2.2444495474808415 [Eh]
	 SCS Total Energy          =    -854.2755314293000310 [Eh]
	-----------------------------------------------------------

  Dipole Moment: [D]
     X:    -2.1264      Y:     0.9734      Z:     0.0392     Total:     2.3390

*** Psi4 exiting successfully. Buy a developer a beer!
