                               Psi4 1.4a3.dev225

  ==> Input File <==

--------------------------------------------------------------------------
#psi4
#
memory 32 gb

molecule  {
0 1
  S        2.3127110    -1.0235480     0.0053950
  N       -0.6038690    -1.4671430     0.0025680
  N        1.5465020     1.4501510    -0.0053670
  C       -2.6591070     0.4777660    -0.0131840
  C       -0.3303560    -0.1463500    -0.0014890
  C       -1.3149260     0.8499960    -0.0079370
  C        1.0712563     0.1607464    -0.0011381
  C       -2.9473560    -0.8932820    -0.0075970
  C       -3.7562130     1.5070280     0.0143710
  C       -1.9011700    -1.8146870    -0.0009620
  C        3.5068880     0.2049870     0.0025490
  C        2.9141540     1.4483870    -0.0033310
  H       -1.0097250     1.8934330    -0.0150530
  H       -3.9776190    -1.2428240    -0.0150370
  H       -4.0970980     1.6828510     1.0402330
  H       -3.4086480     2.4606730    -0.3912090
  H       -4.6191930     1.1768790    -0.5707550
  H       -2.1040920    -2.8844300    -0.0003970
  H        4.5630320    -0.0321470     0.0049780
  H        3.4487670     2.3922440    -0.0062430
units angstrom
no_reorient  #important for SAPT in psi4, default
symmetry c1  #important for SAPT in psi4, default
}

set PROPERTIES_ORIGIN ["COM"]
properties('MP2/aug-cc-pvtz', properties = ['dipole'])
--------------------------------------------------------------------------

    Molecular point group: c1
  Charge       = 0
  Multiplicity = 1
  Basis Set: AUG-CC-PVTZ
    Blend: AUG-CC-PVTZ
  Basis Set: (AUG-CC-PVTZ AUX)
    Blend: AUG-CC-PVTZ-JKFIT

    Orbital Energies [Eh]
    ---------------------

    Doubly Occupied:

       1A    -91.998000     2A    -15.574041     3A    -15.571161
       4A    -11.312482     5A    -11.292202     6A    -11.281514
       7A    -11.271729     8A    -11.268963     9A    -11.262728
      10A    -11.243503    11A    -11.242581    12A    -11.239808
      13A     -8.997904    14A     -6.678661    15A     -6.678178
      16A     -6.677531    17A     -1.278311    18A     -1.250765
      19A     -1.114243    20A     -1.066754    21A     -1.060235
      22A     -0.984571    23A     -0.972465    24A     -0.875398
      25A     -0.844307    26A     -0.778133    27A     -0.752304
      28A     -0.696468    29A     -0.679043    30A     -0.671318
      31A     -0.634006    32A     -0.595851    33A     -0.586445
      34A     -0.571856    35A     -0.570536    36A     -0.560878
      37A     -0.547424    38A     -0.524789    39A     -0.516533
      40A     -0.501211    41A     -0.438846    42A     -0.423298
      43A     -0.390501    44A     -0.382888    45A     -0.367597
      46A     -0.301335

  @DF-RHF Final Energy:  -852.05471466969573

   => Energetics <=

    Nuclear Repulsion Energy =            720.4272287984056220
    One-Electron Energy =               -2595.9052902223979800
    Two-Electron Energy =                1023.4233467542966309
    Total Energy =                       -852.0547146696957270
  Basis Set: (AUG-CC-PVTZ AUX)
    Blend: AUG-CC-PVTZ-RI
    Molecular point group: c1

    Geometry (in Angstrom), charge = 0, multiplicity = 1:

       Center              X                  Y                   Z               Mass
    ------------   -----------------  -----------------  -----------------  -----------------
         S            2.251090565478    -0.989814383444     0.005647449877    31.972071174400
         N           -0.665489434522    -1.433409383444     0.002820449877    14.003074004430
         N            1.484881565478     1.483884616556    -0.005114550123    14.003074004430
         C           -2.720727434522     0.511499616556    -0.012931550123    12.000000000000
         C           -0.391976434522    -0.112616383444    -0.001236550123    12.000000000000
         C           -1.376546434522     0.883729616556    -0.007684550123    12.000000000000
         C            1.009635865478     0.194480016556    -0.000885650123    12.000000000000
         C           -3.008976434522    -0.859548383444    -0.007344550123    12.000000000000
         C           -3.817833434522     1.540761616556     0.014623449877    12.000000000000
         C           -1.962790434522    -1.780953383444    -0.000709550123    12.000000000000
         C            3.445267565478     0.238720616556     0.002801449877    12.000000000000
         C            2.852533565478     1.482120616556    -0.003078550123    12.000000000000
         H           -1.071345434522     1.927166616556    -0.014800550123     1.007825032230
         H           -4.039239434522    -1.209090383444    -0.014784550123     1.007825032230
         H           -4.158718434522     1.716584616556     1.040485449877     1.007825032230
         H           -3.470268434522     2.494406616556    -0.390956550123     1.007825032230
         H           -4.680813434522     1.210612616556    -0.570502550123     1.007825032230
         H           -2.165712434522    -2.850696383444    -0.000144550123     1.007825032230
         H            4.501411565478     0.001586616556     0.005230449877     1.007825032230
         H            3.387146565478     2.425977616556    -0.005990550123     1.007825032230

  Basis Set: AUG-CC-PVTZ
    Blend: AUG-CC-PVTZ
  Basis Set: (AUG-CC-PVTZ AUX)
    Blend: AUG-CC-PVTZ-JKFIT
	 Reference Energy          =    -852.0547146696957270 [Eh]
	 Singles Energy            =      -0.0000000000000000 [Eh]
	 Same-Spin Energy          =      -0.5707848322719422 [Eh]
	 Opposite-Spin Energy      =      -1.7116254903427091 [Eh]
	 Correlation Energy        =      -2.2824103226146510 [Eh]
	 Total Energy              =    -854.3371249923103505 [Eh]

	 ================> DF-SCS-MP2 Energies <==================
	-----------------------------------------------------------
	 SCS Same-Spin Scale       =       0.3333333333333333 [-]
	 SCS Opposite-Spin Scale   =       1.2000000000000000 [-]
	 SCS Same-Spin Energy      =      -0.1902616107573141 [Eh]
	 SCS Opposite-Spin Energy  =      -2.0539505884112508 [Eh]
	 SCS Correlation Energy    =      -2.2442121991685648 [Eh]
	 SCS Total Energy          =    -854.2989268688643278 [Eh]
	-----------------------------------------------------------

  Dipole Moment: [D]
     X:    -1.1574      Y:     0.3352      Z:     0.0424     Total:     1.2057

*** Psi4 exiting successfully. Buy a developer a beer!
