                               Psi4 1.4a3.dev225

  ==> Input File <==

--------------------------------------------------------------------------
#psi4
#
memory 32 gb

molecule  {
0 1
  S        2.3127110    -1.0235480     0.0053950
  N       -0.6038690    -1.4671430     0.0025680
  N        1.5465020     1.4501510    -0.0053670
  C       -2.6591070     0.4777660    -0.0131840
  C       -0.3303560    -0.1463500    -0.0014890
  C       -1.3149260     0.8499960    -0.0079370
  C        1.0885480     0.2076610    -0.0012920
  C       -2.9473560    -0.8932820    -0.0075970
  C       -3.7562130     1.5070280     0.0143710
  C       -1.9011700    -1.8146870    -0.0009620
  C        3.5068880     0.2049870     0.0025490
  C        2.9141540     1.4483870    -0.0033310
  H       -1.0097250     1.8934330    -0.0150530
  H       -3.9776190    -1.2428240    -0.0150370
  H       -4.0970980     1.6828510     1.0402330
  H       -3.4022884     2.4781224    -0.3986301
  H       -4.6191930     1.1768790    -0.5707550
  H       -2.1040920    -2.8844300    -0.0003970
  H        4.5630320    -0.0321470     0.0049780
  H        3.4487670     2.3922440    -0.0062430
units angstrom
no_reorient  #important for SAPT in psi4, default
symmetry c1  #important for SAPT in psi4, default
}

set PROPERTIES_ORIGIN ["COM"]
properties('MP2/aug-cc-pvtz', properties = ['dipole'])
--------------------------------------------------------------------------

    Molecular point group: c1
  Charge       = 0
  Multiplicity = 1
  Basis Set: AUG-CC-PVTZ
    Blend: AUG-CC-PVTZ
  Basis Set: (AUG-CC-PVTZ AUX)
    Blend: AUG-CC-PVTZ-JKFIT

    Orbital Energies [Eh]
    ---------------------

    Doubly Occupied:

       1A    -91.993785     2A    -15.572451     3A    -15.571966
       4A    -11.311762     5A    -11.294009     6A    -11.281996
       7A    -11.271789     8A    -11.268494     9A    -11.263364
      10A    -11.243574    11A    -11.242159    12A    -11.242018
      13A     -8.993774    14A     -6.674539    15A     -6.673988
      16A     -6.673327    17A     -1.284810    18A     -1.256657
      19A     -1.113763    20A     -1.065339    21A     -1.060302
      22A     -0.984326    23A     -0.971173    24A     -0.872072
      25A     -0.843520    26A     -0.783912    27A     -0.749533
      28A     -0.697365    29A     -0.678937    30A     -0.671288
      31A     -0.633890    32A     -0.595655    33A     -0.587576
      34A     -0.572628    35A     -0.571466    36A     -0.559314
      37A     -0.546804    38A     -0.526417    39A     -0.514646
      40A     -0.500467    41A     -0.441298    42A     -0.421299
      43A     -0.393579    44A     -0.381705    45A     -0.366388
      46A     -0.305021

  @DF-RHF Final Energy:  -852.06101211520615

   => Energetics <=

    Nuclear Repulsion Energy =            720.2772045260670666
    One-Electron Energy =               -2595.6281381486005557
    Two-Electron Energy =                1023.2899215073272217
    Total Energy =                       -852.0610121152061538
  Basis Set: (AUG-CC-PVTZ AUX)
    Blend: AUG-CC-PVTZ-RI
    Molecular point group: c1

    Geometry (in Angstrom), charge = 0, multiplicity = 1:

       Center              X                  Y                   Z               Mass
    ------------   -----------------  -----------------  -----------------  -----------------
         S            2.249875450911    -0.993112261425     0.005700426058    31.972071174400
         N           -0.666704549089    -1.436707261425     0.002873426058    14.003074004430
         N            1.483666450911     1.480586738575    -0.005061573942    14.003074004430
         C           -2.721942549089     0.508201738575    -0.012878573942    12.000000000000
         C           -0.393191549089    -0.115914261425    -0.001183573942    12.000000000000
         C           -1.377761549089     0.880431738575    -0.007631573942    12.000000000000
         C            1.025712450911     0.238096738575    -0.000986573942    12.000000000000
         C           -3.010191549089    -0.862846261425    -0.007291573942    12.000000000000
         C           -3.819048549089     1.537463738575     0.014676426058    12.000000000000
         C           -1.964005549089    -1.784251261425    -0.000656573942    12.000000000000
         C            3.444052450911     0.235422738575     0.002854426058    12.000000000000
         C            2.851318450911     1.478822738575    -0.003025573942    12.000000000000
         H           -1.072560549089     1.923868738575    -0.014747573942     1.007825032230
         H           -4.040454549089    -1.212388261425    -0.014731573942     1.007825032230
         H           -4.159933549089     1.713286738575     1.040538426058     1.007825032230
         H           -3.465123949089     2.508558138575    -0.398324673942     1.007825032230
         H           -4.682028549089     1.207314738575    -0.570449573942     1.007825032230
         H           -2.166927549089    -2.853994261425    -0.000091573942     1.007825032230
         H            4.500196450911    -0.001711261425     0.005283426058     1.007825032230
         H            3.385931450911     2.422679738575    -0.005937573942     1.007825032230

  Basis Set: AUG-CC-PVTZ
    Blend: AUG-CC-PVTZ
  Basis Set: (AUG-CC-PVTZ AUX)
    Blend: AUG-CC-PVTZ-JKFIT
	 Reference Energy          =    -852.0610121152061538 [Eh]
	 Singles Energy            =      -0.0000000000000000 [Eh]
	 Same-Spin Energy          =      -0.5691547737239122 [Eh]
	 Opposite-Spin Energy      =      -1.7094066462228550 [Eh]
	 Correlation Energy        =      -2.2785614199467670 [Eh]
	 Total Energy              =    -854.3395735351529083 [Eh]

	 ================> DF-SCS-MP2 Energies <==================
	-----------------------------------------------------------
	 SCS Same-Spin Scale       =       0.3333333333333333 [-]
	 SCS Opposite-Spin Scale   =       1.2000000000000000 [-]
	 SCS Same-Spin Energy      =      -0.1897182579079707 [Eh]
	 SCS Opposite-Spin Energy  =      -2.0512879754674258 [Eh]
	 SCS Correlation Energy    =      -2.2410062333753964 [Eh]
	 SCS Total Energy          =    -854.3020183485815551 [Eh]
	-----------------------------------------------------------

  Dipole Moment: [D]
     X:    -1.2775      Y:     0.3859      Z:     0.0445     Total:     1.3353

*** Psi4 exiting successfully. Buy a developer a beer!
