                               Psi4 1.4a3.dev225

  ==> Input File <==

--------------------------------------------------------------------------
#psi4
#
memory 32 gb

molecule  {
0 1
  S        2.3127110    -1.0235480     0.0053950
  N       -0.6038690    -1.4671430     0.0025680
  N        1.5465020     1.4501510    -0.0053670
  C       -2.6591070     0.4777660    -0.0131840
  C       -0.3303560    -0.1463500    -0.0014890
  C       -1.3149260     0.8499960    -0.0079370
  C        1.0885480     0.2076610    -0.0012920
  C       -2.9473560    -0.8932820    -0.0075970
  C       -3.7562130     1.5070280     0.0143710
  C       -1.9011700    -1.8146870    -0.0009620
  C        3.5068880     0.2049870     0.0025490
  C        2.9141540     1.4483870    -0.0033310
  H       -1.0097250     1.8934330    -0.0150530
  H       -3.9776190    -1.2428240    -0.0150370
  H       -4.0970980     1.6828510     1.0402330
  H       -3.3450519     2.6351672    -0.4654204
  H       -4.6191930     1.1768790    -0.5707550
  H       -2.1040920    -2.8844300    -0.0003970
  H        4.5630320    -0.0321470     0.0049780
  H        3.4487670     2.3922440    -0.0062430
units angstrom
no_reorient  #important for SAPT in psi4, default
symmetry c1  #important for SAPT in psi4, default
}

set PROPERTIES_ORIGIN ["COM"]
properties('MP2/aug-cc-pvtz', properties = ['dipole'])
--------------------------------------------------------------------------

    Molecular point group: c1
  Charge       = 0
  Multiplicity = 1
  Basis Set: AUG-CC-PVTZ
    Blend: AUG-CC-PVTZ
  Basis Set: (AUG-CC-PVTZ AUX)
    Blend: AUG-CC-PVTZ-JKFIT

    Orbital Energies [Eh]
    ---------------------

    Doubly Occupied:

       1A    -91.994014     2A    -15.572713     3A    -15.572670
       4A    -11.311980     5A    -11.294398     6A    -11.282929
       7A    -11.273661     8A    -11.268664     9A    -11.263573
      10A    -11.262017    11A    -11.245165    12A    -11.242481
      13A     -8.994003    14A     -6.674769    15A     -6.674218
      16A     -6.673557    17A     -1.285143    18A     -1.257236
      19A     -1.113556    20A     -1.065762    21A     -1.060591
      22A     -0.984402    23A     -0.963598    24A     -0.872683
      25A     -0.841264    26A     -0.783682    27A     -0.749363
      28A     -0.697091    29A     -0.678519    30A     -0.671029
      31A     -0.633329    32A     -0.596049    33A     -0.588079
      34A     -0.573426    35A     -0.572436    36A     -0.550843
      37A     -0.536106    38A     -0.525883    39A     -0.504224
      40A     -0.499263    41A     -0.441648    42A     -0.421892
      43A     -0.393954    44A     -0.382238    45A     -0.366667
      46A     -0.305412

  @DF-RHF Final Energy:  -852.04111401947011

   => Energetics <=

    Nuclear Repulsion Energy =            719.6134304254491099
    One-Electron Energy =               -2594.2767273939552979
    Two-Electron Energy =                1022.6221829490359596
    Total Energy =                       -852.0411140194701147
  Basis Set: (AUG-CC-PVTZ AUX)
    Blend: AUG-CC-PVTZ-RI
    Molecular point group: c1

    Geometry (in Angstrom), charge = 0, multiplicity = 1:

       Center              X                  Y                   Z               Mass
    ------------   -----------------  -----------------  -----------------  -----------------
         S            2.249547774764    -0.994011335180     0.006082797240    31.972071174400
         N           -0.667032225236    -1.437606335180     0.003255797240    14.003074004430
         N            1.483338774764     1.479687664820    -0.004679202760    14.003074004430
         C           -2.722270225236     0.507302664820    -0.012496202760    12.000000000000
         C           -0.393519225236    -0.116813335180    -0.000801202760    12.000000000000
         C           -1.378089225236     0.879532664820    -0.007249202760    12.000000000000
         C            1.025384774764     0.237197664820    -0.000604202760    12.000000000000
         C           -3.010519225236    -0.863745335180    -0.006909202760    12.000000000000
         C           -3.819376225236     1.536564664820     0.015058797240    12.000000000000
         C           -1.964333225236    -1.785150335180    -0.000274202760    12.000000000000
         C            3.443724774764     0.234523664820     0.003236797240    12.000000000000
         C            2.850990774764     1.477923664820    -0.002643202760    12.000000000000
         H           -1.072888225236     1.922969664820    -0.014365202760     1.007825032230
         H           -4.040782225236    -1.213287335180    -0.014349202760     1.007825032230
         H           -4.160261225236     1.712387664820     1.040920797240     1.007825032230
         H           -3.408215125236     2.664703864820    -0.464732602760     1.007825032230
         H           -4.682356225236     1.206415664820    -0.570067202760     1.007825032230
         H           -2.167255225236    -2.854893335180     0.000290797240     1.007825032230
         H            4.499868774764    -0.002610335180     0.005665797240     1.007825032230
         H            3.385603774764     2.421780664820    -0.005555202760     1.007825032230

  Basis Set: AUG-CC-PVTZ
    Blend: AUG-CC-PVTZ
  Basis Set: (AUG-CC-PVTZ AUX)
    Blend: AUG-CC-PVTZ-JKFIT
	 Reference Energy          =    -852.0411140194701147 [Eh]
	 Singles Energy            =      -0.0000000000000000 [Eh]
	 Same-Spin Energy          =      -0.5692437464723864 [Eh]
	 Opposite-Spin Energy      =      -1.7109932159025281 [Eh]
	 Correlation Energy        =      -2.2802369623749144 [Eh]
	 Total Energy              =    -854.3213509818450575 [Eh]

	 ================> DF-SCS-MP2 Energies <==================
	-----------------------------------------------------------
	 SCS Same-Spin Scale       =       0.3333333333333333 [-]
	 SCS Opposite-Spin Scale   =       1.2000000000000000 [-]
	 SCS Same-Spin Energy      =      -0.1897479154907954 [Eh]
	 SCS Opposite-Spin Energy  =      -2.0531918590830336 [Eh]
	 SCS Correlation Energy    =      -2.2429397745738289 [Eh]
	 SCS Total Energy          =    -854.2840537940439845 [Eh]
	-----------------------------------------------------------

  Dipole Moment: [D]
     X:    -1.2487      Y:     0.2816      Z:     0.0736     Total:     1.2822

*** Psi4 exiting successfully. Buy a developer a beer!
