                               Psi4 1.4a3.dev225

  ==> Input File <==

--------------------------------------------------------------------------
#psi4
#
memory 32 gb

molecule  {
0 1
  S        2.3127110    -1.0235480     0.0053950
  N       -0.6038690    -1.4671430     0.0025680
  N        1.5465020     1.4501510    -0.0053670
  C       -2.6591070     0.4777660    -0.0131840
  C       -0.3303560    -0.1463500    -0.0014890
  C       -1.3149260     0.8499960    -0.0079370
  C        1.0885480     0.2076610    -0.0012920
  C       -2.9473560    -0.8932820    -0.0075970
  C       -3.7562130     1.5070280     0.0143710
  C       -1.9011700    -1.8146870    -0.0009620
  C        3.5068880     0.2049870     0.0025490
  C        2.9579095     1.4683158    -0.0033514
  H       -1.0097250     1.8934330    -0.0150530
  H       -3.9776190    -1.2428240    -0.0150370
  H       -4.0970980     1.6828510     1.0402330
  H       -3.4086480     2.4606730    -0.3912090
  H       -4.6191930     1.1768790    -0.5707550
  H       -2.1040920    -2.8844300    -0.0003970
  H        4.5630320    -0.0321470     0.0049780
  H        3.4487670     2.3922440    -0.0062430
units angstrom
no_reorient  #important for SAPT in psi4, default
symmetry c1  #important for SAPT in psi4, default
}

set PROPERTIES_ORIGIN ["COM"]
properties('MP2/aug-cc-pvtz', properties = ['dipole'])
--------------------------------------------------------------------------

    Molecular point group: c1
  Charge       = 0
  Multiplicity = 1
  Basis Set: AUG-CC-PVTZ
    Blend: AUG-CC-PVTZ
  Basis Set: (AUG-CC-PVTZ AUX)
    Blend: AUG-CC-PVTZ-JKFIT

    Orbital Energies [Eh]
    ---------------------

    Doubly Occupied:

       1A    -91.993026     2A    -15.573850     3A    -15.572216
       4A    -11.311413     5A    -11.294086     6A    -11.281896
       7A    -11.271541     8A    -11.268918     9A    -11.265535
      10A    -11.243564    11A    -11.241939    12A    -11.239744
      13A     -8.993114    14A     -6.673923    15A     -6.673310
      16A     -6.672629    17A     -1.278295    18A     -1.251618
      19A     -1.113859    20A     -1.065284    21A     -1.055970
      22A     -0.985784    23A     -0.972619    24A     -0.873407
      25A     -0.842835    26A     -0.785035    27A     -0.749598
      28A     -0.695367    29A     -0.680322    30A     -0.671661
      31A     -0.635000    32A     -0.595563    33A     -0.589262
      34A     -0.569533    35A     -0.569343    36A     -0.561338
      37A     -0.545399    38A     -0.524368    39A     -0.515165
      40A     -0.507965    41A     -0.438979    42A     -0.419163
      43A     -0.393460    44A     -0.379829    45A     -0.364629
      46A     -0.307730

  @DF-RHF Final Energy:  -852.05859415148984

   => Energetics <=

    Nuclear Repulsion Energy =            719.2768665088859734
    One-Electron Energy =               -2593.6527590915306973
    Two-Electron Energy =                1022.3172984311547680
    Total Energy =                       -852.0585941514898423
  Basis Set: (AUG-CC-PVTZ AUX)
    Blend: AUG-CC-PVTZ-RI
    Molecular point group: c1

    Geometry (in Angstrom), charge = 0, multiplicity = 1:

       Center              X                  Y                   Z               Mass
    ------------   -----------------  -----------------  -----------------  -----------------
         S            2.246929221522    -0.994370831219     0.005659331212    31.972071174400
         N           -0.669650778478    -1.437965831219     0.002832331212    14.003074004430
         N            1.480720221522     1.479328168781    -0.005102668788    14.003074004430
         C           -2.724888778478     0.506943168781    -0.012919668788    12.000000000000
         C           -0.396137778478    -0.117172831219    -0.001224668788    12.000000000000
         C           -1.380707778478     0.879173168781    -0.007672668788    12.000000000000
         C            1.022766221522     0.236838168781    -0.001027668788    12.000000000000
         C           -3.013137778478    -0.864104831219    -0.007332668788    12.000000000000
         C           -3.821994778478     1.536205168781     0.014635331212    12.000000000000
         C           -1.966951778478    -1.785509831219    -0.000697668788    12.000000000000
         C            3.441106221522     0.234164168781     0.002813331212    12.000000000000
         C            2.892127721522     1.497492968781    -0.003087068788    12.000000000000
         H           -1.075506778478     1.922610168781    -0.014788668788     1.007825032230
         H           -4.043400778478    -1.213646831219    -0.014772668788     1.007825032230
         H           -4.162879778478     1.712028168781     1.040497331212     1.007825032230
         H           -3.474429778478     2.489850168781    -0.390944668788     1.007825032230
         H           -4.684974778478     1.206056168781    -0.570490668788     1.007825032230
         H           -2.169873778478    -2.855252831219    -0.000132668788     1.007825032230
         H            4.497250221522    -0.002969831219     0.005242331212     1.007825032230
         H            3.382985221522     2.421421168781    -0.005978668788     1.007825032230

  Basis Set: AUG-CC-PVTZ
    Blend: AUG-CC-PVTZ
  Basis Set: (AUG-CC-PVTZ AUX)
    Blend: AUG-CC-PVTZ-JKFIT
	 Reference Energy          =    -852.0585941514898423 [Eh]
	 Singles Energy            =      -0.0000000000000000 [Eh]
	 Same-Spin Energy          =      -0.5685475424627653 [Eh]
	 Opposite-Spin Energy      =      -1.7096068513453764 [Eh]
	 Correlation Energy        =      -2.2781543938081414 [Eh]
	 Total Energy              =    -854.3367485452979508 [Eh]

	 ================> DF-SCS-MP2 Energies <==================
	-----------------------------------------------------------
	 SCS Same-Spin Scale       =       0.3333333333333333 [-]
	 SCS Opposite-Spin Scale   =       1.2000000000000000 [-]
	 SCS Same-Spin Energy      =      -0.1895158474875884 [Eh]
	 SCS Opposite-Spin Energy  =      -2.0515282216144515 [Eh]
	 SCS Correlation Energy    =      -2.2410440691020397 [Eh]
	 SCS Total Energy          =    -854.2996382205918735 [Eh]
	-----------------------------------------------------------

  Dipole Moment: [D]
     X:    -1.3177      Y:     0.4231      Z:     0.0419     Total:     1.3846

*** Psi4 exiting successfully. Buy a developer a beer!
