                               Psi4 1.4a3.dev225

  ==> Input File <==

--------------------------------------------------------------------------
#psi4
#
memory 32 gb

molecule  {
0 1
  S        2.3127110    -1.0235480     0.0053950
  N       -0.6038690    -1.4671430     0.0025680
  N        1.5465020     1.4501510    -0.0053670
  C       -2.6591070     0.4777660    -0.0131840
  C       -0.3303560    -0.1463500    -0.0014890
  C       -1.3149260     0.8499960    -0.0079370
  C        1.0885480     0.2076610    -0.0012920
  C       -2.9473560    -0.8932820    -0.0075970
  C       -3.7562130     1.5070280     0.0143710
  C       -1.9204887    -1.8198624    -0.0010146
  C        3.5068880     0.2049870     0.0025490
  C        2.9141540     1.4483870    -0.0033310
  H       -1.0097250     1.8934330    -0.0150530
  H       -3.9776190    -1.2428240    -0.0150370
  H       -4.0970980     1.6828510     1.0402330
  H       -3.4086480     2.4606730    -0.3912090
  H       -4.6191930     1.1768790    -0.5707550
  H       -2.1040920    -2.8844300    -0.0003970
  H        4.5630320    -0.0321470     0.0049780
  H        3.4487670     2.3922440    -0.0062430
units angstrom
no_reorient  #important for SAPT in psi4, default
symmetry c1  #important for SAPT in psi4, default
}

set PROPERTIES_ORIGIN ["COM"]
properties('MP2/aug-cc-pvtz', properties = ['dipole'])
--------------------------------------------------------------------------

    Molecular point group: c1
  Charge       = 0
  Multiplicity = 1
  Basis Set: AUG-CC-PVTZ
    Blend: AUG-CC-PVTZ
  Basis Set: (AUG-CC-PVTZ AUX)
    Blend: AUG-CC-PVTZ-JKFIT

    Orbital Energies [Eh]
    ---------------------

    Doubly Occupied:

       1A    -91.993709     2A    -15.572801     3A    -15.572633
       4A    -11.311731     5A    -11.294007     6A    -11.281534
       7A    -11.271977     8A    -11.268437     9A    -11.263423
      10A    -11.242795    11A    -11.241827    12A    -11.239995
      13A     -8.993694    14A     -6.674459    15A     -6.673907
      16A     -6.673247    17A     -1.283836    18A     -1.252723
      19A     -1.113362    20A     -1.065388    21A     -1.060002
      22A     -0.985545    23A     -0.972369    24A     -0.870420
      25A     -0.845351    26A     -0.784116    27A     -0.749405
      28A     -0.697423    29A     -0.678086    30A     -0.671033
      31A     -0.635565    32A     -0.595731    33A     -0.588316
      34A     -0.572333    35A     -0.571452    36A     -0.561043
      37A     -0.546462    38A     -0.524832    39A     -0.514748
      40A     -0.500621    41A     -0.441705    42A     -0.421541
      43A     -0.393963    44A     -0.381816    45A     -0.364439
      46A     -0.306034

  @DF-RHF Final Energy:  -852.06042362294750

   => Energetics <=

    Nuclear Repulsion Energy =            720.0616742219215212
    One-Electron Energy =               -2595.2045204189826109
    Two-Electron Energy =                1023.0824225741135933
    Total Energy =                       -852.0604236229474964
  Basis Set: (AUG-CC-PVTZ AUX)
    Blend: AUG-CC-PVTZ-RI
    Molecular point group: c1

    Geometry (in Angstrom), charge = 0, multiplicity = 1:

       Center              X                  Y                   Z               Mass
    ------------   -----------------  -----------------  -----------------  -----------------
         S            2.251228737978    -0.992659578108     0.005661526157    31.972071174400
         N           -0.665351262022    -1.436254578108     0.002834526157    14.003074004430
         N            1.485019737978     1.481039421892    -0.005100473843    14.003074004430
         C           -2.720589262022     0.508654421892    -0.012917473843    12.000000000000
         C           -0.391838262022    -0.115461578108    -0.001222473843    12.000000000000
         C           -1.376408262022     0.880884421892    -0.007670473843    12.000000000000
         C            1.027065737978     0.238549421892    -0.001025473843    12.000000000000
         C           -3.008838262022    -0.862393578108    -0.007330473843    12.000000000000
         C           -3.817695262022     1.537916421892     0.014637526157    12.000000000000
         C           -1.981970962022    -1.788973978108    -0.000748073843    12.000000000000
         C            3.445405737978     0.235875421892     0.002815526157    12.000000000000
         C            2.852671737978     1.479275421892    -0.003064473843    12.000000000000
         H           -1.071207262022     1.924321421892    -0.014786473843     1.007825032230
         H           -4.039101262022    -1.211935578108    -0.014770473843     1.007825032230
         H           -4.158580262022     1.713739421892     1.040499526157     1.007825032230
         H           -3.470130262022     2.491561421892    -0.390942473843     1.007825032230
         H           -4.680675262022     1.207767421892    -0.570488473843     1.007825032230
         H           -2.165574262022    -2.853541578108    -0.000130473843     1.007825032230
         H            4.501549737978    -0.001258578108     0.005244526157     1.007825032230
         H            3.387284737978     2.423132421892    -0.005976473843     1.007825032230

  Basis Set: AUG-CC-PVTZ
    Blend: AUG-CC-PVTZ
  Basis Set: (AUG-CC-PVTZ AUX)
    Blend: AUG-CC-PVTZ-JKFIT
	 Reference Energy          =    -852.0604236229474964 [Eh]
	 Singles Energy            =      -0.0000000000000000 [Eh]
	 Same-Spin Energy          =      -0.5692487629296809 [Eh]
	 Opposite-Spin Energy      =      -1.7096872338526836 [Eh]
	 Correlation Energy        =      -2.2789359967823644 [Eh]
	 Total Energy              =    -854.3393596197298621 [Eh]

	 ================> DF-SCS-MP2 Energies <==================
	-----------------------------------------------------------
	 SCS Same-Spin Scale       =       0.3333333333333333 [-]
	 SCS Opposite-Spin Scale   =       1.2000000000000000 [-]
	 SCS Same-Spin Energy      =      -0.1897495876432269 [Eh]
	 SCS Opposite-Spin Energy  =      -2.0516246806232203 [Eh]
	 SCS Correlation Energy    =      -2.2413742682664473 [Eh]
	 SCS Total Energy          =    -854.3017978912139370 [Eh]
	-----------------------------------------------------------

  Dipole Moment: [D]
     X:    -1.2907      Y:     0.3955      Z:     0.0419     Total:     1.3506

*** Psi4 exiting successfully. Buy a developer a beer!
