                               Psi4 1.4a3.dev225

  ==> Input File <==

--------------------------------------------------------------------------
#psi4
#
memory 32 gb

molecule  {
0 1
  S        2.3127110    -1.0235480     0.0053950
  N       -0.6038690    -1.4671430     0.0025680
  N        1.5465020     1.4501510    -0.0053670
  C       -2.6591070     0.4777660    -0.0131840
  C       -0.3303560    -0.1463500    -0.0014890
  C       -1.3149260     0.8499960    -0.0079370
  C        1.0885480     0.2076610    -0.0012920
  C       -2.9473560    -0.8932820    -0.0075970
  C       -3.7562130     1.5070280     0.0143710
  C       -1.9011700    -1.8146870    -0.0009620
  C        3.5068880     0.2049870     0.0025490
  C        2.9141540     1.4483870    -0.0033310
  H       -1.0097250     1.8934330    -0.0150530
  H       -3.9776190    -1.2428240    -0.0150370
  H       -4.0970980     1.6828510     1.0402330
  H       -3.4245470     2.4170495    -0.3726561
  H       -4.6191930     1.1768790    -0.5707550
  H       -2.1040920    -2.8844300    -0.0003970
  H        4.5630320    -0.0321470     0.0049780
  H        3.4487670     2.3922440    -0.0062430
units angstrom
no_reorient  #important for SAPT in psi4, default
symmetry c1  #important for SAPT in psi4, default
}

set PROPERTIES_ORIGIN ["COM"]
properties('MP2/aug-cc-pvtz', properties = ['dipole'])
--------------------------------------------------------------------------

    Molecular point group: c1
  Charge       = 0
  Multiplicity = 1
  Basis Set: AUG-CC-PVTZ
    Blend: AUG-CC-PVTZ
  Basis Set: (AUG-CC-PVTZ AUX)
    Blend: AUG-CC-PVTZ-JKFIT

    Orbital Energies [Eh]
    ---------------------

    Doubly Occupied:

       1A    -91.993729     2A    -15.572400     3A    -15.571773
       4A    -11.311710     5A    -11.293928     6A    -11.281725
       7A    -11.271233     8A    -11.268453     9A    -11.263313
      10A    -11.243109    11A    -11.241936    12A    -11.233792
      13A     -8.993717    14A     -6.674483    15A     -6.673932
      16A     -6.673271    17A     -1.284728    18A     -1.256508
      19A     -1.114363    20A     -1.065232    21A     -1.060251
      22A     -0.984759    23A     -0.975795    24A     -0.871907
      25A     -0.844928    26A     -0.784126    27A     -0.749865
      28A     -0.697768    29A     -0.679444    30A     -0.671608
      31A     -0.634466    32A     -0.596845    33A     -0.587442
      34A     -0.573361    35A     -0.571451    36A     -0.567347
      37A     -0.547177    38A     -0.526471    39A     -0.515955
      40A     -0.500456    41A     -0.441206    42A     -0.421136
      43A     -0.393480    44A     -0.381562    45A     -0.366334
      46A     -0.304917

  @DF-RHF Final Energy:  -852.06062202327780

   => Energetics <=

    Nuclear Repulsion Energy =            720.5748216099966612
    One-Electron Energy =               -2596.2041016903308446
    Two-Electron Energy =                1023.5686580570563819
    Total Energy =                       -852.0606220232778014
  Basis Set: (AUG-CC-PVTZ AUX)
    Blend: AUG-CC-PVTZ-RI
    Molecular point group: c1

    Geometry (in Angstrom), charge = 0, multiplicity = 1:

       Center              X                  Y                   Z               Mass
    ------------   -----------------  -----------------  -----------------  -----------------
         S            2.250002880302    -0.992762622076     0.005551726185    31.972071174400
         N           -0.666577119698    -1.436357622076     0.002724726185    14.003074004430
         N            1.483793880302     1.480936377924    -0.005210273815    14.003074004430
         C           -2.721815119698     0.508551377924    -0.013027273815    12.000000000000
         C           -0.393064119698    -0.115564622076    -0.001332273815    12.000000000000
         C           -1.377634119698     0.880781377924    -0.007780273815    12.000000000000
         C            1.025839880302     0.238446377924    -0.001135273815    12.000000000000
         C           -3.010064119698    -0.862496622076    -0.007440273815    12.000000000000
         C           -3.818921119698     1.537813377924     0.014527726185    12.000000000000
         C           -1.963878119698    -1.783901622076    -0.000805273815    12.000000000000
         C            3.444179880302     0.235772377924     0.002705726185    12.000000000000
         C            2.851445880302     1.479172377924    -0.003174273815    12.000000000000
         H           -1.072433119698     1.924218377924    -0.014896273815     1.007825032230
         H           -4.040327119698    -1.212038622076    -0.014880273815     1.007825032230
         H           -4.159806119698     1.713636377924     1.040389726185     1.007825032230
         H           -3.487255119698     2.447834877924    -0.372499373815     1.007825032230
         H           -4.681901119698     1.207664377924    -0.570598273815     1.007825032230
         H           -2.166800119698    -2.853644622076    -0.000240273815     1.007825032230
         H            4.500323880302    -0.001361622076     0.005134726185     1.007825032230
         H            3.386058880302     2.423029377924    -0.006086273815     1.007825032230

  Basis Set: AUG-CC-PVTZ
    Blend: AUG-CC-PVTZ
  Basis Set: (AUG-CC-PVTZ AUX)
    Blend: AUG-CC-PVTZ-JKFIT
	 Reference Energy          =    -852.0606220232778014 [Eh]
	 Singles Energy            =      -0.0000000000000000 [Eh]
	 Same-Spin Energy          =      -0.5691359671347049 [Eh]
	 Opposite-Spin Energy      =      -1.7089687910395850 [Eh]
	 Correlation Energy        =      -2.2781047581742899 [Eh]
	 Total Energy              =    -854.3387267814521238 [Eh]

	 ================> DF-SCS-MP2 Energies <==================
	-----------------------------------------------------------
	 SCS Same-Spin Scale       =       0.3333333333333333 [-]
	 SCS Opposite-Spin Scale   =       1.2000000000000000 [-]
	 SCS Same-Spin Energy      =      -0.1897119890449016 [Eh]
	 SCS Opposite-Spin Energy  =      -2.0507625492475019 [Eh]
	 SCS Correlation Energy    =      -2.2404745382924034 [Eh]
	 SCS Total Energy          =    -854.3010965615701480 [Eh]
	-----------------------------------------------------------

  Dipole Moment: [D]
     X:    -1.2862      Y:     0.4156      Z:     0.0367     Total:     1.3522

*** Psi4 exiting successfully. Buy a developer a beer!
