                               Psi4 1.4a3.dev225

  ==> Input File <==

--------------------------------------------------------------------------
#psi4
#
memory 32 gb

molecule  {
0 1
  S        2.3127110    -1.0235480     0.0053950
  N       -0.6038690    -1.4671430     0.0025680
  N        1.5465020     1.4501510    -0.0053670
  C       -2.6591070     0.4777660    -0.0131840
  C       -0.3303560    -0.1463500    -0.0014890
  C       -1.3149260     0.8499960    -0.0079370
  C        1.0885480     0.2076610    -0.0012920
  C       -2.9473560    -0.8932820    -0.0075970
  C       -3.7562130     1.5070280     0.0143710
  C       -1.9011700    -1.8146870    -0.0009620
  C        3.5068880     0.2049870     0.0025490
  C        2.9141540     1.4483870    -0.0033310
  H       -1.0097250     1.8934330    -0.0150530
  H       -3.8829230    -1.2106961    -0.0143532
  H       -4.0970980     1.6828510     1.0402330
  H       -3.4086480     2.4606730    -0.3912090
  H       -4.6191930     1.1768790    -0.5707550
  H       -2.1040920    -2.8844300    -0.0003970
  H        4.5630320    -0.0321470     0.0049780
  H        3.4487670     2.3922440    -0.0062430
units angstrom
no_reorient  #important for SAPT in psi4, default
symmetry c1  #important for SAPT in psi4, default
}

set PROPERTIES_ORIGIN ["COM"]
properties('MP2/aug-cc-pvtz', properties = ['dipole'])
--------------------------------------------------------------------------

    Molecular point group: c1
  Charge       = 0
  Multiplicity = 1
  Basis Set: AUG-CC-PVTZ
    Blend: AUG-CC-PVTZ
  Basis Set: (AUG-CC-PVTZ AUX)
    Blend: AUG-CC-PVTZ-JKFIT

    Orbital Energies [Eh]
    ---------------------

    Doubly Occupied:

       1A    -91.993579     2A    -15.572235     3A    -15.571221
       4A    -11.311523     5A    -11.293652     6A    -11.281180
       7A    -11.270776     8A    -11.268312     9A    -11.263174
      10A    -11.241308    11A    -11.239855    12A    -11.231551
      13A     -8.993566    14A     -6.674332    15A     -6.673781
      16A     -6.673120    17A     -1.284496    18A     -1.256194
      19A     -1.114868    20A     -1.065874    21A     -1.060379
      22A     -0.986986    23A     -0.972441    24A     -0.876729
      25A     -0.843470    26A     -0.783829    27A     -0.750295
      28A     -0.701469    29A     -0.684586    30A     -0.677346
      31A     -0.634535    32A     -0.595801    33A     -0.590711
      34A     -0.572475    35A     -0.571459    36A     -0.564889
      37A     -0.546769    38A     -0.526036    39A     -0.517093
      40A     -0.500281    41A     -0.441099    42A     -0.420998
      43A     -0.393308    44A     -0.381292    45A     -0.365938
      46A     -0.304767

  @DF-RHF Final Energy:  -852.05581593447641

   => Energetics <=

    Nuclear Repulsion Energy =            720.9326094322358358
    One-Electron Energy =               -2596.8976958479588575
    Two-Electron Energy =                1023.9092704812464945
    Total Energy =                       -852.0558159344764135
  Basis Set: (AUG-CC-PVTZ AUX)
    Blend: AUG-CC-PVTZ-RI
    Molecular point group: c1

    Geometry (in Angstrom), charge = 0, multiplicity = 1:

       Center              X                  Y                   Z               Mass
    ------------   -----------------  -----------------  -----------------  -----------------
         S            2.249369729366    -0.993196295115     0.005654025904    31.972071174400
         N           -0.667210270634    -1.436791295115     0.002827025904    14.003074004430
         N            1.483160729366     1.480502704885    -0.005107974096    14.003074004430
         C           -2.722448270634     0.508117704885    -0.012924974096    12.000000000000
         C           -0.393697270634    -0.115998295115    -0.001229974096    12.000000000000
         C           -1.378267270634     0.880347704885    -0.007677974096    12.000000000000
         C            1.025206729366     0.238012704885    -0.001032974096    12.000000000000
         C           -3.010697270634    -0.862930295115    -0.007337974096    12.000000000000
         C           -3.819554270634     1.537379704885     0.014630025904    12.000000000000
         C           -1.964511270634    -1.784335295115    -0.000702974096    12.000000000000
         C            3.443546729366     0.235338704885     0.002808025904    12.000000000000
         C            2.850812729366     1.478738704885    -0.003071974096    12.000000000000
         H           -1.073066270634     1.923784704885    -0.014793974096     1.007825032230
         H           -3.946264270634    -1.180344395115    -0.014094174096     1.007825032230
         H           -4.160439270634     1.713202704885     1.040492025904     1.007825032230
         H           -3.471989270634     2.491024704885    -0.390949974096     1.007825032230
         H           -4.682534270634     1.207230704885    -0.570495974096     1.007825032230
         H           -2.167433270634    -2.854078295115    -0.000137974096     1.007825032230
         H            4.499690729366    -0.001795295115     0.005237025904     1.007825032230
         H            3.385425729366     2.422595704885    -0.005983974096     1.007825032230

  Basis Set: AUG-CC-PVTZ
    Blend: AUG-CC-PVTZ
  Basis Set: (AUG-CC-PVTZ AUX)
    Blend: AUG-CC-PVTZ-JKFIT
	 Reference Energy          =    -852.0558159344764135 [Eh]
	 Singles Energy            =      -0.0000000000000000 [Eh]
	 Same-Spin Energy          =      -0.5689564961112514 [Eh]
	 Opposite-Spin Energy      =      -1.7087115781688913 [Eh]
	 Correlation Energy        =      -2.2776680742801427 [Eh]
	 Total Energy              =    -854.3334840087564999 [Eh]

	 ================> DF-SCS-MP2 Energies <==================
	-----------------------------------------------------------
	 SCS Same-Spin Scale       =       0.3333333333333333 [-]
	 SCS Opposite-Spin Scale   =       1.2000000000000000 [-]
	 SCS Same-Spin Energy      =      -0.1896521653704171 [Eh]
	 SCS Opposite-Spin Energy  =      -2.0504538938026693 [Eh]
	 SCS Correlation Energy    =      -2.2401060591730864 [Eh]
	 SCS Total Energy          =    -854.2959219936494719 [Eh]
	-----------------------------------------------------------

  Dipole Moment: [D]
     X:    -1.3083      Y:     0.3861      Z:     0.0417     Total:     1.3647

*** Psi4 exiting successfully. Buy a developer a beer!
