                               Psi4 1.4a3.dev225

  ==> Input File <==

--------------------------------------------------------------------------
#psi4
#
memory 32 gb

molecule  {
0 1
  S        2.3340124    -1.0019960     0.0053291
  N       -0.6038690    -1.4671430     0.0025680
  N        1.5465020     1.4501510    -0.0053670
  C       -2.6591070     0.4777660    -0.0131840
  C       -0.3303560    -0.1463500    -0.0014890
  C       -1.3149260     0.8499960    -0.0079370
  C        1.0885480     0.2076610    -0.0012920
  C       -2.9473560    -0.8932820    -0.0075970
  C       -3.7562130     1.5070280     0.0143710
  C       -1.9011700    -1.8146870    -0.0009620
  C        3.5068880     0.2049870     0.0025490
  C        2.9141540     1.4483870    -0.0033310
  H       -1.0097250     1.8934330    -0.0150530
  H       -3.9776190    -1.2428240    -0.0150370
  H       -4.0970980     1.6828510     1.0402330
  H       -3.4086480     2.4606730    -0.3912090
  H       -4.6191930     1.1768790    -0.5707550
  H       -2.1040920    -2.8844300    -0.0003970
  H        4.5630320    -0.0321470     0.0049780
  H        3.4487670     2.3922440    -0.0062430
units angstrom
no_reorient  #important for SAPT in psi4, default
symmetry c1  #important for SAPT in psi4, default
}

set PROPERTIES_ORIGIN ["COM"]
properties('MP2/aug-cc-pvtz', properties = ['dipole'])
--------------------------------------------------------------------------

    Molecular point group: c1
  Charge       = 0
  Multiplicity = 1
  Basis Set: AUG-CC-PVTZ
    Blend: AUG-CC-PVTZ
  Basis Set: (AUG-CC-PVTZ AUX)
    Blend: AUG-CC-PVTZ-JKFIT

    Orbital Energies [Eh]
    ---------------------

    Doubly Occupied:

       1A    -91.993073     2A    -15.572651     3A    -15.571436
       4A    -11.310599     5A    -11.294159     6A    -11.281586
       7A    -11.271403     8A    -11.267712     9A    -11.261582
      10A    -11.243033    11A    -11.241717    12A    -11.239624
      13A     -8.993778    14A     -6.674591    15A     -6.674038
      16A     -6.673343    17A     -1.285705    18A     -1.256841
      19A     -1.113598    20A     -1.070638    21A     -1.060951
      22A     -0.983778    23A     -0.972165    24A     -0.872031
      25A     -0.843479    26A     -0.783320    27A     -0.750960
      28A     -0.698953    29A     -0.678709    30A     -0.671646
      31A     -0.634221    32A     -0.595768    33A     -0.587545
      34A     -0.573634    35A     -0.572535    36A     -0.561520
      37A     -0.547296    38A     -0.527186    39A     -0.515789
      40A     -0.501095    41A     -0.440960    42A     -0.421093
      43A     -0.396339    44A     -0.380897    45A     -0.365842
      46A     -0.304130

  @DF-RHF Final Energy:  -852.06132181809687

   => Energetics <=

    Nuclear Repulsion Energy =            720.8339373754819235
    One-Electron Energy =               -2596.7246165439623837
    Two-Electron Energy =                1023.8293573503834750
    Total Energy =                       -852.0613218180968715
  Basis Set: (AUG-CC-PVTZ AUX)
    Blend: AUG-CC-PVTZ-RI
    Molecular point group: c1

    Geometry (in Angstrom), charge = 0, multiplicity = 1:

       Center              X                  Y                   Z               Mass
    ------------   -----------------  -----------------  -----------------  -----------------
         S            2.267344554999    -0.975374582092     0.005604009210    31.972071174400
         N           -0.670536845001    -1.440521582092     0.002842909210    14.003074004430
         N            1.479834154999     1.476772417908    -0.005092090790    14.003074004430
         C           -2.725774845001     0.504387417908    -0.012909090790    12.000000000000
         C           -0.397023845001    -0.119728582092    -0.001214090790    12.000000000000
         C           -1.381593845001     0.876617417908    -0.007662090790    12.000000000000
         C            1.021880154999     0.234282417908    -0.001017090790    12.000000000000
         C           -3.014023845001    -0.866660582092    -0.007322090790    12.000000000000
         C           -3.822880845001     1.533649417908     0.014645909210    12.000000000000
         C           -1.967837845001    -1.788065582092    -0.000687090790    12.000000000000
         C            3.440220154999     0.231608417908     0.002823909210    12.000000000000
         C            2.847486154999     1.475008417908    -0.003056090790    12.000000000000
         H           -1.076392845001     1.920054417908    -0.014778090790     1.007825032230
         H           -4.044286845001    -1.216202582092    -0.014762090790     1.007825032230
         H           -4.163765845001     1.709472417908     1.040507909210     1.007825032230
         H           -3.475315845001     2.487294417908    -0.390934090790     1.007825032230
         H           -4.685860845001     1.203500417908    -0.570480090790     1.007825032230
         H           -2.170759845001    -2.857808582092    -0.000122090790     1.007825032230
         H            4.496364154999    -0.005525582092     0.005252909210     1.007825032230
         H            3.382099154999     2.418865417908    -0.005968090790     1.007825032230

  Basis Set: AUG-CC-PVTZ
    Blend: AUG-CC-PVTZ
  Basis Set: (AUG-CC-PVTZ AUX)
    Blend: AUG-CC-PVTZ-JKFIT
	 Reference Energy          =    -852.0613218180968715 [Eh]
	 Singles Energy            =      -0.0000000000000000 [Eh]
	 Same-Spin Energy          =      -0.5694174242933577 [Eh]
	 Opposite-Spin Energy      =      -1.7089776101483976 [Eh]
	 Correlation Energy        =      -2.2783950344417554 [Eh]
	 Total Energy              =    -854.3397168525385723 [Eh]

	 ================> DF-SCS-MP2 Energies <==================
	-----------------------------------------------------------
	 SCS Same-Spin Scale       =       0.3333333333333333 [-]
	 SCS Opposite-Spin Scale   =       1.2000000000000000 [-]
	 SCS Same-Spin Energy      =      -0.1898058080977859 [Eh]
	 SCS Opposite-Spin Energy  =      -2.0507731321780769 [Eh]
	 SCS Correlation Energy    =      -2.2405789402758627 [Eh]
	 SCS Total Energy          =    -854.3019007583727671 [Eh]
	-----------------------------------------------------------

  Dipole Moment: [D]
     X:    -1.2320      Y:     0.3924      Z:     0.0421     Total:     1.2937

*** Psi4 exiting successfully. Buy a developer a beer!
