                               Psi4 1.4a3.dev225

  ==> Input File <==

--------------------------------------------------------------------------
#psi4
#
memory 32 gb

molecule  {
0 1
  S        2.3127110    -1.0235480     0.0053950
  N       -0.6038690    -1.4671430     0.0025680
  N        1.5465020     1.4501510    -0.0053670
  C       -2.6591070     0.4777660    -0.0131840
  C       -0.3303560    -0.1463500    -0.0014890
  C       -1.3149260     0.8499960    -0.0079370
  C        1.0885480     0.2076610    -0.0012920
  C       -2.9473560    -0.8932820    -0.0075970
  C       -3.7562130     1.5070280     0.0143710
  C       -1.9011700    -1.8146870    -0.0009620
  C        3.5068880     0.2049870     0.0025490
  C        2.9141540     1.4483870    -0.0033310
  H       -1.0097250     1.8934330    -0.0150530
  H       -3.9776190    -1.2428240    -0.0150370
  H       -4.0970980     1.6828510     1.0402330
  H       -3.4722441     2.2861788    -0.3169976
  H       -4.6191930     1.1768790    -0.5707550
  H       -2.1040920    -2.8844300    -0.0003970
  H        4.5630320    -0.0321470     0.0049780
  H        3.4487670     2.3922440    -0.0062430
units angstrom
no_reorient  #important for SAPT in psi4, default
symmetry c1  #important for SAPT in psi4, default
}

set PROPERTIES_ORIGIN ["COM"]
properties('MP2/aug-cc-pvtz', properties = ['dipole'])
--------------------------------------------------------------------------

    Molecular point group: c1
  Charge       = 0
  Multiplicity = 1
  Basis Set: AUG-CC-PVTZ
    Blend: AUG-CC-PVTZ
  Basis Set: (AUG-CC-PVTZ AUX)
    Blend: AUG-CC-PVTZ-JKFIT

    Orbital Energies [Eh]
    ---------------------

    Doubly Occupied:

       1A    -91.993662     2A    -15.572340     3A    -15.571524
       4A    -11.311652     5A    -11.293860     6A    -11.281312
       7A    -11.270392     8A    -11.268405     9A    -11.263253
      10A    -11.242403    11A    -11.241906    12A    -11.215640
      13A     -8.993650    14A     -6.674415    15A     -6.673864
      16A     -6.673203    17A     -1.284629    18A     -1.256318
      19A     -1.117187    20A     -1.065101    21A     -1.060272
      22A     -0.994304    23A     -0.982258    24A     -0.871670
      25A     -0.848923    26A     -0.784830    27A     -0.751162
      28A     -0.699592    29A     -0.681465    30A     -0.672532
      31A     -0.636885    32A     -0.605452    33A     -0.587261
      34A     -0.583399    35A     -0.571523    36A     -0.570204
      37A     -0.547120    38A     -0.526531    39A     -0.517196
      40A     -0.500425    41A     -0.441088    42A     -0.420909
      43A     -0.393348    44A     -0.381391    45A     -0.366312
      46A     -0.304774

  @DF-RHF Final Energy:  -852.02755175476500

   => Energetics <=

    Nuclear Repulsion Energy =            721.3180018536332909
    One-Electron Energy =               -2597.5600259660200209
    Two-Electron Energy =                1024.2144723576218439
    Total Energy =                       -852.0275517547649997
  Basis Set: (AUG-CC-PVTZ AUX)
    Blend: AUG-CC-PVTZ-RI
    Molecular point group: c1

    Geometry (in Angstrom), charge = 0, multiplicity = 1:

       Center              X                  Y                   Z               Mass
    ------------   -----------------  -----------------  -----------------  -----------------
         S            2.250275943853    -0.992013393756     0.005233084011    31.972071174400
         N           -0.666304056147    -1.435608393756     0.002406084011    14.003074004430
         N            1.484066943853     1.481685606244    -0.005528915989    14.003074004430
         C           -2.721542056147     0.509300606244    -0.013345915989    12.000000000000
         C           -0.392791056147    -0.114815393756    -0.001650915989    12.000000000000
         C           -1.377361056147     0.881530606244    -0.008098915989    12.000000000000
         C            1.026112943853     0.239195606244    -0.001453915989    12.000000000000
         C           -3.009791056147    -0.861747393756    -0.007758915989    12.000000000000
         C           -3.818648056147     1.538562606244     0.014209084011    12.000000000000
         C           -1.963605056147    -1.783152393756    -0.001123915989    12.000000000000
         C            3.444452943853     0.236521606244     0.002387084011    12.000000000000
         C            2.851718943853     1.479921606244    -0.003492915989    12.000000000000
         H           -1.072160056147     1.924967606244    -0.015214915989     1.007825032230
         H           -4.040054056147    -1.211289393756    -0.015198915989     1.007825032230
         H           -4.159533056147     1.714385606244     1.040071084011     1.007825032230
         H           -3.534679156147     2.317713406244    -0.317159515989     1.007825032230
         H           -4.681628056147     1.208413606244    -0.570916915989     1.007825032230
         H           -2.166527056147    -2.852895393756    -0.000558915989     1.007825032230
         H            4.500596943853    -0.000612393756     0.004816084011     1.007825032230
         H            3.386331943853     2.423778606244    -0.006404915989     1.007825032230

  Basis Set: AUG-CC-PVTZ
    Blend: AUG-CC-PVTZ
  Basis Set: (AUG-CC-PVTZ AUX)
    Blend: AUG-CC-PVTZ-JKFIT
	 Reference Energy          =    -852.0275517547649997 [Eh]
	 Singles Energy            =      -0.0000000000000000 [Eh]
	 Same-Spin Energy          =      -0.5691953255092458 [Eh]
	 Opposite-Spin Energy      =      -1.7085848279749869 [Eh]
	 Correlation Energy        =      -2.2777801534842328 [Eh]
	 Total Energy              =    -854.3053319082492862 [Eh]

	 ================> DF-SCS-MP2 Energies <==================
	-----------------------------------------------------------
	 SCS Same-Spin Scale       =       0.3333333333333333 [-]
	 SCS Opposite-Spin Scale   =       1.2000000000000000 [-]
	 SCS Same-Spin Energy      =      -0.1897317751697486 [Eh]
	 SCS Opposite-Spin Energy  =      -2.0503017935699841 [Eh]
	 SCS Correlation Energy    =      -2.2400335687397326 [Eh]
	 SCS Total Energy          =    -854.2675853235047043 [Eh]
	-----------------------------------------------------------

  Dipole Moment: [D]
     X:    -1.3009      Y:     0.4573      Z:     0.0274     Total:     1.3792

*** Psi4 exiting successfully. Buy a developer a beer!
