                               Psi4 1.4a3.dev225

  ==> Input File <==

--------------------------------------------------------------------------
#psi4
#
memory 32 gb

molecule  {
0 1
  S        2.3127110    -1.0235480     0.0053950
  N       -0.6038690    -1.4671430     0.0025680
  N        1.5465020     1.4501510    -0.0053670
  C       -2.6591070     0.4777660    -0.0131840
  C       -0.3303560    -0.1463500    -0.0014890
  C       -1.3149260     0.8499960    -0.0079370
  C        1.0539647     0.1138319    -0.0009843
  C       -2.9473560    -0.8932820    -0.0075970
  C       -3.7562130     1.5070280     0.0143710
  C       -1.9011700    -1.8146870    -0.0009620
  C        3.5068880     0.2049870     0.0025490
  C        2.9141540     1.4483870    -0.0033310
  H       -1.0097250     1.8934330    -0.0150530
  H       -3.9776190    -1.2428240    -0.0150370
  H       -4.0970980     1.6828510     1.0402330
  H       -3.4086480     2.4606730    -0.3912090
  H       -4.6191930     1.1768790    -0.5707550
  H       -2.1040920    -2.8844300    -0.0003970
  H        4.5630320    -0.0321470     0.0049780
  H        3.4487670     2.3922440    -0.0062430
units angstrom
no_reorient  #important for SAPT in psi4, default
symmetry c1  #important for SAPT in psi4, default
}

set PROPERTIES_ORIGIN ["COM"]
properties('MP2/aug-cc-pvtz', properties = ['dipole'])
--------------------------------------------------------------------------

    Molecular point group: c1
  Charge       = 0
  Multiplicity = 1
  Basis Set: AUG-CC-PVTZ
    Blend: AUG-CC-PVTZ
  Basis Set: (AUG-CC-PVTZ AUX)
    Blend: AUG-CC-PVTZ-JKFIT

    Orbital Energies [Eh]
    ---------------------

    Doubly Occupied:

       1A    -92.002027     2A    -15.575079     3A    -15.570444
       4A    -11.312818     5A    -11.290319     6A    -11.281119
       7A    -11.271863     8A    -11.269567     9A    -11.262132
      10A    -11.243608    11A    -11.243212    12A    -11.239840
      13A     -9.001843    14A     -6.682604    15A     -6.682165
      16A     -6.681543    17A     -1.276097    18A     -1.243029
      19A     -1.114708    20A     -1.070060    21A     -1.058860
      22A     -0.984287    23A     -0.972525    24A     -0.879068
      25A     -0.844531    26A     -0.772683    27A     -0.754552
      28A     -0.695675    29A     -0.679109    30A     -0.671226
      31A     -0.634188    32A     -0.595964    33A     -0.587692
      34A     -0.570960    35A     -0.569438    36A     -0.559598
      37A     -0.547219    38A     -0.523250    39A     -0.517804
      40A     -0.501745    41A     -0.435633    42A     -0.424263
      43A     -0.390086    44A     -0.382539    45A     -0.368618
      46A     -0.297340

  @DF-RHF Final Energy:  -852.04285353790397

   => Energetics <=

    Nuclear Repulsion Energy =            720.5277217794764510
    One-Electron Energy =               -2596.0752884951962187
    Two-Electron Energy =                1023.5047131778158018
    Total Energy =                       -852.0428535379039658
  Basis Set: (AUG-CC-PVTZ AUX)
    Blend: AUG-CC-PVTZ-RI
    Molecular point group: c1

    Geometry (in Angstrom), charge = 0, multiplicity = 1:

       Center              X                  Y                   Z               Mass
    ------------   -----------------  -----------------  -----------------  -----------------
         S            2.252269264831    -0.986616409237     0.005636965944    31.972071174400
         N           -0.664310735169    -1.430211409237     0.002809965944    14.003074004430
         N            1.486060264831     1.487082590763    -0.005125034056    14.003074004430
         C           -2.719548735169     0.514697590763    -0.012942034056    12.000000000000
         C           -0.390797735169    -0.109418409237    -0.001247034056    12.000000000000
         C           -1.375367735169     0.886927590763    -0.007695034056    12.000000000000
         C            0.993522964831     0.150763490763    -0.000742334056    12.000000000000
         C           -3.007797735169    -0.856350409237    -0.007355034056    12.000000000000
         C           -3.816654735169     1.543959590763     0.014612965944    12.000000000000
         C           -1.961611735169    -1.777755409237    -0.000720034056    12.000000000000
         C            3.446446264831     0.241918590763     0.002790965944    12.000000000000
         C            2.853712264831     1.485318590763    -0.003089034056    12.000000000000
         H           -1.070166735169     1.930364590763    -0.014811034056     1.007825032230
         H           -4.038060735169    -1.205892409237    -0.014795034056     1.007825032230
         H           -4.157539735169     1.719782590763     1.040474965944     1.007825032230
         H           -3.469089735169     2.497604590763    -0.390967034056     1.007825032230
         H           -4.679634735169     1.213810590763    -0.570513034056     1.007825032230
         H           -2.164533735169    -2.847498409237    -0.000155034056     1.007825032230
         H            4.502590264831     0.004784590763     0.005219965944     1.007825032230
         H            3.388325264831     2.429175590763    -0.006001034056     1.007825032230

  Basis Set: AUG-CC-PVTZ
    Blend: AUG-CC-PVTZ
  Basis Set: (AUG-CC-PVTZ AUX)
    Blend: AUG-CC-PVTZ-JKFIT
	 Reference Energy          =    -852.0428535379039658 [Eh]
	 Singles Energy            =      -0.0000000000000000 [Eh]
	 Same-Spin Energy          =      -0.5725132536761015 [Eh]
	 Opposite-Spin Energy      =      -1.7142670817772467 [Eh]
	 Correlation Energy        =      -2.2867803354533480 [Eh]
	 Total Energy              =    -854.3296338733573521 [Eh]

	 ================> DF-SCS-MP2 Energies <==================
	-----------------------------------------------------------
	 SCS Same-Spin Scale       =       0.3333333333333333 [-]
	 SCS Opposite-Spin Scale   =       1.2000000000000000 [-]
	 SCS Same-Spin Energy      =      -0.1908377512253672 [Eh]
	 SCS Opposite-Spin Energy  =      -2.0571204981326958 [Eh]
	 SCS Correlation Energy    =      -2.2479582493580628 [Eh]
	 SCS Total Energy          =    -854.2908117872619869 [Eh]
	-----------------------------------------------------------

  Dipole Moment: [D]
     X:    -1.0420      Y:     0.2996      Z:     0.0426     Total:     1.0850

*** Psi4 exiting successfully. Buy a developer a beer!
