                               Psi4 1.4a3.dev225

  ==> Input File <==

--------------------------------------------------------------------------
#psi4
#
memory 32 gb

molecule  {
0 1
  S        2.3127110    -1.0235480     0.0053950
  N       -0.6038690    -1.4671430     0.0025680
  N        1.5465020     1.4501510    -0.0053670
  C       -2.6591070     0.4777660    -0.0131840
  C       -0.3303560    -0.1463500    -0.0014890
  C       -1.3149260     0.8499960    -0.0079370
  C        1.0885480     0.2076610    -0.0012920
  C       -2.9473560    -0.8932820    -0.0075970
  C       -3.7562130     1.5070280     0.0143710
  C       -1.9011700    -1.8146870    -0.0009620
  C        3.6462896     0.3483993     0.0022168
  C        2.9141540     1.4483870    -0.0033310
  H       -1.0097250     1.8934330    -0.0150530
  H       -3.9776190    -1.2428240    -0.0150370
  H       -4.0970980     1.6828510     1.0402330
  H       -3.4086480     2.4606730    -0.3912090
  H       -4.6191930     1.1768790    -0.5707550
  H       -2.1040920    -2.8844300    -0.0003970
  H        4.5630320    -0.0321470     0.0049780
  H        3.4487670     2.3922440    -0.0062430
units angstrom
no_reorient  #important for SAPT in psi4, default
symmetry c1  #important for SAPT in psi4, default
}

set PROPERTIES_ORIGIN ["COM"]
properties('MP2/aug-cc-pvtz', properties = ['dipole'])
--------------------------------------------------------------------------

    Molecular point group: c1
  Charge       = 0
  Multiplicity = 1
  Basis Set: AUG-CC-PVTZ
    Blend: AUG-CC-PVTZ
  Basis Set: (AUG-CC-PVTZ AUX)
    Blend: AUG-CC-PVTZ-JKFIT

    Orbital Energies [Eh]
    ---------------------

    Doubly Occupied:

       1A    -91.981766     2A    -15.575483     3A    -15.569825
       4A    -11.321446     5A    -11.295730     6A    -11.283701
       7A    -11.273843     8A    -11.270093     9A    -11.264639
      10A    -11.247663    11A    -11.246362    12A    -11.241603
      13A     -8.980087    14A     -6.660804    15A     -6.660042
      16A     -6.659563    17A     -1.283182    18A     -1.257022
      19A     -1.116565    20A     -1.069411    21A     -1.038384
      22A     -0.992256    23A     -0.975620    24A     -0.875530
      25A     -0.850218    26A     -0.797094    27A     -0.750898
      28A     -0.709435    29A     -0.682147    30A     -0.676463
      31A     -0.635096    32A     -0.597522    33A     -0.590375
      34A     -0.580141    35A     -0.570271    36A     -0.564352
      37A     -0.553116    38A     -0.525789    39A     -0.517426
      40A     -0.456654    41A     -0.442087    42A     -0.415004
      43A     -0.391652    44A     -0.377531    45A     -0.366287
      46A     -0.320193

  @DF-RHF Final Energy:  -852.03641346074244

   => Energetics <=

    Nuclear Repulsion Energy =            716.7579375666323358
    One-Electron Energy =               -2588.5679628528591820
    Two-Electron Energy =                1019.7736118254844087
    Total Energy =                       -852.0364134607424376
  Basis Set: (AUG-CC-PVTZ AUX)
    Blend: AUG-CC-PVTZ-RI
    Molecular point group: c1

    Geometry (in Angstrom), charge = 0, multiplicity = 1:

       Center              X                  Y                   Z               Mass
    ------------   -----------------  -----------------  -----------------  -----------------
         S            2.240409408654    -1.002788208534     0.005680585373    31.972071174400
         N           -0.676170591346    -1.446383208534     0.002853585373    14.003074004430
         N            1.474200408654     1.470910791466    -0.005081414627    14.003074004430
         C           -2.731408591346     0.498525791466    -0.012898414627    12.000000000000
         C           -0.402657591346    -0.125590208534    -0.001203414627    12.000000000000
         C           -1.387227591346     0.870755791466    -0.007651414627    12.000000000000
         C            1.016246408654     0.228420791466    -0.001006414627    12.000000000000
         C           -3.019657591346    -0.872522208534    -0.007311414627    12.000000000000
         C           -3.828514591346     1.527787791466     0.014656585373    12.000000000000
         C           -1.973471591346    -1.793927208534    -0.000676414627    12.000000000000
         C            3.573988008654     0.369159091466     0.002502385373    12.000000000000
         C            2.841852408654     1.469146791466    -0.003045414627    12.000000000000
         H           -1.082026591346     1.914192791466    -0.014767414627     1.007825032230
         H           -4.049920591346    -1.222064208534    -0.014751414627     1.007825032230
         H           -4.169399591346     1.703610791466     1.040518585373     1.007825032230
         H           -3.480949591346     2.481432791466    -0.390923414627     1.007825032230
         H           -4.691494591346     1.197638791466    -0.570469414627     1.007825032230
         H           -2.176393591346    -2.863670208534    -0.000111414627     1.007825032230
         H            4.490730408654    -0.011387208534     0.005263585373     1.007825032230
         H            3.376465408654     2.413003791466    -0.005957414627     1.007825032230

  Basis Set: AUG-CC-PVTZ
    Blend: AUG-CC-PVTZ
  Basis Set: (AUG-CC-PVTZ AUX)
    Blend: AUG-CC-PVTZ-JKFIT
	 Reference Energy          =    -852.0364134607424376 [Eh]
	 Singles Energy            =      -0.0000000000000000 [Eh]
	 Same-Spin Energy          =      -0.5666043916707477 [Eh]
	 Opposite-Spin Energy      =      -1.7085022366088403 [Eh]
	 Correlation Energy        =      -2.2751066282795880 [Eh]
	 Total Energy              =    -854.3115200890219967 [Eh]

	 ================> DF-SCS-MP2 Energies <==================
	-----------------------------------------------------------
	 SCS Same-Spin Scale       =       0.3333333333333333 [-]
	 SCS Opposite-Spin Scale   =       1.2000000000000000 [-]
	 SCS Same-Spin Energy      =      -0.1888681305569159 [Eh]
	 SCS Opposite-Spin Energy  =      -2.0502026839306082 [Eh]
	 SCS Correlation Energy    =      -2.2390708144875240 [Eh]
	 SCS Total Energy          =    -854.2754842752299282 [Eh]
	-----------------------------------------------------------

  Dipole Moment: [D]
     X:    -1.4874      Y:     0.5463      Z:     0.0413     Total:     1.5851

*** Psi4 exiting successfully. Buy a developer a beer!
