                               Psi4 1.4a3.dev225

  ==> Input File <==

--------------------------------------------------------------------------
#psi4
#
memory 32 gb

molecule  {
0 1
  S        2.3127110    -1.0235480     0.0053950
  N       -0.6038690    -1.4671430     0.0025680
  N        1.5465020     1.4501510    -0.0053670
  C       -2.6591070     0.4777660    -0.0131840
  C       -0.3303560    -0.1463500    -0.0014890
  C       -1.2956515     0.8553335    -0.0078618
  C        1.0885480     0.2076610    -0.0012920
  C       -2.9473560    -0.8932820    -0.0075970
  C       -3.7562130     1.5070280     0.0143710
  C       -1.9011700    -1.8146870    -0.0009620
  C        3.5068880     0.2049870     0.0025490
  C        2.9141540     1.4483870    -0.0033310
  H       -1.0097250     1.8934330    -0.0150530
  H       -3.9776190    -1.2428240    -0.0150370
  H       -4.0970980     1.6828510     1.0402330
  H       -3.4086480     2.4606730    -0.3912090
  H       -4.6191930     1.1768790    -0.5707550
  H       -2.1040920    -2.8844300    -0.0003970
  H        4.5630320    -0.0321470     0.0049780
  H        3.4487670     2.3922440    -0.0062430
units angstrom
no_reorient  #important for SAPT in psi4, default
symmetry c1  #important for SAPT in psi4, default
}

set PROPERTIES_ORIGIN ["COM"]
properties('MP2/aug-cc-pvtz', properties = ['dipole'])
--------------------------------------------------------------------------

    Molecular point group: c1
  Charge       = 0
  Multiplicity = 1
  Basis Set: AUG-CC-PVTZ
    Blend: AUG-CC-PVTZ
  Basis Set: (AUG-CC-PVTZ AUX)
    Blend: AUG-CC-PVTZ-JKFIT

    Orbital Energies [Eh]
    ---------------------

    Doubly Occupied:

       1A    -91.993131     2A    -15.571668     3A    -15.571647
       4A    -11.310970     5A    -11.292539     6A    -11.282830
       7A    -11.274511     8A    -11.268009     9A    -11.262670
      10A    -11.243528    11A    -11.242326    12A    -11.240406
      13A     -8.993134    14A     -6.673902    15A     -6.673349
      16A     -6.672691    17A     -1.284415    18A     -1.256254
      19A     -1.111689    20A     -1.066055    21A     -1.060100
      22A     -0.984090    23A     -0.973025    24A     -0.871027
      25A     -0.844364    26A     -0.783639    27A     -0.748731
      28A     -0.697373    29A     -0.679493    30A     -0.671194
      31A     -0.635792    32A     -0.595806    33A     -0.588159
      34A     -0.572560    35A     -0.571053    36A     -0.562937
      37A     -0.546911    38A     -0.526326    39A     -0.512837
      40A     -0.500215    41A     -0.441128    42A     -0.421735
      43A     -0.393586    44A     -0.380565    45A     -0.365431
      46A     -0.305218

  @DF-RHF Final Energy:  -852.06105078639882

   => Energetics <=

    Nuclear Repulsion Energy =            720.3265298313365292
    One-Electron Energy =               -2595.7371329631832850
    Two-Electron Energy =                1023.3495523454479326
    Total Energy =                       -852.0610507863988232
  Basis Set: (AUG-CC-PVTZ AUX)
    Blend: AUG-CC-PVTZ-RI
    Molecular point group: c1

    Geometry (in Angstrom), charge = 0, multiplicity = 1:

       Center              X                  Y                   Z               Mass
    ------------   -----------------  -----------------  -----------------  -----------------
         S            2.248597993577    -0.993376200539     0.005652814541    31.972071174400
         N           -0.667982006423    -1.436971200539     0.002825814541    14.003074004430
         N            1.482388993577     1.480322799461    -0.005109185459    14.003074004430
         C           -2.723220006423     0.507937799461    -0.012926185459    12.000000000000
         C           -0.394469006423    -0.116178200539    -0.001231185459    12.000000000000
         C           -1.359764506423     0.885505299461    -0.007603985459    12.000000000000
         C            1.024434993577     0.237832799461    -0.001034185459    12.000000000000
         C           -3.011469006423    -0.863110200539    -0.007339185459    12.000000000000
         C           -3.820326006423     1.537199799461     0.014628814541    12.000000000000
         C           -1.965283006423    -1.784515200539    -0.000704185459    12.000000000000
         C            3.442774993577     0.235158799461     0.002806814541    12.000000000000
         C            2.850040993577     1.478558799461    -0.003073185459    12.000000000000
         H           -1.073838006423     1.923604799461    -0.014795185459     1.007825032230
         H           -4.041732006423    -1.212652200539    -0.014779185459     1.007825032230
         H           -4.161211006423     1.713022799461     1.040490814541     1.007825032230
         H           -3.472761006423     2.490844799461    -0.390951185459     1.007825032230
         H           -4.683306006423     1.207050799461    -0.570497185459     1.007825032230
         H           -2.168205006423    -2.854258200539    -0.000139185459     1.007825032230
         H            4.498918993577    -0.001975200539     0.005235814541     1.007825032230
         H            3.384653993577     2.422415799461    -0.005985185459     1.007825032230

  Basis Set: AUG-CC-PVTZ
    Blend: AUG-CC-PVTZ
  Basis Set: (AUG-CC-PVTZ AUX)
    Blend: AUG-CC-PVTZ-JKFIT
	 Reference Energy          =    -852.0610507863988232 [Eh]
	 Singles Energy            =      -0.0000000000000000 [Eh]
	 Same-Spin Energy          =      -0.5690853929079799 [Eh]
	 Opposite-Spin Energy      =      -1.7092525075615725 [Eh]
	 Correlation Energy        =      -2.2783379004695523 [Eh]
	 Total Energy              =    -854.3393886868683467 [Eh]

	 ================> DF-SCS-MP2 Energies <==================
	-----------------------------------------------------------
	 SCS Same-Spin Scale       =       0.3333333333333333 [-]
	 SCS Opposite-Spin Scale   =       1.2000000000000000 [-]
	 SCS Same-Spin Energy      =      -0.1896951309693266 [Eh]
	 SCS Opposite-Spin Energy  =      -2.0511030090738869 [Eh]
	 SCS Correlation Energy    =      -2.2407981400432133 [Eh]
	 SCS Total Energy          =    -854.3018489264420623 [Eh]
	-----------------------------------------------------------

  Dipole Moment: [D]
     X:    -1.3257      Y:     0.3974      Z:     0.0426     Total:     1.3847

*** Psi4 exiting successfully. Buy a developer a beer!
