                               Psi4 1.4a3.dev225

  ==> Input File <==

--------------------------------------------------------------------------
#psi4
#
memory 32 gb

molecule  {
0 1
  S        2.3127110    -1.0235480     0.0053950
  N       -0.6038690    -1.4671430     0.0025680
  N        1.5465020     1.4501510    -0.0053670
  C       -2.6591070     0.4777660    -0.0131840
  C       -0.3303560    -0.1463500    -0.0014890
  C       -1.3149260     0.8499960    -0.0079370
  C        1.0885480     0.2076610    -0.0012920
  C       -2.9473560    -0.8932820    -0.0075970
  C       -3.7562130     1.5070280     0.0143710
  C       -1.9011700    -1.8146870    -0.0009620
  C        3.5068880     0.2049870     0.0025490
  C        2.9641539     1.4483225    -0.0032566
  H       -1.0097250     1.8934330    -0.0150530
  H       -3.9776190    -1.2428240    -0.0150370
  H       -4.0970980     1.6828510     1.0402330
  H       -3.4086480     2.4606730    -0.3912090
  H       -4.6191930     1.1768790    -0.5707550
  H       -2.1040920    -2.8844300    -0.0003970
  H        4.5630320    -0.0321470     0.0049780
  H        3.4487670     2.3922440    -0.0062430
units angstrom
no_reorient  #important for SAPT in psi4, default
symmetry c1  #important for SAPT in psi4, default
}

set PROPERTIES_ORIGIN ["COM"]
properties('MP2/aug-cc-pvtz', properties = ['dipole'])
--------------------------------------------------------------------------

    Molecular point group: c1
  Charge       = 0
  Multiplicity = 1
  Basis Set: AUG-CC-PVTZ
    Blend: AUG-CC-PVTZ
  Basis Set: (AUG-CC-PVTZ AUX)
    Blend: AUG-CC-PVTZ-JKFIT

    Orbital Energies [Eh]
    ---------------------

    Doubly Occupied:

       1A    -91.991753     2A    -15.573642     3A    -15.572540
       4A    -11.311779     5A    -11.294148     6A    -11.282052
       7A    -11.271748     8A    -11.267367     9A    -11.262726
      10A    -11.243931    11A    -11.242310    12A    -11.239904
      13A     -8.991986    14A     -6.672804    15A     -6.672192
      16A     -6.671480    17A     -1.278488    18A     -1.251806
      19A     -1.114096    20A     -1.067280    21A     -1.055393
      22A     -0.986666    23A     -0.972997    24A     -0.873864
      25A     -0.843306    26A     -0.782703    27A     -0.749691
      28A     -0.696425    29A     -0.679816    30A     -0.672226
      31A     -0.633710    32A     -0.595741    33A     -0.587292
      34A     -0.569846    35A     -0.568540    36A     -0.561054
      37A     -0.545807    38A     -0.524922    39A     -0.515333
      40A     -0.508019    41A     -0.439799    42A     -0.419248
      43A     -0.394365    44A     -0.379658    45A     -0.364544
      46A     -0.310219

  @DF-RHF Final Energy:  -852.05990339315235

   => Energetics <=

    Nuclear Repulsion Energy =            719.5567012186216971
    One-Electron Energy =               -2594.2227716307538685
    Two-Electron Energy =                1022.6061670189799315
    Total Energy =                       -852.0599033931523536
  Basis Set: (AUG-CC-PVTZ AUX)
    Blend: AUG-CC-PVTZ-RI
    Molecular point group: c1

    Geometry (in Angstrom), charge = 0, multiplicity = 1:

       Center              X                  Y                   Z               Mass
    ------------   -----------------  -----------------  -----------------  -----------------
         S            2.246503565699    -0.993007967761     0.005652869074    31.972071174400
         N           -0.670076434301    -1.436602967761     0.002825869074    14.003074004430
         N            1.480294565699     1.480691032239    -0.005109130926    14.003074004430
         C           -2.725314434301     0.508306032239    -0.012926130926    12.000000000000
         C           -0.396563434301    -0.115809967761    -0.001231130926    12.000000000000
         C           -1.381133434301     0.880536032239    -0.007679130926    12.000000000000
         C            1.022340565699     0.238201032239    -0.001034130926    12.000000000000
         C           -3.013563434301    -0.862741967761    -0.007339130926    12.000000000000
         C           -3.822420434301     1.537568032239     0.014628869074    12.000000000000
         C           -1.967377434301    -1.784146967761    -0.000704130926    12.000000000000
         C            3.440680565699     0.235527032239     0.002806869074    12.000000000000
         C            2.897946465699     1.478862532239    -0.002998730926    12.000000000000
         H           -1.075932434301     1.923973032239    -0.014795130926     1.007825032230
         H           -4.043826434301    -1.212283967761    -0.014779130926     1.007825032230
         H           -4.163305434301     1.713391032239     1.040490869074     1.007825032230
         H           -3.474855434301     2.491213032239    -0.390951130926     1.007825032230
         H           -4.685400434301     1.207419032239    -0.570497130926     1.007825032230
         H           -2.170299434301    -2.853889967761    -0.000139130926     1.007825032230
         H            4.496824565699    -0.001606967761     0.005235869074     1.007825032230
         H            3.382559565699     2.422784032239    -0.005985130926     1.007825032230

  Basis Set: AUG-CC-PVTZ
    Blend: AUG-CC-PVTZ
  Basis Set: (AUG-CC-PVTZ AUX)
    Blend: AUG-CC-PVTZ-JKFIT
	 Reference Energy          =    -852.0599033931523536 [Eh]
	 Singles Energy            =      -0.0000000000000000 [Eh]
	 Same-Spin Energy          =      -0.5680700360016122 [Eh]
	 Opposite-Spin Energy      =      -1.7089997524783038 [Eh]
	 Correlation Energy        =      -2.2770697884799160 [Eh]
	 Total Energy              =    -854.3369731816322883 [Eh]

	 ================> DF-SCS-MP2 Energies <==================
	-----------------------------------------------------------
	 SCS Same-Spin Scale       =       0.3333333333333333 [-]
	 SCS Opposite-Spin Scale   =       1.2000000000000000 [-]
	 SCS Same-Spin Energy      =      -0.1893566786672041 [Eh]
	 SCS Opposite-Spin Energy  =      -2.0507997029739644 [Eh]
	 SCS Correlation Energy    =      -2.2401563816411683 [Eh]
	 SCS Total Energy          =    -854.3000597747935672 [Eh]
	-----------------------------------------------------------

  Dipole Moment: [D]
     X:    -1.3438      Y:     0.4147      Z:     0.0419     Total:     1.4070

*** Psi4 exiting successfully. Buy a developer a beer!
