                               Psi4 1.4a3.dev225

  ==> Input File <==

--------------------------------------------------------------------------
#psi4
#
memory 32 gb

molecule  {
0 1
  S        2.3127110    -1.0235480     0.0053950
  N       -0.6038690    -1.4671430     0.0025680
  N        1.5465020     1.4501510    -0.0053670
  C       -2.6591070     0.4777660    -0.0131840
  C       -0.3344116    -0.1659344    -0.0014288
  C       -1.3149260     0.8499960    -0.0079370
  C        1.0885480     0.2076610    -0.0012920
  C       -2.9473560    -0.8932820    -0.0075970
  C       -3.7562130     1.5070280     0.0143710
  C       -1.9011700    -1.8146870    -0.0009620
  C        3.5068880     0.2049870     0.0025490
  C        2.9141540     1.4483870    -0.0033310
  H       -1.0097250     1.8934330    -0.0150530
  H       -3.9776190    -1.2428240    -0.0150370
  H       -4.0970980     1.6828510     1.0402330
  H       -3.4086480     2.4606730    -0.3912090
  H       -4.6191930     1.1768790    -0.5707550
  H       -2.1040920    -2.8844300    -0.0003970
  H        4.5630320    -0.0321470     0.0049780
  H        3.4487670     2.3922440    -0.0062430
units angstrom
no_reorient  #important for SAPT in psi4, default
symmetry c1  #important for SAPT in psi4, default
}

set PROPERTIES_ORIGIN ["COM"]
properties('MP2/aug-cc-pvtz', properties = ['dipole'])
--------------------------------------------------------------------------

    Molecular point group: c1
  Charge       = 0
  Multiplicity = 1
  Basis Set: AUG-CC-PVTZ
    Blend: AUG-CC-PVTZ
  Basis Set: (AUG-CC-PVTZ AUX)
    Blend: AUG-CC-PVTZ-JKFIT

    Orbital Energies [Eh]
    ---------------------

    Doubly Occupied:

       1A    -91.993202     2A    -15.572585     3A    -15.571191
       4A    -11.312035     5A    -11.294618     6A    -11.282060
       7A    -11.271147     8A    -11.268440     9A    -11.263148
      10A    -11.243645    11A    -11.242668    12A    -11.239589
      13A     -8.993254    14A     -6.674024    15A     -6.673465
      16A     -6.672811    17A     -1.286136    18A     -1.260541
      19A     -1.114714    20A     -1.063923    21A     -1.059700
      22A     -0.984585    23A     -0.971736    24A     -0.872697
      25A     -0.843673    26A     -0.783794    27A     -0.749027
      28A     -0.697472    29A     -0.681052    30A     -0.670796
      31A     -0.634107    32A     -0.596008    33A     -0.586931
      34A     -0.572805    35A     -0.571073    36A     -0.562714
      37A     -0.547245    38A     -0.528189    39A     -0.514527
      40A     -0.500400    41A     -0.441922    42A     -0.420316
      43A     -0.392876    44A     -0.383180    45A     -0.365150
      46A     -0.305497

  @DF-RHF Final Energy:  -852.06193801375184

   => Energetics <=

    Nuclear Repulsion Energy =            720.4195670281192179
    One-Electron Energy =               -2595.9016710811060875
    Two-Electron Energy =                1023.4201660392350277
    Total Energy =                       -852.0619380137518419
  Basis Set: (AUG-CC-PVTZ AUX)
    Blend: AUG-CC-PVTZ-RI
    Molecular point group: c1

    Geometry (in Angstrom), charge = 0, multiplicity = 1:

       Center              X                  Y                   Z               Mass
    ------------   -----------------  -----------------  -----------------  -----------------
         S            2.250188313373    -0.991677374091     0.005653837032    31.972071174400
         N           -0.666391686627    -1.435272374091     0.002826837032    14.003074004430
         N            1.483979313373     1.482021625909    -0.005108162968    14.003074004430
         C           -2.721629686627     0.509636625909    -0.012925162968    12.000000000000
         C           -0.396934286627    -0.134063774091    -0.001169962968    12.000000000000
         C           -1.377448686627     0.881866625909    -0.007678162968    12.000000000000
         C            1.026025313373     0.239531625909    -0.001033162968    12.000000000000
         C           -3.009878686627    -0.861411374091    -0.007338162968    12.000000000000
         C           -3.818735686627     1.538898625909     0.014629837032    12.000000000000
         C           -1.963692686627    -1.782816374091    -0.000703162968    12.000000000000
         C            3.444365313373     0.236857625909     0.002807837032    12.000000000000
         C            2.851631313373     1.480257625909    -0.003072162968    12.000000000000
         H           -1.072247686627     1.925303625909    -0.014794162968     1.007825032230
         H           -4.040141686627    -1.210953374091    -0.014778162968     1.007825032230
         H           -4.159620686627     1.714721625909     1.040491837032     1.007825032230
         H           -3.471170686627     2.492543625909    -0.390950162968     1.007825032230
         H           -4.681715686627     1.208749625909    -0.570496162968     1.007825032230
         H           -2.166614686627    -2.852559374091    -0.000138162968     1.007825032230
         H            4.500509313373    -0.000276374091     0.005236837032     1.007825032230
         H            3.386244313373     2.424114625909    -0.005984162968     1.007825032230

  Basis Set: AUG-CC-PVTZ
    Blend: AUG-CC-PVTZ
  Basis Set: (AUG-CC-PVTZ AUX)
    Blend: AUG-CC-PVTZ-JKFIT
	 Reference Energy          =    -852.0619380137518419 [Eh]
	 Singles Energy            =      -0.0000000000000000 [Eh]
	 Same-Spin Energy          =      -0.5688950829671048 [Eh]
	 Opposite-Spin Energy      =      -1.7087543417796862 [Eh]
	 Correlation Energy        =      -2.2776494247467909 [Eh]
	 Total Energy              =    -854.3395874384985973 [Eh]

	 ================> DF-SCS-MP2 Energies <==================
	-----------------------------------------------------------
	 SCS Same-Spin Scale       =       0.3333333333333333 [-]
	 SCS Opposite-Spin Scale   =       1.2000000000000000 [-]
	 SCS Same-Spin Energy      =      -0.1896316943223683 [Eh]
	 SCS Opposite-Spin Energy  =      -2.0505052101356234 [Eh]
	 SCS Correlation Energy    =      -2.2401369044579917 [Eh]
	 SCS Total Energy          =    -854.3020749182098825 [Eh]
	-----------------------------------------------------------

  Dipole Moment: [D]
     X:    -1.3003      Y:     0.3882      Z:     0.0421     Total:     1.3577

*** Psi4 exiting successfully. Buy a developer a beer!
