                               Psi4 1.4a3.dev225

  ==> Input File <==

--------------------------------------------------------------------------
#psi4
#
memory 32 gb

molecule  {
0 1
  S        2.3127110    -1.0235480     0.0053950
  N       -0.6038690    -1.4671430     0.0025680
  N        1.5465020     1.4501510    -0.0053670
  C       -2.6591070     0.4777660    -0.0131840
  C       -0.3303560    -0.1463500    -0.0014890
  C       -1.3149260     0.8499960    -0.0079370
  C        1.0885480     0.2076610    -0.0012920
  C       -2.9473560    -0.8932820    -0.0075970
  C       -3.7562130     1.5070280     0.0143710
  C       -1.9386917    -1.7816406    -0.0012000
  C        3.5068880     0.2049870     0.0025490
  C        2.9141540     1.4483870    -0.0033310
  H       -1.0097250     1.8934330    -0.0150530
  H       -3.9776190    -1.2428240    -0.0150370
  H       -4.0970980     1.6828510     1.0402330
  H       -3.4086480     2.4606730    -0.3912090
  H       -4.6191930     1.1768790    -0.5707550
  H       -2.1040920    -2.8844300    -0.0003970
  H        4.5630320    -0.0321470     0.0049780
  H        3.4487670     2.3922440    -0.0062430
units angstrom
no_reorient  #important for SAPT in psi4, default
symmetry c1  #important for SAPT in psi4, default
}

set PROPERTIES_ORIGIN ["COM"]
properties('MP2/aug-cc-pvtz', properties = ['dipole'])
--------------------------------------------------------------------------

    Molecular point group: c1
  Charge       = 0
  Multiplicity = 1
  Basis Set: AUG-CC-PVTZ
    Blend: AUG-CC-PVTZ
  Basis Set: (AUG-CC-PVTZ AUX)
    Blend: AUG-CC-PVTZ-JKFIT

    Orbital Energies [Eh]
    ---------------------

    Doubly Occupied:

       1A    -91.994242     2A    -15.573483     3A    -15.572827
       4A    -11.311935     5A    -11.294560     6A    -11.278728
       7A    -11.272891     8A    -11.268856     9A    -11.264161
      10A    -11.240933    11A    -11.240370    12A    -11.238230
      13A     -8.994226    14A     -6.674989    15A     -6.674438
      16A     -6.673778    17A     -1.284387    18A     -1.253205
      19A     -1.115069    20A     -1.066642    21A     -1.060667
      22A     -0.989303    23A     -0.973451    24A     -0.869442
      25A     -0.843620    26A     -0.784767    27A     -0.748398
      28A     -0.698538    29A     -0.679225    30A     -0.673876
      31A     -0.627321    32A     -0.596558    33A     -0.588286
      34A     -0.572735    35A     -0.571923    36A     -0.560821
      37A     -0.545313    38A     -0.526191    39A     -0.510155
      40A     -0.500476    41A     -0.443784    42A     -0.424029
      43A     -0.396163    44A     -0.383224    45A     -0.363355
      46A     -0.308499

  @DF-RHF Final Energy:  -852.05769878339959

   => Energetics <=

    Nuclear Repulsion Energy =            720.6460173105630247
    One-Electron Energy =               -2596.3512899803499749
    Two-Electron Energy =                1023.6475738863874767
    Total Energy =                       -852.0576987833995872
  Basis Set: (AUG-CC-PVTZ AUX)
    Blend: AUG-CC-PVTZ-RI
    Molecular point group: c1

    Geometry (in Angstrom), charge = 0, multiplicity = 1:

       Center              X                  Y                   Z               Mass
    ------------   -----------------  -----------------  -----------------  -----------------
         S            2.252469563831    -0.995265005653     0.005674164135    31.972071174400
         N           -0.664110436169    -1.438860005653     0.002847164135    14.003074004430
         N            1.486260563831     1.478433994347    -0.005087835865    14.003074004430
         C           -2.719348436169     0.506048994347    -0.012904835865    12.000000000000
         C           -0.390597436169    -0.118067005653    -0.001209835865    12.000000000000
         C           -1.375167436169     0.878278994347    -0.007657835865    12.000000000000
         C            1.028306563831     0.235943994347    -0.001012835865    12.000000000000
         C           -3.007597436169    -0.864999005653    -0.007317835865    12.000000000000
         C           -3.816454436169     1.535310994347     0.014650164135    12.000000000000
         C           -1.998933136169    -1.753357605653    -0.000920835865    12.000000000000
         C            3.446646563831     0.233269994347     0.002828164135    12.000000000000
         C            2.853912563831     1.476669994347    -0.003051835865    12.000000000000
         H           -1.069966436169     1.921715994347    -0.014773835865     1.007825032230
         H           -4.037860436169    -1.214541005653    -0.014757835865     1.007825032230
         H           -4.157339436169     1.711133994347     1.040512164135     1.007825032230
         H           -3.468889436169     2.488955994347    -0.390929835865     1.007825032230
         H           -4.679434436169     1.205161994347    -0.570475835865     1.007825032230
         H           -2.164333436169    -2.856147005653    -0.000117835865     1.007825032230
         H            4.502790563831    -0.003864005653     0.005257164135     1.007825032230
         H            3.388525563831     2.420526994347    -0.005963835865     1.007825032230

  Basis Set: AUG-CC-PVTZ
    Blend: AUG-CC-PVTZ
  Basis Set: (AUG-CC-PVTZ AUX)
    Blend: AUG-CC-PVTZ-JKFIT
	 Reference Energy          =    -852.0576987833995872 [Eh]
	 Singles Energy            =      -0.0000000000000000 [Eh]
	 Same-Spin Energy          =      -0.5692026432312383 [Eh]
	 Opposite-Spin Energy      =      -1.7097641471377563 [Eh]
	 Correlation Energy        =      -2.2789667903689947 [Eh]
	 Total Energy              =    -854.3366655737685278 [Eh]

	 ================> DF-SCS-MP2 Energies <==================
	-----------------------------------------------------------
	 SCS Same-Spin Scale       =       0.3333333333333333 [-]
	 SCS Opposite-Spin Scale   =       1.2000000000000000 [-]
	 SCS Same-Spin Energy      =      -0.1897342144104127 [Eh]
	 SCS Opposite-Spin Energy  =      -2.0517169765653076 [Eh]
	 SCS Correlation Energy    =      -2.2414511909757202 [Eh]
	 SCS Total Energy          =    -854.2991499743752684 [Eh]
	-----------------------------------------------------------

  Dipole Moment: [D]
     X:    -1.2608      Y:     0.4747      Z:     0.0423     Total:     1.3478

*** Psi4 exiting successfully. Buy a developer a beer!
