                               Psi4 1.4a3.dev225

  ==> Input File <==

--------------------------------------------------------------------------
#psi4
#
memory 32 gb

molecule  {
0 1
  S        2.3127110    -1.0235480     0.0053950
  N       -0.6038690    -1.4671430     0.0025680
  N        1.5465020     1.4501510    -0.0053670
  C       -2.6591070     0.4777660    -0.0131840
  C       -0.3303560    -0.1463500    -0.0014890
  C       -1.3149260     0.8499960    -0.0079370
  C        1.1026494     0.1934784    -0.0012150
  C       -2.9473560    -0.8932820    -0.0075970
  C       -3.7562130     1.5070280     0.0143710
  C       -1.9011700    -1.8146870    -0.0009620
  C        3.5068880     0.2049870     0.0025490
  C        2.9141540     1.4483870    -0.0033310
  H       -1.0097250     1.8934330    -0.0150530
  H       -3.9776190    -1.2428240    -0.0150370
  H       -4.0970980     1.6828510     1.0402330
  H       -3.4086480     2.4606730    -0.3912090
  H       -4.6191930     1.1768790    -0.5707550
  H       -2.1040920    -2.8844300    -0.0003970
  H        4.5630320    -0.0321470     0.0049780
  H        3.4487670     2.3922440    -0.0062430
units angstrom
no_reorient  #important for SAPT in psi4, default
symmetry c1  #important for SAPT in psi4, default
}

set PROPERTIES_ORIGIN ["COM"]
properties('MP2/aug-cc-pvtz', properties = ['dipole'])
--------------------------------------------------------------------------

    Molecular point group: c1
  Charge       = 0
  Multiplicity = 1
  Basis Set: AUG-CC-PVTZ
    Blend: AUG-CC-PVTZ
  Basis Set: (AUG-CC-PVTZ AUX)
    Blend: AUG-CC-PVTZ-JKFIT

    Orbital Energies [Eh]
    ---------------------

    Doubly Occupied:

       1A    -91.995464     2A    -15.572197     3A    -15.571263
       4A    -11.311444     5A    -11.294354     6A    -11.281446
       7A    -11.271372     8A    -11.268603     9A    -11.262590
      10A    -11.242953    11A    -11.241670    12A    -11.239577
      13A     -8.995740    14A     -6.676516    15A     -6.675973
      16A     -6.675293    17A     -1.283710    18A     -1.255913
      19A     -1.113594    20A     -1.064593    21A     -1.061066
      22A     -0.984942    23A     -0.972187    24A     -0.870953
      25A     -0.842628    26A     -0.783289    27A     -0.749741
      28A     -0.697694    29A     -0.678407    30A     -0.671076
      31A     -0.633184    32A     -0.595511    33A     -0.584628
      34A     -0.572451    35A     -0.572123    36A     -0.561002
      37A     -0.547566    38A     -0.526442    39A     -0.514010
      40A     -0.501743    41A     -0.442456    42A     -0.422319
      43A     -0.391921    44A     -0.381964    45A     -0.366445
      46A     -0.305569

  @DF-RHF Final Energy:  -852.06089992224156

   => Energetics <=

    Nuclear Repulsion Energy =            720.4471518782632984
    One-Electron Energy =               -2595.9649362935797399
    Two-Electron Energy =                1023.4568844930747673
    Total Energy =                       -852.0608999222415605
  Basis Set: (AUG-CC-PVTZ AUX)
    Blend: AUG-CC-PVTZ-RI
    Molecular point group: c1

    Geometry (in Angstrom), charge = 0, multiplicity = 1:

       Center              X                  Y                   Z               Mass
    ------------   -----------------  -----------------  -----------------  -----------------
         S            2.248950623156    -0.992045593236     0.005652691843    31.972071174400
         N           -0.667629376844    -1.435640593236     0.002825691843    14.003074004430
         N            1.482741623156     1.481653406764    -0.005109308157    14.003074004430
         C           -2.722867376844     0.509268406764    -0.012926308157    12.000000000000
         C           -0.394116376844    -0.114847593236    -0.001231308157    12.000000000000
         C           -1.378686376844     0.881498406764    -0.007679308157    12.000000000000
         C            1.038889023156     0.224980806764    -0.000957308157    12.000000000000
         C           -3.011116376844    -0.861779593236    -0.007339308157    12.000000000000
         C           -3.819973376844     1.538530406764     0.014628691843    12.000000000000
         C           -1.964930376844    -1.783184593236    -0.000704308157    12.000000000000
         C            3.443127623156     0.236489406764     0.002806691843    12.000000000000
         C            2.850393623156     1.479889406764    -0.003073308157    12.000000000000
         H           -1.073485376844     1.924935406764    -0.014795308157     1.007825032230
         H           -4.041379376844    -1.211321593236    -0.014779308157     1.007825032230
         H           -4.160858376844     1.714353406764     1.040490691843     1.007825032230
         H           -3.472408376844     2.492175406764    -0.390951308157     1.007825032230
         H           -4.682953376844     1.208381406764    -0.570497308157     1.007825032230
         H           -2.167852376844    -2.852927593236    -0.000139308157     1.007825032230
         H            4.499271623156    -0.000644593236     0.005235691843     1.007825032230
         H            3.385006623156     2.423746406764    -0.005985308157     1.007825032230

  Basis Set: AUG-CC-PVTZ
    Blend: AUG-CC-PVTZ
  Basis Set: (AUG-CC-PVTZ AUX)
    Blend: AUG-CC-PVTZ-JKFIT
	 Reference Energy          =    -852.0608999222415605 [Eh]
	 Singles Energy            =      -0.0000000000000000 [Eh]
	 Same-Spin Energy          =      -0.5692578060118090 [Eh]
	 Opposite-Spin Energy      =      -1.7093625182113805 [Eh]
	 Correlation Energy        =      -2.2786203242231897 [Eh]
	 Total Energy              =    -854.3395202464647582 [Eh]

	 ================> DF-SCS-MP2 Energies <==================
	-----------------------------------------------------------
	 SCS Same-Spin Scale       =       0.3333333333333333 [-]
	 SCS Opposite-Spin Scale   =       1.2000000000000000 [-]
	 SCS Same-Spin Energy      =      -0.1897526020039363 [Eh]
	 SCS Opposite-Spin Energy  =      -2.0512350218536564 [Eh]
	 SCS Correlation Energy    =      -2.2409876238575928 [Eh]
	 SCS Total Energy          =    -854.3018875460991239 [Eh]
	-----------------------------------------------------------

  Dipole Moment: [D]
     X:    -1.2179      Y:     0.3512      Z:     0.0422     Total:     1.2683

*** Psi4 exiting successfully. Buy a developer a beer!
