                               Psi4 1.4a3.dev225

  ==> Input File <==

--------------------------------------------------------------------------
#psi4
#
memory 32 gb

molecule  {
0 1
  S        2.3127110    -1.0235480     0.0053950
  N       -0.6038690    -1.4671430     0.0025680
  N        1.5465020     1.4501510    -0.0053670
  C       -2.6591070     0.4777660    -0.0131840
  C       -0.3303560    -0.1463500    -0.0014890
  C       -1.3149260     0.8499960    -0.0079370
  C        1.0885480     0.2076610    -0.0012920
  C       -2.9473560    -0.8932820    -0.0075970
  C       -3.7562130     1.5070280     0.0143710
  C       -1.9011700    -1.8146870    -0.0009620
  C        3.5068880     0.2049870     0.0025490
  C        2.8141542     1.4485160    -0.0034799
  H       -1.0097250     1.8934330    -0.0150530
  H       -3.9776190    -1.2428240    -0.0150370
  H       -4.0970980     1.6828510     1.0402330
  H       -3.4086480     2.4606730    -0.3912090
  H       -4.6191930     1.1768790    -0.5707550
  H       -2.1040920    -2.8844300    -0.0003970
  H        4.5630320    -0.0321470     0.0049780
  H        3.4487670     2.3922440    -0.0062430
units angstrom
no_reorient  #important for SAPT in psi4, default
symmetry c1  #important for SAPT in psi4, default
}

set PROPERTIES_ORIGIN ["COM"]
properties('MP2/aug-cc-pvtz', properties = ['dipole'])
--------------------------------------------------------------------------

    Molecular point group: c1
  Charge       = 0
  Multiplicity = 1
  Basis Set: AUG-CC-PVTZ
    Blend: AUG-CC-PVTZ
  Basis Set: (AUG-CC-PVTZ AUX)
    Blend: AUG-CC-PVTZ-JKFIT

    Orbital Energies [Eh]
    ---------------------

    Doubly Occupied:

       1A    -91.999243     2A    -15.570166     3A    -15.568886
       4A    -11.311084     5A    -11.293530     6A    -11.281446
       7A    -11.271246     8A    -11.271161     9A    -11.265097
      10A    -11.241992    11A    -11.240982    12A    -11.239427
      13A     -8.998588    14A     -6.679229    15A     -6.678803
      16A     -6.678270    17A     -1.308749    18A     -1.261013
      19A     -1.113287    20A     -1.071697    21A     -1.061671
      22A     -0.980566    23A     -0.970174    24A     -0.867782
      25A     -0.845027    26A     -0.790140    27A     -0.747499
      28A     -0.701777    29A     -0.677586    30A     -0.669955
      31A     -0.633770    32A     -0.596759    33A     -0.590378
      34A     -0.580535    35A     -0.575033    36A     -0.561958
      37A     -0.546807    38A     -0.529636    39A     -0.514592
      40A     -0.486667    41A     -0.440583    42A     -0.423144
      43A     -0.398763    44A     -0.383334    45A     -0.368197
      46A     -0.293759

  @DF-RHF Final Energy:  -852.04649238911895

   => Energetics <=

    Nuclear Repulsion Energy =            722.0848242768068985
    One-Electron Energy =               -2599.1026494051457121
    Two-Electron Energy =                1024.9713327392196334
    Total Energy =                       -852.0464923891190665
  Basis Set: (AUG-CC-PVTZ AUX)
    Blend: AUG-CC-PVTZ-RI
    Molecular point group: c1

    Geometry (in Angstrom), charge = 0, multiplicity = 1:

       Center              X                  Y                   Z               Mass
    ------------   -----------------  -----------------  -----------------  -----------------
         S            2.256728446529    -0.993021157883     0.005668090544    31.972071174400
         N           -0.659851553471    -1.436616157883     0.002841090544    14.003074004430
         N            1.490519446529     1.480677842117    -0.005093909456    14.003074004430
         C           -2.715089553471     0.508292842117    -0.012910909456    12.000000000000
         C           -0.386338553471    -0.115823157883    -0.001215909456    12.000000000000
         C           -1.370908553471     0.880522842117    -0.007663909456    12.000000000000
         C            1.032565446529     0.238187842117    -0.001018909456    12.000000000000
         C           -3.003338553471    -0.862755157883    -0.007323909456    12.000000000000
         C           -3.812195553471     1.537554842117     0.014644090544    12.000000000000
         C           -1.957152553471    -1.784160157883    -0.000688909456    12.000000000000
         C            3.450905446529     0.235513842117     0.002822090544    12.000000000000
         C            2.758171646529     1.479042842117    -0.003206809456    12.000000000000
         H           -1.065707553471     1.923959842117    -0.014779909456     1.007825032230
         H           -4.033601553471    -1.212297157883    -0.014763909456     1.007825032230
         H           -4.153080553471     1.713377842117     1.040506090544     1.007825032230
         H           -3.464630553471     2.491199842117    -0.390935909456     1.007825032230
         H           -4.675175553471     1.207405842117    -0.570481909456     1.007825032230
         H           -2.160074553471    -2.853903157883    -0.000123909456     1.007825032230
         H            4.507049446529    -0.001620157883     0.005251090544     1.007825032230
         H            3.392784446529     2.422770842117    -0.005969909456     1.007825032230

  Basis Set: AUG-CC-PVTZ
    Blend: AUG-CC-PVTZ
  Basis Set: (AUG-CC-PVTZ AUX)
    Blend: AUG-CC-PVTZ-JKFIT
	 Reference Energy          =    -852.0464923891189528 [Eh]
	 Singles Energy            =      -0.0000000000000000 [Eh]
	 Same-Spin Energy          =      -0.5716880037304455 [Eh]
	 Opposite-Spin Energy      =      -1.7108874580828517 [Eh]
	 Correlation Energy        =      -2.2825754618132974 [Eh]
	 Total Energy              =    -854.3290678509322333 [Eh]

	 ================> DF-SCS-MP2 Energies <==================
	-----------------------------------------------------------
	 SCS Same-Spin Scale       =       0.3333333333333333 [-]
	 SCS Opposite-Spin Scale   =       1.2000000000000000 [-]
	 SCS Same-Spin Energy      =      -0.1905626679101485 [Eh]
	 SCS Opposite-Spin Energy  =      -2.0530649496994218 [Eh]
	 SCS Correlation Energy    =      -2.2436276176095702 [Eh]
	 SCS Total Energy          =    -854.2901200067285572 [Eh]
	-----------------------------------------------------------

  Dipole Moment: [D]
     X:    -1.1578      Y:     0.3747      Z:     0.0423     Total:     1.2177

*** Psi4 exiting successfully. Buy a developer a beer!
