                               Psi4 1.4a3.dev225

  ==> Input File <==

--------------------------------------------------------------------------
#psi4
#
memory 32 gb

molecule  {
0 1
  S        2.3127110    -1.0235480     0.0053950
  N       -0.6038690    -1.4671430     0.0025680
  N        1.5465020     1.4501510    -0.0053670
  C       -2.6591070     0.4777660    -0.0131840
  C       -0.3303560    -0.1463500    -0.0014890
  C       -1.3149260     0.8499960    -0.0079370
  C        1.0885480     0.2076610    -0.0012920
  C       -2.9473560    -0.8932820    -0.0075970
  C       -3.7562130     1.5070280     0.0143710
  C       -1.8261266    -1.8807798    -0.0004861
  C        3.5068880     0.2049870     0.0025490
  C        2.9141540     1.4483870    -0.0033310
  H       -1.0097250     1.8934330    -0.0150530
  H       -3.9776190    -1.2428240    -0.0150370
  H       -4.0970980     1.6828510     1.0402330
  H       -3.4086480     2.4606730    -0.3912090
  H       -4.6191930     1.1768790    -0.5707550
  H       -2.1040920    -2.8844300    -0.0003970
  H        4.5630320    -0.0321470     0.0049780
  H        3.4487670     2.3922440    -0.0062430
units angstrom
no_reorient  #important for SAPT in psi4, default
symmetry c1  #important for SAPT in psi4, default
}

set PROPERTIES_ORIGIN ["COM"]
properties('MP2/aug-cc-pvtz', properties = ['dipole'])
--------------------------------------------------------------------------

    Molecular point group: c1
  Charge       = 0
  Multiplicity = 1
  Basis Set: AUG-CC-PVTZ
    Blend: AUG-CC-PVTZ
  Basis Set: (AUG-CC-PVTZ AUX)
    Blend: AUG-CC-PVTZ-JKFIT

    Orbital Energies [Eh]
    ---------------------

    Doubly Occupied:

       1A    -91.992756     2A    -15.570224     3A    -15.570101
       4A    -11.311337     5A    -11.292832     6A    -11.286888
       7A    -11.268750     8A    -11.267703     9A    -11.261643
      10A    -11.251333    11A    -11.244517    12A    -11.238515
      13A     -8.992761    14A     -6.673532    15A     -6.672982
      16A     -6.672319    17A     -1.287057    18A     -1.263121
      19A     -1.113473    20A     -1.063385    21A     -1.060015
      22A     -0.978360    23A     -0.966806    24A     -0.877781
      25A     -0.843823    26A     -0.783176    27A     -0.750800
      28A     -0.695634    29A     -0.683761    30A     -0.668599
      31A     -0.643299    32A     -0.594671    33A     -0.586382
      34A     -0.572637    35A     -0.570427    36A     -0.562483
      37A     -0.548854    38A     -0.528159    39A     -0.520453
      40A     -0.499492    41A     -0.436593    42A     -0.412577
      43A     -0.392143    44A     -0.381729    45A     -0.368466
      46A     -0.298149

  @DF-RHF Final Energy:  -852.05139504948067

   => Energetics <=

    Nuclear Repulsion Energy =            719.8793754692321727
    One-Electron Energy =               -2594.8205423328977304
    Two-Electron Energy =                1022.8897718141848827
    Total Energy =                       -852.0513950494806750
  Basis Set: (AUG-CC-PVTZ AUX)
    Blend: AUG-CC-PVTZ-RI
    Molecular point group: c1

    Geometry (in Angstrom), charge = 0, multiplicity = 1:

       Center              X                  Y                   Z               Mass
    ------------   -----------------  -----------------  -----------------  -----------------
         S            2.244796450264    -0.988507082099     0.005625500422    31.972071174400
         N           -0.671783549736    -1.432102082099     0.002798500422    14.003074004430
         N            1.478587450264     1.485191917901    -0.005136499578    14.003074004430
         C           -2.727021549736     0.512806917901    -0.012953499578    12.000000000000
         C           -0.398270549736    -0.111309082099    -0.001258499578    12.000000000000
         C           -1.382840549736     0.885036917901    -0.007706499578    12.000000000000
         C            1.020633450264     0.242701917901    -0.001061499578    12.000000000000
         C           -3.015270549736    -0.858241082099    -0.007366499578    12.000000000000
         C           -3.824127549736     1.542068917901     0.014601500422    12.000000000000
         C           -1.894041149736    -1.845738882099    -0.000255599578    12.000000000000
         C            3.438973450264     0.240027917901     0.002779500422    12.000000000000
         C            2.846239450264     1.483427917901    -0.003100499578    12.000000000000
         H           -1.077639549736     1.928473917901    -0.014822499578     1.007825032230
         H           -4.045533549736    -1.207783082099    -0.014806499578     1.007825032230
         H           -4.165012549736     1.717891917901     1.040463500422     1.007825032230
         H           -3.476562549736     2.495713917901    -0.390978499578     1.007825032230
         H           -4.687107549736     1.211919917901    -0.570524499578     1.007825032230
         H           -2.172006549736    -2.849389082099    -0.000166499578     1.007825032230
         H            4.495117450264     0.002893917901     0.005208500422     1.007825032230
         H            3.380852450264     2.427284917901    -0.006012499578     1.007825032230

  Basis Set: AUG-CC-PVTZ
    Blend: AUG-CC-PVTZ
  Basis Set: (AUG-CC-PVTZ AUX)
    Blend: AUG-CC-PVTZ-JKFIT
	 Reference Energy          =    -852.0513950494806750 [Eh]
	 Singles Energy            =      -0.0000000000000000 [Eh]
	 Same-Spin Energy          =      -0.5687630234718828 [Eh]
	 Opposite-Spin Energy      =      -1.7090693427914003 [Eh]
	 Correlation Energy        =      -2.2778323662632829 [Eh]
	 Total Energy              =    -854.3292274157439579 [Eh]

	 ================> DF-SCS-MP2 Energies <==================
	-----------------------------------------------------------
	 SCS Same-Spin Scale       =       0.3333333333333333 [-]
	 SCS Opposite-Spin Scale   =       1.2000000000000000 [-]
	 SCS Same-Spin Energy      =      -0.1895876744906276 [Eh]
	 SCS Opposite-Spin Energy  =      -2.0508832113496802 [Eh]
	 SCS Correlation Energy    =      -2.2404708858403080 [Eh]
	 SCS Total Energy          =    -854.2918659353209705 [Eh]
	-----------------------------------------------------------

  Dipole Moment: [D]
     X:    -1.2671      Y:     0.2200      Z:     0.0418     Total:     1.2867

*** Psi4 exiting successfully. Buy a developer a beer!
