                               Psi4 1.4a3.dev225

  ==> Input File <==

--------------------------------------------------------------------------
#psi4
#
memory 32 gb

molecule  {
0 1
  S        2.3127110    -1.0235480     0.0053950
  N       -0.6038690    -1.4671430     0.0025680
  N        1.5465020     1.4501510    -0.0053670
  C       -2.6591070     0.4777660    -0.0131840
  C       -0.3303560    -0.1463500    -0.0014890
  C       -1.3149260     0.8499960    -0.0079370
  C        1.0885480     0.2076610    -0.0012920
  C       -2.9473560    -0.8932820    -0.0075970
  C       -3.7562130     1.5070280     0.0143710
  C       -1.9011700    -1.8146870    -0.0009620
  C        3.5068880     0.2049870     0.0025490
  C        2.8288618     1.4040109    -0.0032687
  H       -1.0097250     1.8934330    -0.0150530
  H       -3.9776190    -1.2428240    -0.0150370
  H       -4.0970980     1.6828510     1.0402330
  H       -3.4086480     2.4606730    -0.3912090
  H       -4.6191930     1.1768790    -0.5707550
  H       -2.1040920    -2.8844300    -0.0003970
  H        4.5630320    -0.0321470     0.0049780
  H        3.4487670     2.3922440    -0.0062430
units angstrom
no_reorient  #important for SAPT in psi4, default
symmetry c1  #important for SAPT in psi4, default
}

set PROPERTIES_ORIGIN ["COM"]
properties('MP2/aug-cc-pvtz', properties = ['dipole'])
--------------------------------------------------------------------------

    Molecular point group: c1
  Charge       = 0
  Multiplicity = 1
  Basis Set: AUG-CC-PVTZ
    Blend: AUG-CC-PVTZ
  Basis Set: (AUG-CC-PVTZ AUX)
    Blend: AUG-CC-PVTZ-JKFIT

    Orbital Energies [Eh]
    ---------------------

    Doubly Occupied:

       1A    -91.996065     2A    -15.571407     3A    -15.569234
       4A    -11.312868     5A    -11.293972     6A    -11.282105
       7A    -11.271936     8A    -11.268620     9A    -11.260082
      10A    -11.243290    11A    -11.242266    12A    -11.240011
      13A     -8.995828    14A     -6.676492    15A     -6.676075
      16A     -6.675451    17A     -1.307797    18A     -1.261706
      19A     -1.114154    20A     -1.071082    21A     -1.065086
      22A     -0.982201    23A     -0.971852    24A     -0.869497
      25A     -0.846671    26A     -0.787092    27A     -0.747843
      28A     -0.703956    29A     -0.677671    30A     -0.671019
      31A     -0.630863    32A     -0.597369    33A     -0.583720
      34A     -0.581110    35A     -0.576712    36A     -0.562512
      37A     -0.548267    38A     -0.530604    39A     -0.515299
      40A     -0.483446    41A     -0.444218    42A     -0.423597
      43A     -0.396923    44A     -0.384865    45A     -0.368792
      46A     -0.299830

  @DF-RHF Final Energy:  -852.04881670486236

   => Energetics <=

    Nuclear Repulsion Energy =            722.6730663483874650
    One-Electron Energy =               -2600.2808570449747094
    Two-Electron Energy =                1025.5589739917249972
    Total Energy =                       -852.0488167048622472
  Basis Set: (AUG-CC-PVTZ AUX)
    Blend: AUG-CC-PVTZ-RI
    Molecular point group: c1

    Geometry (in Angstrom), charge = 0, multiplicity = 1:

       Center              X                  Y                   Z               Mass
    ------------   -----------------  -----------------  -----------------  -----------------
         S            2.255725888142    -0.989987422857     0.005653693883    31.972071174400
         N           -0.660854111858    -1.433582422857     0.002826693883    14.003074004430
         N            1.489516888142     1.483711577143    -0.005108306117    14.003074004430
         C           -2.716092111858     0.511326577143    -0.012925306117    12.000000000000
         C           -0.387341111858    -0.112789422857    -0.001230306117    12.000000000000
         C           -1.371911111858     0.883556577143    -0.007678306117    12.000000000000
         C            1.031562888142     0.241221577143    -0.001033306117    12.000000000000
         C           -3.004341111858    -0.859721422857    -0.007338306117    12.000000000000
         C           -3.813198111858     1.540588577143     0.014629693883    12.000000000000
         C           -1.958155111858    -1.781126422857    -0.000703306117    12.000000000000
         C            3.449902888142     0.238547577143     0.002807693883    12.000000000000
         C            2.771876688142     1.437571477143    -0.003010006117    12.000000000000
         H           -1.066710111858     1.926993577143    -0.014794306117     1.007825032230
         H           -4.034604111858    -1.209263422857    -0.014778306117     1.007825032230
         H           -4.154083111858     1.716411577143     1.040491693883     1.007825032230
         H           -3.465633111858     2.494233577143    -0.390950306117     1.007825032230
         H           -4.676178111858     1.210439577143    -0.570496306117     1.007825032230
         H           -2.161077111858    -2.850869422857    -0.000138306117     1.007825032230
         H            4.506046888142     0.001413577143     0.005236693883     1.007825032230
         H            3.391781888142     2.425804577143    -0.005984306117     1.007825032230

  Basis Set: AUG-CC-PVTZ
    Blend: AUG-CC-PVTZ
  Basis Set: (AUG-CC-PVTZ AUX)
    Blend: AUG-CC-PVTZ-JKFIT
	 Reference Energy          =    -852.0488167048623609 [Eh]
	 Singles Energy            =      -0.0000000000000000 [Eh]
	 Same-Spin Energy          =      -0.5706400693074892 [Eh]
	 Opposite-Spin Energy      =      -1.7096490313054118 [Eh]
	 Correlation Energy        =      -2.2802891006129009 [Eh]
	 Total Energy              =    -854.3291058054752511 [Eh]

	 ================> DF-SCS-MP2 Energies <==================
	-----------------------------------------------------------
	 SCS Same-Spin Scale       =       0.3333333333333333 [-]
	 SCS Opposite-Spin Scale   =       1.2000000000000000 [-]
	 SCS Same-Spin Energy      =      -0.1902133564358297 [Eh]
	 SCS Opposite-Spin Energy  =      -2.0515788375664941 [Eh]
	 SCS Correlation Energy    =      -2.2417921940023238 [Eh]
	 SCS Total Energy          =    -854.2906088988646616 [Eh]
	-----------------------------------------------------------

  Dipole Moment: [D]
     X:    -1.2425      Y:     0.3038      Z:     0.0425     Total:     1.2798

*** Psi4 exiting successfully. Buy a developer a beer!
