                               Psi4 1.4a3.dev225

  ==> Input File <==

--------------------------------------------------------------------------
#psi4
#
memory 32 gb

molecule  {
0 1
  S        2.3127110    -1.0235480     0.0053950
  N       -0.6038690    -1.4671430     0.0025680
  N        1.5465020     1.4501510    -0.0053670
  C       -2.6591070     0.4777660    -0.0131840
  C       -0.3303560    -0.1463500    -0.0014890
  C       -1.3149260     0.8499960    -0.0079370
  C        1.0885480     0.2076610    -0.0012920
  C       -2.9473560    -0.8932820    -0.0075970
  C       -3.7562130     1.5070280     0.0143710
  C       -1.9011700    -1.8146870    -0.0009620
  C        3.3674864     0.0615747     0.0028812
  C        2.9141540     1.4483870    -0.0033310
  H       -1.0097250     1.8934330    -0.0150530
  H       -3.9776190    -1.2428240    -0.0150370
  H       -4.0970980     1.6828510     1.0402330
  H       -3.4086480     2.4606730    -0.3912090
  H       -4.6191930     1.1768790    -0.5707550
  H       -2.1040920    -2.8844300    -0.0003970
  H        4.5630320    -0.0321470     0.0049780
  H        3.4487670     2.3922440    -0.0062430
units angstrom
no_reorient  #important for SAPT in psi4, default
symmetry c1  #important for SAPT in psi4, default
}

set PROPERTIES_ORIGIN ["COM"]
properties('MP2/aug-cc-pvtz', properties = ['dipole'])
--------------------------------------------------------------------------

    Molecular point group: c1
  Charge       = 0
  Multiplicity = 1
  Basis Set: AUG-CC-PVTZ
    Blend: AUG-CC-PVTZ
  Basis Set: (AUG-CC-PVTZ AUX)
    Blend: AUG-CC-PVTZ-JKFIT

    Orbital Energies [Eh]
    ---------------------

    Doubly Occupied:

       1A    -92.000557     2A    -15.576988     3A    -15.565622
       4A    -11.297508     5A    -11.290653     6A    -11.278431
       7A    -11.273320     8A    -11.270817     9A    -11.267744
      10A    -11.236827    11A    -11.236760    12A    -11.235306
      13A     -9.006113    14A     -6.687677    15A     -6.685743
      16A     -6.685264    17A     -1.289716    18A     -1.254493
      19A     -1.114910    20A     -1.106533    21A     -1.056458
      22A     -0.973662    23A     -0.964403    24A     -0.866154
      25A     -0.834496    26A     -0.775330    27A     -0.753015
      28A     -0.697653    29A     -0.674567    30A     -0.663726
      31A     -0.631491    32A     -0.593929    33A     -0.584312
      34A     -0.578858    35A     -0.570815    36A     -0.557771
      37A     -0.544007    38A     -0.527877    39A     -0.517871
      40A     -0.494640    41A     -0.441048    42A     -0.421043
      43A     -0.415973    44A     -0.376820    45A     -0.361724
      46A     -0.286615

  @DF-RHF Final Energy:  -852.00853232302154

   => Energetics <=

    Nuclear Repulsion Energy =            724.5773266274342177
    One-Electron Energy =               -2604.1212369267300346
    Two-Electron Energy =                1027.5353779762742761
    Total Energy =                       -852.0085323230216545
  Basis Set: (AUG-CC-PVTZ AUX)
    Blend: AUG-CC-PVTZ-RI
    Molecular point group: c1

    Geometry (in Angstrom), charge = 0, multiplicity = 1:

       Center              X                  Y                   Z               Mass
    ------------   -----------------  -----------------  -----------------  -----------------
         S            2.259414309964    -0.983236520403     0.005635295877    31.972071174400
         N           -0.657165690036    -1.426831520403     0.002808295877    14.003074004430
         N            1.493205309964     1.490462479597    -0.005126704123    14.003074004430
         C           -2.712403690036     0.518077479597    -0.012943704123    12.000000000000
         C           -0.383652690036    -0.106038520403    -0.001248704123    12.000000000000
         C           -1.368222690036     0.890307479597    -0.007696704123    12.000000000000
         C            1.035251309964     0.247972479597    -0.001051704123    12.000000000000
         C           -3.000652690036    -0.852970520403    -0.007356704123    12.000000000000
         C           -3.809509690036     1.547339479597     0.014611295877    12.000000000000
         C           -1.954466690036    -1.774375520403    -0.000721704123    12.000000000000
         C            3.314189709964     0.101886179597     0.003121495877    12.000000000000
         C            2.860857309964     1.488698479597    -0.003090704123    12.000000000000
         H           -1.063021690036     1.933744479597    -0.014812704123     1.007825032230
         H           -4.030915690036    -1.202512520403    -0.014796704123     1.007825032230
         H           -4.150394690036     1.723162479597     1.040473295877     1.007825032230
         H           -3.461944690036     2.500984479597    -0.390968704123     1.007825032230
         H           -4.672489690036     1.217190479597    -0.570514704123     1.007825032230
         H           -2.157388690036    -2.844118520403    -0.000156704123     1.007825032230
         H            4.509735309964     0.008164479597     0.005218295877     1.007825032230
         H            3.395470309964     2.432555479597    -0.006002704123     1.007825032230

  Basis Set: AUG-CC-PVTZ
    Blend: AUG-CC-PVTZ
  Basis Set: (AUG-CC-PVTZ AUX)
    Blend: AUG-CC-PVTZ-JKFIT
	 Reference Energy          =    -852.0085323230215408 [Eh]
	 Singles Energy            =      -0.0000000000000000 [Eh]
	 Same-Spin Energy          =      -0.5743114857885985 [Eh]
	 Opposite-Spin Energy      =      -1.7140239173079088 [Eh]
	 Correlation Energy        =      -2.2883354030965073 [Eh]
	 Total Energy              =    -854.2968677261180801 [Eh]

	 ================> DF-SCS-MP2 Energies <==================
	-----------------------------------------------------------
	 SCS Same-Spin Scale       =       0.3333333333333333 [-]
	 SCS Opposite-Spin Scale   =       1.2000000000000000 [-]
	 SCS Same-Spin Energy      =      -0.1914371619295328 [Eh]
	 SCS Opposite-Spin Energy  =      -2.0568287007694903 [Eh]
	 SCS Correlation Energy    =      -2.2482658626990233 [Eh]
	 SCS Total Energy          =    -854.2567981857205268 [Eh]
	-----------------------------------------------------------

  Dipole Moment: [D]
     X:    -0.9593      Y:     0.2910      Z:     0.0427     Total:     1.0033

*** Psi4 exiting successfully. Buy a developer a beer!
