                               Psi4 1.4a3.dev225

  ==> Input File <==

--------------------------------------------------------------------------
#psi4
#
memory 32 gb

molecule  {
0 1
  S        2.3127110    -1.0235480     0.0053950
  N       -0.6038690    -1.4671430     0.0025680
  N        1.5465020     1.4501510    -0.0053670
  C       -2.6591070     0.4777660    -0.0131840
  C       -0.3303560    -0.1463500    -0.0014890
  C       -1.3149260     0.8499960    -0.0079370
  C        1.0885480     0.2076610    -0.0012920
  C       -2.9473560    -0.8932820    -0.0075970
  C       -3.7562130     1.5070280     0.0143710
  C       -1.9011700    -1.8146870    -0.0009620
  C        3.5068880     0.2049870     0.0025490
  C        2.9141540     1.4483870    -0.0033310
  H       -1.0097250     1.8934330    -0.0150530
  H       -4.0723150    -1.2749519    -0.0157208
  H       -4.0970980     1.6828510     1.0402330
  H       -3.4086480     2.4606730    -0.3912090
  H       -4.6191930     1.1768790    -0.5707550
  H       -2.1040920    -2.8844300    -0.0003970
  H        4.5630320    -0.0321470     0.0049780
  H        3.4487670     2.3922440    -0.0062430
units angstrom
no_reorient  #important for SAPT in psi4, default
symmetry c1  #important for SAPT in psi4, default
}

set PROPERTIES_ORIGIN ["COM"]
properties('MP2/aug-cc-pvtz', properties = ['dipole'])
--------------------------------------------------------------------------

    Molecular point group: c1
  Charge       = 0
  Multiplicity = 1
  Basis Set: AUG-CC-PVTZ
    Blend: AUG-CC-PVTZ
  Basis Set: (AUG-CC-PVTZ AUX)
    Blend: AUG-CC-PVTZ-JKFIT

    Orbital Energies [Eh]
    ---------------------

    Doubly Occupied:

       1A    -91.994050     2A    -15.572743     3A    -15.572739
       4A    -11.312058     5A    -11.294487     6A    -11.282908
       7A    -11.272736     8A    -11.268731     9A    -11.263615
      10A    -11.254540    11A    -11.242811    12A    -11.239768
      13A     -8.994039    14A     -6.674805    15A     -6.674254
      16A     -6.673593    17A     -1.285192    18A     -1.257197
      19A     -1.113582    20A     -1.065168    21A     -1.060377
      22A     -0.982865    23A     -0.972461    24A     -0.868832
      25A     -0.844439    26A     -0.784234    27A     -0.749480
      28A     -0.696503    29A     -0.679197    30A     -0.660480
      31A     -0.633311    32A     -0.596035    33A     -0.584512
      34A     -0.572909    35A     -0.571486    36A     -0.557270
      37A     -0.547019    38A     -0.526970    39A     -0.511758
      40A     -0.500710    41A     -0.441481    42A     -0.421567
      43A     -0.393913    44A     -0.382208    45A     -0.366919
      46A     -0.305361

  @DF-RHF Final Energy:  -852.05411671686147

   => Energetics <=

    Nuclear Repulsion Energy =            719.8474008268335638
    One-Electron Energy =               -2594.7604121568565461
    Two-Electron Energy =                1022.8588946131615103
    Total Energy =                       -852.0541167168614720
  Basis Set: (AUG-CC-PVTZ AUX)
    Blend: AUG-CC-PVTZ-RI
    Molecular point group: c1

    Geometry (in Angstrom), charge = 0, multiplicity = 1:

       Center              X                  Y                   Z               Mass
    ------------   -----------------  -----------------  -----------------  -----------------
         S            2.250453989251    -0.992828433821     0.005661855347    31.972071174400
         N           -0.666126010749    -1.436423433821     0.002834855347    14.003074004430
         N            1.484244989251     1.480870566179    -0.005100144653    14.003074004430
         C           -2.721364010749     0.508485566179    -0.012917144653    12.000000000000
         C           -0.392613010749    -0.115630433821    -0.001222144653    12.000000000000
         C           -1.377183010749     0.880715566179    -0.007670144653    12.000000000000
         C            1.026290989251     0.238380566179    -0.001025144653    12.000000000000
         C           -3.009613010749    -0.862562433821    -0.007330144653    12.000000000000
         C           -3.818470010749     1.537747566179     0.014637855347    12.000000000000
         C           -1.963427010749    -1.783967433821    -0.000695144653    12.000000000000
         C            3.444630989251     0.235706566179     0.002815855347    12.000000000000
         C            2.851896989251     1.479106566179    -0.003064144653    12.000000000000
         H           -1.071982010749     1.924152566179    -0.014786144653     1.007825032230
         H           -4.134572010749    -1.244232333821    -0.015453944653     1.007825032230
         H           -4.159355010749     1.713570566179     1.040499855347     1.007825032230
         H           -3.470905010749     2.491392566179    -0.390942144653     1.007825032230
         H           -4.681450010749     1.207598566179    -0.570488144653     1.007825032230
         H           -2.166349010749    -2.853710433821    -0.000130144653     1.007825032230
         H            4.500774989251    -0.001427433821     0.005244855347     1.007825032230
         H            3.386509989251     2.422963566179    -0.005976144653     1.007825032230

  Basis Set: AUG-CC-PVTZ
    Blend: AUG-CC-PVTZ
  Basis Set: (AUG-CC-PVTZ AUX)
    Blend: AUG-CC-PVTZ-JKFIT
	 Reference Energy          =    -852.0541167168614720 [Eh]
	 Singles Energy            =      -0.0000000000000000 [Eh]
	 Same-Spin Energy          =      -0.5694119672441997 [Eh]
	 Opposite-Spin Energy      =      -1.7102433031226687 [Eh]
	 Correlation Energy        =      -2.2796552703668684 [Eh]
	 Total Energy              =    -854.3337719872283742 [Eh]

	 ================> DF-SCS-MP2 Energies <==================
	-----------------------------------------------------------
	 SCS Same-Spin Scale       =       0.3333333333333333 [-]
	 SCS Opposite-Spin Scale   =       1.2000000000000000 [-]
	 SCS Same-Spin Energy      =      -0.1898039890813999 [Eh]
	 SCS Opposite-Spin Energy  =      -2.0522919637472024 [Eh]
	 SCS Correlation Energy    =      -2.2420959528286022 [Eh]
	 SCS Total Energy          =    -854.2962126696900214 [Eh]
	-----------------------------------------------------------

  Dipole Moment: [D]
     X:    -1.2356      Y:     0.4095      Z:     0.0425     Total:     1.3024

*** Psi4 exiting successfully. Buy a developer a beer!
