                               Psi4 1.4a3.dev225

  ==> Input File <==

--------------------------------------------------------------------------
#psi4
#
memory 32 gb

molecule  {
0 1
  S        2.3127110    -1.0235480     0.0053950
  N       -0.6038690    -1.4671430     0.0025680
  N        1.5465020     1.4501510    -0.0053670
  C       -2.6591070     0.4777660    -0.0131840
  C       -0.3303560    -0.1463500    -0.0014890
  C       -1.3149260     0.8499960    -0.0079370
  C        1.1238015     0.1722046    -0.0010994
  C       -2.9473560    -0.8932820    -0.0075970
  C       -3.7562130     1.5070280     0.0143710
  C       -1.9011700    -1.8146870    -0.0009620
  C        3.5068880     0.2049870     0.0025490
  C        2.9141540     1.4483870    -0.0033310
  H       -1.0097250     1.8934330    -0.0150530
  H       -3.9776190    -1.2428240    -0.0150370
  H       -4.0970980     1.6828510     1.0402330
  H       -3.4086480     2.4606730    -0.3912090
  H       -4.6191930     1.1768790    -0.5707550
  H       -2.1040920    -2.8844300    -0.0003970
  H        4.5630320    -0.0321470     0.0049780
  H        3.4487670     2.3922440    -0.0062430
units angstrom
no_reorient  #important for SAPT in psi4, default
symmetry c1  #important for SAPT in psi4, default
}

set PROPERTIES_ORIGIN ["COM"]
properties('MP2/aug-cc-pvtz', properties = ['dipole'])
--------------------------------------------------------------------------

    Molecular point group: c1
  Charge       = 0
  Multiplicity = 1
  Basis Set: AUG-CC-PVTZ
    Blend: AUG-CC-PVTZ
  Basis Set: (AUG-CC-PVTZ AUX)
    Blend: AUG-CC-PVTZ-JKFIT

    Orbital Energies [Eh]
    ---------------------

    Doubly Occupied:

       1A    -91.997818     2A    -15.571844     3A    -15.570340
       4A    -11.311013     5A    -11.295005     6A    -11.280779
       7A    -11.271036     8A    -11.268793     9A    -11.261370
      10A    -11.242275    11A    -11.241255    12A    -11.239275
      13A     -8.998602    14A     -6.679411    15A     -6.678843
      16A     -6.678147    17A     -1.282200    18A     -1.254911
      19A     -1.113185    20A     -1.066908    21A     -1.059371
      22A     -0.985655    23A     -0.971838    24A     -0.869427
      25A     -0.840735    26A     -0.782345    27A     -0.749913
      28A     -0.698036    29A     -0.677499    30A     -0.670631
      31A     -0.632033    32A     -0.595025    33A     -0.580426
      34A     -0.573224    35A     -0.572267    36A     -0.559676
      37A     -0.548342    38A     -0.526478    39A     -0.512118
      40A     -0.503659    41A     -0.444241    42A     -0.423453
      43A     -0.389588    44A     -0.382465    45A     -0.366526
      46A     -0.306369

  @DF-RHF Final Energy:  -852.05838966160468

   => Energetics <=

    Nuclear Repulsion Energy =            720.5892603321359502
    One-Electron Energy =               -2596.2465957027757213
    Two-Electron Energy =                1023.5989457090352062
    Total Energy =                       -852.0583896616046786
  Basis Set: (AUG-CC-PVTZ AUX)
    Blend: AUG-CC-PVTZ-RI
    Molecular point group: c1

    Geometry (in Angstrom), charge = 0, multiplicity = 1:

       Center              X                  Y                   Z               Mass
    ------------   -----------------  -----------------  -----------------  -----------------
         S            2.247508768927    -0.990595443203     0.005644811852    31.972071174400
         N           -0.669071231073    -1.434190443203     0.002817811852    14.003074004430
         N            1.481299768927     1.483103556797    -0.005117188148    14.003074004430
         C           -2.724309231073     0.510718556797    -0.012934188148    12.000000000000
         C           -0.395558231073    -0.113397443203    -0.001239188148    12.000000000000
         C           -1.380128231073     0.882948556797    -0.007687188148    12.000000000000
         C            1.058599268927     0.205157156797    -0.000849588148    12.000000000000
         C           -3.012558231073    -0.860329443203    -0.007347188148    12.000000000000
         C           -3.821415231073     1.539980556797     0.014620811852    12.000000000000
         C           -1.966372231073    -1.781734443203    -0.000712188148    12.000000000000
         C            3.441685768927     0.237939556797     0.002798811852    12.000000000000
         C            2.848951768927     1.481339556797    -0.003081188148    12.000000000000
         H           -1.074927231073     1.926385556797    -0.014803188148     1.007825032230
         H           -4.042821231073    -1.209871443203    -0.014787188148     1.007825032230
         H           -4.162300231073     1.715803556797     1.040482811852     1.007825032230
         H           -3.473850231073     2.493625556797    -0.390959188148     1.007825032230
         H           -4.684395231073     1.209831556797    -0.570505188148     1.007825032230
         H           -2.169294231073    -2.851477443203    -0.000147188148     1.007825032230
         H            4.497829768927     0.000805556797     0.005227811852     1.007825032230
         H            3.383564768927     2.425196556797    -0.005993188148     1.007825032230

  Basis Set: AUG-CC-PVTZ
    Blend: AUG-CC-PVTZ
  Basis Set: (AUG-CC-PVTZ AUX)
    Blend: AUG-CC-PVTZ-JKFIT
	 Reference Energy          =    -852.0583896616046786 [Eh]
	 Singles Energy            =      -0.0000000000000000 [Eh]
	 Same-Spin Energy          =      -0.5694979690731091 [Eh]
	 Opposite-Spin Energy      =      -1.7096205528162767 [Eh]
	 Correlation Energy        =      -2.2791185218893859 [Eh]
	 Total Energy              =    -854.3375081834940374 [Eh]

	 ================> DF-SCS-MP2 Energies <==================
	-----------------------------------------------------------
	 SCS Same-Spin Scale       =       0.3333333333333333 [-]
	 SCS Opposite-Spin Scale   =       1.2000000000000000 [-]
	 SCS Same-Spin Energy      =      -0.1898326563577030 [Eh]
	 SCS Opposite-Spin Energy  =      -2.0515446633795320 [Eh]
	 SCS Correlation Energy    =      -2.2413773197372349 [Eh]
	 SCS Total Energy          =    -854.2997669813419179 [Eh]
	-----------------------------------------------------------

  Dipole Moment: [D]
     X:    -1.1330      Y:     0.2897      Z:     0.0425     Total:     1.1702

*** Psi4 exiting successfully. Buy a developer a beer!
