                               Psi4 1.4a3.dev225

  ==> Input File <==

--------------------------------------------------------------------------
#psi4
#
memory 32 gb

molecule  {
0 1
  S        2.3127110    -1.0235480     0.0053950
  N       -0.6038690    -1.4671430     0.0025680
  N        1.5465020     1.4501510    -0.0053670
  C       -2.6591070     0.4777660    -0.0131840
  C       -0.3303560    -0.1463500    -0.0014890
  C       -1.3149260     0.8499960    -0.0079370
  C        1.0885480     0.2076610    -0.0012920
  C       -2.9473560    -0.8932820    -0.0075970
  C       -3.7562130     1.5070280     0.0143710
  C       -1.9494667    -1.8276256    -0.0010934
  C        3.5068880     0.2049870     0.0025490
  C        2.9141540     1.4483870    -0.0033310
  H       -1.0097250     1.8934330    -0.0150530
  H       -3.9776190    -1.2428240    -0.0150370
  H       -4.0970980     1.6828510     1.0402330
  H       -3.4086480     2.4606730    -0.3912090
  H       -4.6191930     1.1768790    -0.5707550
  H       -2.1040920    -2.8844300    -0.0003970
  H        4.5630320    -0.0321470     0.0049780
  H        3.4487670     2.3922440    -0.0062430
units angstrom
no_reorient  #important for SAPT in psi4, default
symmetry c1  #important for SAPT in psi4, default
}

set PROPERTIES_ORIGIN ["COM"]
properties('MP2/aug-cc-pvtz', properties = ['dipole'])
--------------------------------------------------------------------------

    Molecular point group: c1
  Charge       = 0
  Multiplicity = 1
  Basis Set: AUG-CC-PVTZ
    Blend: AUG-CC-PVTZ
  Basis Set: (AUG-CC-PVTZ AUX)
    Blend: AUG-CC-PVTZ-JKFIT

    Orbital Energies [Eh]
    ---------------------

    Doubly Occupied:

       1A    -91.993622     2A    -15.573977     3A    -15.572911
       4A    -11.311715     5A    -11.294032     6A    -11.280880
       7A    -11.272472     8A    -11.268373     9A    -11.263526
      10A    -11.241860    11A    -11.241665    12A    -11.240276
      13A     -8.993603    14A     -6.674367    15A     -6.673813
      16A     -6.673153    17A     -1.282906    18A     -1.247062
      19A     -1.112701    20A     -1.065549    21A     -1.059629
      22A     -0.987198    23A     -0.972244    24A     -0.868111
      25A     -0.847475    26A     -0.784280    27A     -0.749219
      28A     -0.697459    29A     -0.676955    30A     -0.670604
      31A     -0.637631    32A     -0.595580    33A     -0.589347
      34A     -0.571926    35A     -0.571496    36A     -0.559990
      37A     -0.545668    38A     -0.522629    39A     -0.514127
      40A     -0.500823    41A     -0.442036    42A     -0.421596
      43A     -0.394880    44A     -0.382228    45A     -0.361427
      46A     -0.307568

  @DF-RHF Final Energy:  -852.05708191004123

   => Energetics <=

    Nuclear Repulsion Energy =            719.6283774294435034
    One-Electron Energy =               -2594.3497385222062803
    Two-Electron Energy =                1022.6642791827216570
    Total Energy =                       -852.0570819100412336
  Basis Set: (AUG-CC-PVTZ AUX)
    Blend: AUG-CC-PVTZ-RI
    Molecular point group: c1

    Geometry (in Angstrom), charge = 0, multiplicity = 1:

       Center              X                  Y                   Z               Mass
    ------------   -----------------  -----------------  -----------------  -----------------
         S            2.253204052573    -0.992130391750     0.005666897639    31.972071174400
         N           -0.663375947427    -1.435725391750     0.002839897639    14.003074004430
         N            1.486995052573     1.481568608250    -0.005095102361    14.003074004430
         C           -2.718613947427     0.509183608250    -0.012912102361    12.000000000000
         C           -0.389862947427    -0.114932391750    -0.001217102361    12.000000000000
         C           -1.374432947427     0.881413608250    -0.007665102361    12.000000000000
         C            1.029041052573     0.239078608250    -0.001020102361    12.000000000000
         C           -3.006862947427    -0.861864391750    -0.007325102361    12.000000000000
         C           -3.815719947427     1.538445608250     0.014642897639    12.000000000000
         C           -2.008973647427    -1.796207991750    -0.000821502361    12.000000000000
         C            3.447381052573     0.236404608250     0.002820897639    12.000000000000
         C            2.854647052573     1.479804608250    -0.003059102361    12.000000000000
         H           -1.069231947427     1.924850608250    -0.014781102361     1.007825032230
         H           -4.037125947427    -1.211406391750    -0.014765102361     1.007825032230
         H           -4.156604947427     1.714268608250     1.040504897639     1.007825032230
         H           -3.468154947427     2.492090608250    -0.390937102361     1.007825032230
         H           -4.678699947427     1.208296608250    -0.570483102361     1.007825032230
         H           -2.163598947427    -2.853012391750    -0.000125102361     1.007825032230
         H            4.503525052573    -0.000729391750     0.005249897639     1.007825032230
         H            3.389260052573     2.423661608250    -0.005971102361     1.007825032230

  Basis Set: AUG-CC-PVTZ
    Blend: AUG-CC-PVTZ
  Basis Set: (AUG-CC-PVTZ AUX)
    Blend: AUG-CC-PVTZ-JKFIT
	 Reference Energy          =    -852.0570819100412336 [Eh]
	 Singles Energy            =      -0.0000000000000000 [Eh]
	 Same-Spin Energy          =      -0.5693642743007343 [Eh]
	 Opposite-Spin Energy      =      -1.7103845863538976 [Eh]
	 Correlation Energy        =      -2.2797488606546317 [Eh]
	 Total Energy              =    -854.3368307706958831 [Eh]

	 ================> DF-SCS-MP2 Energies <==================
	-----------------------------------------------------------
	 SCS Same-Spin Scale       =       0.3333333333333333 [-]
	 SCS Opposite-Spin Scale   =       1.2000000000000000 [-]
	 SCS Same-Spin Energy      =      -0.1897880914335781 [Eh]
	 SCS Opposite-Spin Energy  =      -2.0524615036246772 [Eh]
	 SCS Correlation Energy    =      -2.2422495950582553 [Eh]
	 SCS Total Energy          =    -854.2993315050995307 [Eh]
	-----------------------------------------------------------

  Dipole Moment: [D]
     X:    -1.3024      Y:     0.3965      Z:     0.0417     Total:     1.3620

*** Psi4 exiting successfully. Buy a developer a beer!
