                               Psi4 1.4a3.dev225

  ==> Input File <==

--------------------------------------------------------------------------
#psi4
#
memory 32 gb

molecule  {
0 1
  S        2.3127110    -1.0235480     0.0053950
  N       -0.6038690    -1.4671430     0.0025680
  N        1.5465020     1.4501510    -0.0053670
  C       -2.6591070     0.4777660    -0.0131840
  C       -0.3303560    -0.1463500    -0.0014890
  C       -1.3149260     0.8499960    -0.0079370
  C        1.0885480     0.2076610    -0.0012920
  C       -2.9473560    -0.8932820    -0.0075970
  C       -3.7562130     1.5070280     0.0143710
  C       -1.9011700    -1.8146870    -0.0009620
  C        3.5068880     0.2049870     0.0025490
  C        2.7874291     1.3796177    -0.0032269
  H       -1.0097250     1.8934330    -0.0150530
  H       -3.9776190    -1.2428240    -0.0150370
  H       -4.0970980     1.6828510     1.0402330
  H       -3.4086480     2.4606730    -0.3912090
  H       -4.6191930     1.1768790    -0.5707550
  H       -2.1040920    -2.8844300    -0.0003970
  H        4.5630320    -0.0321470     0.0049780
  H        3.4487670     2.3922440    -0.0062430
units angstrom
no_reorient  #important for SAPT in psi4, default
symmetry c1  #important for SAPT in psi4, default
}

set PROPERTIES_ORIGIN ["COM"]
properties('MP2/aug-cc-pvtz', properties = ['dipole'])
--------------------------------------------------------------------------

    Molecular point group: c1
  Charge       = 0
  Multiplicity = 1
  Basis Set: AUG-CC-PVTZ
    Blend: AUG-CC-PVTZ
  Basis Set: (AUG-CC-PVTZ AUX)
    Blend: AUG-CC-PVTZ-JKFIT

    Orbital Energies [Eh]
    ---------------------

    Doubly Occupied:

       1A    -91.997675     2A    -15.571286     3A    -15.567737
       4A    -11.313838     5A    -11.294137     6A    -11.282328
       7A    -11.272220     8A    -11.269277     9A    -11.259125
      10A    -11.243335    11A    -11.242550    12A    -11.240205
      13A     -8.997316    14A     -6.677921    15A     -6.677577
      16A     -6.676967    17A     -1.323350    18A     -1.262933
      19A     -1.114431    20A     -1.076936    21A     -1.065491
      22A     -0.981450    23A     -0.971536    24A     -0.868428
      25A     -0.848449    26A     -0.790155    27A     -0.746796
      28A     -0.707863    29A     -0.677554    30A     -0.671091
      31A     -0.629424    32A     -0.599412    33A     -0.586056
      34A     -0.584573    35A     -0.577307    36A     -0.562862
      37A     -0.548243    38A     -0.532621    39A     -0.515521
      40A     -0.476973    41A     -0.441638    42A     -0.424122
      43A     -0.400603    44A     -0.385704    45A     -0.369682
      46A     -0.297557

  @DF-RHF Final Energy:  -852.03231720282440

   => Energetics <=

    Nuclear Repulsion Energy =            723.9028140209317144
    One-Electron Energy =               -2602.6257523142867285
    Two-Electron Energy =                1026.6906210905308399
    Total Energy =                       -852.0323172028242880
  Basis Set: (AUG-CC-PVTZ AUX)
    Blend: AUG-CC-PVTZ-RI
    Molecular point group: c1

    Geometry (in Angstrom), charge = 0, multiplicity = 1:

       Center              X                  Y                   Z               Mass
    ------------   -----------------  -----------------  -----------------  -----------------
         S            2.258550189923    -0.988324635778     0.005650844544    31.972071174400
         N           -0.658029810077    -1.431919635778     0.002823844544    14.003074004430
         N            1.492341189923     1.485374364222    -0.005111155456    14.003074004430
         C           -2.713267810077     0.512989364222    -0.012928155456    12.000000000000
         C           -0.384516810077    -0.111126635778    -0.001233155456    12.000000000000
         C           -1.369086810077     0.885219364222    -0.007681155456    12.000000000000
         C            1.034387189923     0.242884364222    -0.001036155456    12.000000000000
         C           -3.001516810077    -0.858058635778    -0.007341155456    12.000000000000
         C           -3.810373810077     1.542251364222     0.014626844544    12.000000000000
         C           -1.955330810077    -1.779463635778    -0.000706155456    12.000000000000
         C            3.452727189923     0.240210364222     0.002804844544    12.000000000000
         C            2.733268289923     1.414841064222    -0.002971055456    12.000000000000
         H           -1.063885810077     1.928656364222    -0.014797155456     1.007825032230
         H           -4.031779810077    -1.207600635778    -0.014781155456     1.007825032230
         H           -4.151258810077     1.718074364222     1.040488844544     1.007825032230
         H           -3.462808810077     2.495896364222    -0.390953155456     1.007825032230
         H           -4.673353810077     1.212102364222    -0.570499155456     1.007825032230
         H           -2.158252810077    -2.849206635778    -0.000141155456     1.007825032230
         H            4.508871189923     0.003076364222     0.005233844544     1.007825032230
         H            3.394606189923     2.427467364222    -0.005987155456     1.007825032230

  Basis Set: AUG-CC-PVTZ
    Blend: AUG-CC-PVTZ
  Basis Set: (AUG-CC-PVTZ AUX)
    Blend: AUG-CC-PVTZ-JKFIT
	 Reference Energy          =    -852.0323172028244016 [Eh]
	 Singles Energy            =      -0.0000000000000000 [Eh]
	 Same-Spin Energy          =      -0.5714883352610135 [Eh]
	 Opposite-Spin Energy      =      -1.7103536441489875 [Eh]
	 Correlation Energy        =      -2.2818419794100011 [Eh]
	 Total Energy              =    -854.3141591822344481 [Eh]

	 ================> DF-SCS-MP2 Energies <==================
	-----------------------------------------------------------
	 SCS Same-Spin Scale       =       0.3333333333333333 [-]
	 SCS Opposite-Spin Scale   =       1.2000000000000000 [-]
	 SCS Same-Spin Energy      =      -0.1904961117536711 [Eh]
	 SCS Opposite-Spin Energy  =      -2.0524243729787850 [Eh]
	 SCS Correlation Energy    =      -2.2429204847324562 [Eh]
	 SCS Total Energy          =    -854.2752376875569098 [Eh]
	-----------------------------------------------------------

  Dipole Moment: [D]
     X:    -1.2524      Y:     0.2331      Z:     0.0427     Total:     1.2746

*** Psi4 exiting successfully. Buy a developer a beer!
