                               Psi4 1.4a3.dev225

  ==> Input File <==

--------------------------------------------------------------------------
#psi4
#
memory 32 gb

molecule  {
0 1
  S        2.3127110    -1.0235480     0.0053950
  N       -0.6038690    -1.4671430     0.0025680
  N        1.5465020     1.4501510    -0.0053670
  C       -2.6591070     0.4777660    -0.0131840
  C       -0.3100781    -0.0484280    -0.0017898
  C       -1.3149260     0.8499960    -0.0079370
  C        1.0885480     0.2076610    -0.0012920
  C       -2.9473560    -0.8932820    -0.0075970
  C       -3.7562130     1.5070280     0.0143710
  C       -1.9011700    -1.8146870    -0.0009620
  C        3.5068880     0.2049870     0.0025490
  C        2.9141540     1.4483870    -0.0033310
  H       -1.0097250     1.8934330    -0.0150530
  H       -3.9776190    -1.2428240    -0.0150370
  H       -4.0970980     1.6828510     1.0402330
  H       -3.4086480     2.4606730    -0.3912090
  H       -4.6191930     1.1768790    -0.5707550
  H       -2.1040920    -2.8844300    -0.0003970
  H        4.5630320    -0.0321470     0.0049780
  H        3.4487670     2.3922440    -0.0062430
units angstrom
no_reorient  #important for SAPT in psi4, default
symmetry c1  #important for SAPT in psi4, default
}

set PROPERTIES_ORIGIN ["COM"]
properties('MP2/aug-cc-pvtz', properties = ['dipole'])
--------------------------------------------------------------------------

    Molecular point group: c1
  Charge       = 0
  Multiplicity = 1
  Basis Set: AUG-CC-PVTZ
    Blend: AUG-CC-PVTZ
  Basis Set: (AUG-CC-PVTZ AUX)
    Blend: AUG-CC-PVTZ-JKFIT

    Orbital Energies [Eh]
    ---------------------

    Doubly Occupied:

       1A    -91.996627     2A    -15.574131     3A    -15.571744
       4A    -11.310129     5A    -11.290057     6A    -11.281025
       7A    -11.273507     8A    -11.268656     9A    -11.264391
      10A    -11.242735    11A    -11.240576    12A    -11.238334
      13A     -8.996300    14A     -6.677042    15A     -6.676533
      16A     -6.675835    17A     -1.283403    18A     -1.237032
      19A     -1.109969    20A     -1.073632    21A     -1.061612
      22A     -0.985923    23A     -0.973329    24A     -0.871668
      25A     -0.842221    26A     -0.785530    27A     -0.752837
      28A     -0.697817    29A     -0.675979    30A     -0.666735
      31A     -0.633324    32A     -0.595653    33A     -0.591193
      34A     -0.572909    35A     -0.572512    36A     -0.556090
      37A     -0.547095    38A     -0.518890    39A     -0.516965
      40A     -0.499864    41A     -0.438737    42A     -0.420761
      43A     -0.398697    44A     -0.376886    45A     -0.369612
      46A     -0.302498

  @DF-RHF Final Energy:  -852.04627407647070

   => Energetics <=

    Nuclear Repulsion Energy =            720.1344176550546763
    One-Electron Energy =               -2595.3473910510101632
    Two-Electron Energy =                1023.1666993194847919
    Total Energy =                       -852.0462740764706950
  Basis Set: (AUG-CC-PVTZ AUX)
    Blend: AUG-CC-PVTZ-RI
    Molecular point group: c1

    Geometry (in Angstrom), charge = 0, multiplicity = 1:

       Center              X                  Y                   Z               Mass
    ------------   -----------------  -----------------  -----------------  -----------------
         S            2.248529595804    -0.999687316356     0.005678444961    31.972071174400
         N           -0.668050404196    -1.443282316356     0.002851444961    14.003074004430
         N            1.482320595804     1.474011683644    -0.005083555039    14.003074004430
         C           -2.723288404196     0.501626683644    -0.012900555039    12.000000000000
         C           -0.374259504196    -0.024567316356    -0.001506355039    12.000000000000
         C           -1.379107404196     0.873856683644    -0.007653555039    12.000000000000
         C            1.024366595804     0.231521683644    -0.001008555039    12.000000000000
         C           -3.011537404196    -0.869421316356    -0.007313555039    12.000000000000
         C           -3.820394404196     1.530888683644     0.014654444961    12.000000000000
         C           -1.965351404196    -1.790826316356    -0.000678555039    12.000000000000
         C            3.442706595804     0.228847683644     0.002832444961    12.000000000000
         C            2.849972595804     1.472247683644    -0.003047555039    12.000000000000
         H           -1.073906404196     1.917293683644    -0.014769555039     1.007825032230
         H           -4.041800404196    -1.218963316356    -0.014753555039     1.007825032230
         H           -4.161279404196     1.706711683644     1.040516444961     1.007825032230
         H           -3.472829404196     2.484533683644    -0.390925555039     1.007825032230
         H           -4.683374404196     1.200739683644    -0.570471555039     1.007825032230
         H           -2.168273404196    -2.860569316356    -0.000113555039     1.007825032230
         H            4.498850595804    -0.008286316356     0.005261444961     1.007825032230
         H            3.384585595804     2.416104683644    -0.005959555039     1.007825032230

  Basis Set: AUG-CC-PVTZ
    Blend: AUG-CC-PVTZ
  Basis Set: (AUG-CC-PVTZ AUX)
    Blend: AUG-CC-PVTZ-JKFIT
	 Reference Energy          =    -852.0462740764706950 [Eh]
	 Singles Energy            =      -0.0000000000000000 [Eh]
	 Same-Spin Energy          =      -0.5702298649793123 [Eh]
	 Opposite-Spin Energy      =      -1.7124326158167151 [Eh]
	 Correlation Energy        =      -2.2826624807960272 [Eh]
	 Total Energy              =    -854.3289365572667293 [Eh]

	 ================> DF-SCS-MP2 Energies <==================
	-----------------------------------------------------------
	 SCS Same-Spin Scale       =       0.3333333333333333 [-]
	 SCS Opposite-Spin Scale   =       1.2000000000000000 [-]
	 SCS Same-Spin Energy      =      -0.1900766216597707 [Eh]
	 SCS Opposite-Spin Energy  =      -2.0549191389800581 [Eh]
	 SCS Correlation Energy    =      -2.2449957606398288 [Eh]
	 SCS Total Energy          =    -854.2912698371105762 [Eh]
	-----------------------------------------------------------

  Dipole Moment: [D]
     X:    -1.1556      Y:     0.4075      Z:     0.0417     Total:     1.2260

*** Psi4 exiting successfully. Buy a developer a beer!
