                               Psi4 1.4a3.dev225

  ==> Input File <==

--------------------------------------------------------------------------
#psi4
#
memory 32 gb

molecule  {
0 1
  S        2.3127110    -1.0235480     0.0053950
  N       -0.6038690    -1.4671430     0.0025680
  N        1.5465020     1.4501510    -0.0053670
  C       -2.6591070     0.4777660    -0.0131840
  C       -0.3303560    -0.1463500    -0.0014890
  C       -1.3149260     0.8499960    -0.0079370
  C        1.0885480     0.2076610    -0.0012920
  C       -2.9473560    -0.8932820    -0.0075970
  C       -3.7562130     1.5070280     0.0143710
  C       -1.9011700    -1.8146870    -0.0009620
  C        3.5068880     0.2049870     0.0025490
  C        2.9141540     1.4483870    -0.0033310
  H       -1.0097250     1.8934330    -0.0150530
  H       -3.9776190    -1.2428240    -0.0150370
  H       -4.0970980     1.6828510     1.0402330
  H       -3.4086480     2.4606730    -0.3912090
  H       -4.6191930     1.1768790    -0.5707550
  H       -2.0947736    -2.8353060    -0.0004229
  H        4.5630320    -0.0321470     0.0049780
  H        3.4487670     2.3922440    -0.0062430
units angstrom
no_reorient  #important for SAPT in psi4, default
symmetry c1  #important for SAPT in psi4, default
}

set PROPERTIES_ORIGIN ["COM"]
properties('MP2/aug-cc-pvtz', properties = ['dipole'])
--------------------------------------------------------------------------

    Molecular point group: c1
  Charge       = 0
  Multiplicity = 1
  Basis Set: AUG-CC-PVTZ
    Blend: AUG-CC-PVTZ
  Basis Set: (AUG-CC-PVTZ AUX)
    Blend: AUG-CC-PVTZ-JKFIT

    Orbital Energies [Eh]
    ---------------------

    Doubly Occupied:

       1A    -91.993652     2A    -15.572301     3A    -15.571488
       4A    -11.311600     5A    -11.293611     6A    -11.276078
       7A    -11.271338     8A    -11.268381     9A    -11.263236
      10A    -11.243036    11A    -11.241877    12A    -11.239631
      13A     -8.993642    14A     -6.674408    15A     -6.673857
      16A     -6.673196    17A     -1.284646    18A     -1.256542
      19A     -1.113652    20A     -1.065801    21A     -1.060666
      22A     -0.984811    23A     -0.972226    24A     -0.872757
      25A     -0.847297    26A     -0.784375    27A     -0.750641
      28A     -0.697921    29A     -0.679069    30A     -0.671179
      31A     -0.640730    32A     -0.595704    33A     -0.588525
      34A     -0.572501    35A     -0.571341    36A     -0.561832
      37A     -0.547169    38A     -0.526207    39A     -0.516223
      40A     -0.500543    41A     -0.441434    42A     -0.421397
      43A     -0.393421    44A     -0.381453    45A     -0.366209
      46A     -0.304854

  @DF-RHF Final Energy:  -852.06084742883559

   => Energetics <=

    Nuclear Repulsion Energy =            720.6421549050586464
    One-Electron Energy =               -2596.3410926157630456
    Two-Electron Energy =                1023.6380902818686991
    Total Energy =                       -852.0608474288355865
  Basis Set: (AUG-CC-PVTZ AUX)
    Blend: AUG-CC-PVTZ-RI
    Molecular point group: c1

    Geometry (in Angstrom), charge = 0, multiplicity = 1:

       Center              X                  Y                   Z               Mass
    ------------   -----------------  -----------------  -----------------  -----------------
         S            2.249858511927    -0.993293596952     0.005658088901    31.972071174400
         N           -0.666721488073    -1.436888596952     0.002831088901    14.003074004430
         N            1.483649511927     1.480405403048    -0.005103911099    14.003074004430
         C           -2.721959488073     0.508020403048    -0.012920911099    12.000000000000
         C           -0.393208488073    -0.116095596952    -0.001225911099    12.000000000000
         C           -1.377778488073     0.880250403048    -0.007673911099    12.000000000000
         C            1.025695511927     0.237915403048    -0.001028911099    12.000000000000
         C           -3.010208488073    -0.863027596952    -0.007333911099    12.000000000000
         C           -3.819065488073     1.537282403048     0.014634088901    12.000000000000
         C           -1.964022488073    -1.784432596952    -0.000698911099    12.000000000000
         C            3.444035511927     0.235241403048     0.002812088901    12.000000000000
         C            2.851301511927     1.478641403048    -0.003067911099    12.000000000000
         H           -1.072577488073     1.923687403048    -0.014789911099     1.007825032230
         H           -4.040471488073    -1.212569596952    -0.014773911099     1.007825032230
         H           -4.159950488073     1.713105403048     1.040496088901     1.007825032230
         H           -3.471500488073     2.490927403048    -0.390945911099     1.007825032230
         H           -4.682045488073     1.207133403048    -0.570491911099     1.007825032230
         H           -2.157626088073    -2.805051596952    -0.000159811099     1.007825032230
         H            4.500179511927    -0.001892596952     0.005241088901     1.007825032230
         H            3.385914511927     2.422498403048    -0.005979911099     1.007825032230

  Basis Set: AUG-CC-PVTZ
    Blend: AUG-CC-PVTZ
  Basis Set: (AUG-CC-PVTZ AUX)
    Blend: AUG-CC-PVTZ-JKFIT
	 Reference Energy          =    -852.0608474288355865 [Eh]
	 Singles Energy            =      -0.0000000000000000 [Eh]
	 Same-Spin Energy          =      -0.5690344069387329 [Eh]
	 Opposite-Spin Energy      =      -1.7089091756924075 [Eh]
	 Correlation Energy        =      -2.2779435826311403 [Eh]
	 Total Energy              =    -854.3387910114666965 [Eh]

	 ================> DF-SCS-MP2 Energies <==================
	-----------------------------------------------------------
	 SCS Same-Spin Scale       =       0.3333333333333333 [-]
	 SCS Opposite-Spin Scale   =       1.2000000000000000 [-]
	 SCS Same-Spin Energy      =      -0.1896781356462443 [Eh]
	 SCS Opposite-Spin Energy  =      -2.0506910108308891 [Eh]
	 SCS Correlation Energy    =      -2.2403691464771334 [Eh]
	 SCS Total Energy          =    -854.3012165753127647 [Eh]
	-----------------------------------------------------------

  Dipole Moment: [D]
     X:    -1.2938      Y:     0.3775      Z:     0.0421     Total:     1.3484

*** Psi4 exiting successfully. Buy a developer a beer!
