                               Psi4 1.4a3.dev225

  ==> Input File <==

--------------------------------------------------------------------------
#psi4
#
memory 32 gb

molecule  {
0 1
  S        2.3127110    -1.0235480     0.0053950
  N       -0.6038690    -1.4671430     0.0025680
  N        1.5465020     1.4501510    -0.0053670
  C       -2.6591070     0.4777660    -0.0131840
  C       -0.2898002     0.0494940    -0.0020906
  C       -1.3149260     0.8499960    -0.0079370
  C        1.0885480     0.2076610    -0.0012920
  C       -2.9473560    -0.8932820    -0.0075970
  C       -3.7562130     1.5070280     0.0143710
  C       -1.9011700    -1.8146870    -0.0009620
  C        3.5068880     0.2049870     0.0025490
  C        2.9141540     1.4483870    -0.0033310
  H       -1.0097250     1.8934330    -0.0150530
  H       -3.9776190    -1.2428240    -0.0150370
  H       -4.0970980     1.6828510     1.0402330
  H       -3.4086480     2.4606730    -0.3912090
  H       -4.6191930     1.1768790    -0.5707550
  H       -2.1040920    -2.8844300    -0.0003970
  H        4.5630320    -0.0321470     0.0049780
  H        3.4487670     2.3922440    -0.0062430
units angstrom
no_reorient  #important for SAPT in psi4, default
symmetry c1  #important for SAPT in psi4, default
}

set PROPERTIES_ORIGIN ["COM"]
properties('MP2/aug-cc-pvtz', properties = ['dipole'])
--------------------------------------------------------------------------

    Molecular point group: c1
  Charge       = 0
  Multiplicity = 1
  Basis Set: AUG-CC-PVTZ
    Blend: AUG-CC-PVTZ
  Basis Set: (AUG-CC-PVTZ AUX)
    Blend: AUG-CC-PVTZ-JKFIT

    Orbital Energies [Eh]
    ---------------------

    Doubly Occupied:

       1A    -91.999682     2A    -15.573918     3A    -15.571524
       4A    -11.309024     5A    -11.286291     6A    -11.279423
       7A    -11.274490     8A    -11.268979     9A    -11.265682
      10A    -11.242472    11A    -11.240858    12A    -11.234764
      13A     -8.999053    14A     -6.679770    15A     -6.679299
      16A     -6.678566    17A     -1.285167    18A     -1.221984
      19A     -1.106748    20A     -1.081642    21A     -1.062552
      22A     -0.990822    23A     -0.971382    24A     -0.874270
      25A     -0.838983    26A     -0.788623    27A     -0.755685
      28A     -0.698939    29A     -0.678261    30A     -0.656629
      31A     -0.632171    32A     -0.595716    33A     -0.595240
      34A     -0.574371    35A     -0.572763    36A     -0.550578
      37A     -0.548633    38A     -0.516157    39A     -0.513292
      40A     -0.497690    41A     -0.439297    42A     -0.410312
      43A     -0.406074    44A     -0.378826    45A     -0.366139
      46A     -0.300441

  @DF-RHF Final Energy:  -852.01295491103303

   => Energetics <=

    Nuclear Repulsion Energy =            719.9904469519566419
    One-Electron Energy =               -2595.0204406535931412
    Two-Electron Energy =                1023.0170387906035785
    Total Energy =                       -852.0129549110330345
  Basis Set: (AUG-CC-PVTZ AUX)
    Blend: AUG-CC-PVTZ-RI
    Molecular point group: c1

    Geometry (in Angstrom), charge = 0, multiplicity = 1:

       Center              X                  Y                   Z               Mass
    ------------   -----------------  -----------------  -----------------  -----------------
         S            2.247147332300    -1.006362268243     0.005698949296    31.972071174400
         N           -0.669432667700    -1.449957268243     0.002871949296    14.003074004430
         N            1.480938332300     1.467336731757    -0.005063050704    14.003074004430
         C           -2.724670667700     0.494951731757    -0.012880050704    12.000000000000
         C           -0.355363867700     0.066679731757    -0.001786650704    12.000000000000
         C           -1.380489667700     0.867181731757    -0.007633050704    12.000000000000
         C            1.022984332300     0.224846731757    -0.000988050704    12.000000000000
         C           -3.012919667700    -0.876096268243    -0.007293050704    12.000000000000
         C           -3.821776667700     1.524213731757     0.014674949296    12.000000000000
         C           -1.966733667700    -1.797501268243    -0.000658050704    12.000000000000
         C            3.441324332300     0.222172731757     0.002852949296    12.000000000000
         C            2.848590332300     1.465572731757    -0.003027050704    12.000000000000
         H           -1.075288667700     1.910618731757    -0.014749050704     1.007825032230
         H           -4.043182667700    -1.225638268243    -0.014733050704     1.007825032230
         H           -4.162661667700     1.700036731757     1.040536949296     1.007825032230
         H           -3.474211667700     2.477858731757    -0.390905050704     1.007825032230
         H           -4.684756667700     1.194064731757    -0.570451050704     1.007825032230
         H           -2.169655667700    -2.867244268243    -0.000093050704     1.007825032230
         H            4.497468332300    -0.014961268243     0.005281949296     1.007825032230
         H            3.383203332300     2.409429731757    -0.005939050704     1.007825032230

  Basis Set: AUG-CC-PVTZ
    Blend: AUG-CC-PVTZ
  Basis Set: (AUG-CC-PVTZ AUX)
    Blend: AUG-CC-PVTZ-JKFIT
	 Reference Energy          =    -852.0129549110330345 [Eh]
	 Singles Energy            =      -0.0000000000000000 [Eh]
	 Same-Spin Energy          =      -0.5712971041435742 [Eh]
	 Opposite-Spin Energy      =      -1.7165561628180681 [Eh]
	 Correlation Energy        =      -2.2878532669616423 [Eh]
	 Total Energy              =    -854.3008081779946679 [Eh]

	 ================> DF-SCS-MP2 Energies <==================
	-----------------------------------------------------------
	 SCS Same-Spin Scale       =       0.3333333333333333 [-]
	 SCS Opposite-Spin Scale   =       1.2000000000000000 [-]
	 SCS Same-Spin Energy      =      -0.1904323680478580 [Eh]
	 SCS Opposite-Spin Energy  =      -2.0598673953816817 [Eh]
	 SCS Correlation Energy    =      -2.2502997634295396 [Eh]
	 SCS Total Energy          =    -854.2632546744625870 [Eh]
	-----------------------------------------------------------

  Dipole Moment: [D]
     X:    -0.9932      Y:     0.4072      Z:     0.0416     Total:     1.0742

*** Psi4 exiting successfully. Buy a developer a beer!
