                               Psi4 1.4a3.dev225

  ==> Input File <==

--------------------------------------------------------------------------
#psi4
#
memory 32 gb

molecule  {
0 1
  S        2.3127110    -1.0235480     0.0053950
  N       -0.6038690    -1.4671430     0.0025680
  N        1.5465020     1.4501510    -0.0053670
  C       -2.6591070     0.4777660    -0.0131840
  C       -0.3303560    -0.1463500    -0.0014890
  C       -1.3149260     0.8499960    -0.0079370
  C        1.0885480     0.2076610    -0.0012920
  C       -2.9473560    -0.8932820    -0.0075970
  C       -3.7562130     1.5070280     0.0143710
  C       -1.9011700    -1.8146870    -0.0009620
  C        3.5068880     0.2049870     0.0025490
  C        2.8941540     1.4484128    -0.0033608
  H       -1.0097250     1.8934330    -0.0150530
  H       -3.9776190    -1.2428240    -0.0150370
  H       -4.0970980     1.6828510     1.0402330
  H       -3.4086480     2.4606730    -0.3912090
  H       -4.6191930     1.1768790    -0.5707550
  H       -2.1040920    -2.8844300    -0.0003970
  H        4.5630320    -0.0321470     0.0049780
  H        3.4487670     2.3922440    -0.0062430
units angstrom
no_reorient  #important for SAPT in psi4, default
symmetry c1  #important for SAPT in psi4, default
}

set PROPERTIES_ORIGIN ["COM"]
properties('MP2/aug-cc-pvtz', properties = ['dipole'])
--------------------------------------------------------------------------

    Molecular point group: c1
  Charge       = 0
  Multiplicity = 1
  Basis Set: AUG-CC-PVTZ
    Blend: AUG-CC-PVTZ
  Basis Set: (AUG-CC-PVTZ AUX)
    Blend: AUG-CC-PVTZ-JKFIT

    Orbital Energies [Eh]
    ---------------------

    Doubly Occupied:

       1A    -91.994703     2A    -15.571839     3A    -15.571609
       4A    -11.311675     5A    -11.293903     6A    -11.281840
       7A    -11.271550     8A    -11.269001     9A    -11.263649
      10A    -11.243193    11A    -11.241828    12A    -11.239740
      13A     -8.994580    14A     -6.675323    15A     -6.674797
      16A     -6.674158    17A     -1.288357    18A     -1.258011
      19A     -1.113798    20A     -1.064562    21A     -1.062389
      22A     -0.983532    23A     -0.972084    24A     -0.871223
      25A     -0.844126    26A     -0.784854    27A     -0.749398
      28A     -0.698110    29A     -0.678753    30A     -0.671037
      31A     -0.634053    32A     -0.595953    33A     -0.587780
      34A     -0.573972    35A     -0.572552    36A     -0.561918
      37A     -0.547164    38A     -0.527068    39A     -0.515017
      40A     -0.497409    41A     -0.441677    42A     -0.421825
      43A     -0.393709    44A     -0.382402    45A     -0.366922
      46A     -0.302803

  @DF-RHF Final Energy:  -852.06066103293983

   => Energetics <=

    Nuclear Repulsion Energy =            720.6907943389392130
    One-Electron Energy =               -2596.4312169346803785
    Two-Electron Energy =                1023.6797615628013318
    Total Energy =                       -852.0606610329398336
  Basis Set: (AUG-CC-PVTZ AUX)
    Blend: AUG-CC-PVTZ-RI
    Molecular point group: c1

    Geometry (in Angstrom), charge = 0, multiplicity = 1:

       Center              X                  Y                   Z               Mass
    ------------   -----------------  -----------------  -----------------  -----------------
         S            2.251275179479    -0.993014123151     0.005659971972    31.972071174400
         N           -0.665304820521    -1.436609123151     0.002832971972    14.003074004430
         N            1.485066179479     1.480684876849    -0.005102028028    14.003074004430
         C           -2.720542820521     0.508299876849    -0.012919028028    12.000000000000
         C           -0.391791820521    -0.115816123151    -0.001224028028    12.000000000000
         C           -1.376361820521     0.880529876849    -0.007672028028    12.000000000000
         C            1.027112179479     0.238194876849    -0.001027028028    12.000000000000
         C           -3.008791820521    -0.862748123151    -0.007332028028    12.000000000000
         C           -3.817648820521     1.537561876849     0.014635971972    12.000000000000
         C           -1.962605820521    -1.784153123151    -0.000697028028    12.000000000000
         C            3.445452179479     0.235520876849     0.002813971972    12.000000000000
         C            2.832718179479     1.478946676849    -0.003095828028    12.000000000000
         H           -1.071160820521     1.923966876849    -0.014788028028     1.007825032230
         H           -4.039054820521    -1.212290123151    -0.014772028028     1.007825032230
         H           -4.158533820521     1.713384876849     1.040497971972     1.007825032230
         H           -3.470083820521     2.491206876849    -0.390944028028     1.007825032230
         H           -4.680628820521     1.207412876849    -0.570490028028     1.007825032230
         H           -2.165527820521    -2.853896123151    -0.000132028028     1.007825032230
         H            4.501596179479    -0.001613123151     0.005242971972     1.007825032230
         H            3.387331179479     2.422777876849    -0.005978028028     1.007825032230

  Basis Set: AUG-CC-PVTZ
    Blend: AUG-CC-PVTZ
  Basis Set: (AUG-CC-PVTZ AUX)
    Blend: AUG-CC-PVTZ-JKFIT
	 Reference Energy          =    -852.0606610329398336 [Eh]
	 Singles Energy            =      -0.0000000000000000 [Eh]
	 Same-Spin Energy          =      -0.5696248021999597 [Eh]
	 Opposite-Spin Energy      =      -1.7094788473878730 [Eh]
	 Correlation Energy        =      -2.2791036495878325 [Eh]
	 Total Energy              =    -854.3397646825276297 [Eh]

	 ================> DF-SCS-MP2 Energies <==================
	-----------------------------------------------------------
	 SCS Same-Spin Scale       =       0.3333333333333333 [-]
	 SCS Opposite-Spin Scale   =       1.2000000000000000 [-]
	 SCS Same-Spin Energy      =      -0.1898749340666532 [Eh]
	 SCS Opposite-Spin Energy  =      -2.0513746168654476 [Eh]
	 SCS Correlation Energy    =      -2.2412495509321007 [Eh]
	 SCS Total Energy          =    -854.3019105838719724 [Eh]
	-----------------------------------------------------------

  Dipole Moment: [D]
     X:    -1.2542      Y:     0.3888      Z:     0.0421     Total:     1.3137

*** Psi4 exiting successfully. Buy a developer a beer!
