                               Psi4 1.4a3.dev225

  ==> Input File <==

--------------------------------------------------------------------------
#psi4
#
memory 32 gb

molecule  {
0 1
  S        2.3127110    -1.0235480     0.0053950
  N       -0.6038690    -1.4671430     0.0025680
  N        1.5465020     1.4501510    -0.0053670
  C       -2.6591070     0.4777660    -0.0131840
  C       -0.3303560    -0.1463500    -0.0014890
  C       -1.3149260     0.8499960    -0.0079370
  C        1.0885480     0.2076610    -0.0012920
  C       -2.9473560    -0.8932820    -0.0075970
  C       -3.7562130     1.5070280     0.0143710
  C       -1.9011700    -1.8146870    -0.0009620
  C        3.5068880     0.2049870     0.0025490
  C        2.9141540     1.4483870    -0.0033310
  H       -1.0097250     1.8934330    -0.0150530
  H       -3.9776190    -1.2428240    -0.0150370
  H       -4.0970980     1.6828510     1.0402330
  H       -3.4086480     2.4606730    -0.3912090
  H       -4.6191930     1.1768790    -0.5707550
  H       -2.1040920    -2.8844300    -0.0003970
  H        4.5630320    -0.0321470     0.0049780
  H        3.4586239     2.4096463    -0.0062967
units angstrom
no_reorient  #important for SAPT in psi4, default
symmetry c1  #important for SAPT in psi4, default
}

set PROPERTIES_ORIGIN ["COM"]
properties('MP2/aug-cc-pvtz', properties = ['dipole'])
--------------------------------------------------------------------------

    Molecular point group: c1
  Charge       = 0
  Multiplicity = 1
  Basis Set: AUG-CC-PVTZ
    Blend: AUG-CC-PVTZ
  Basis Set: (AUG-CC-PVTZ AUX)
    Blend: AUG-CC-PVTZ-JKFIT

    Orbital Energies [Eh]
    ---------------------

    Doubly Occupied:

       1A    -91.993868     2A    -15.572619     3A    -15.571960
       4A    -11.311891     5A    -11.294046     6A    -11.281957
       7A    -11.271660     8A    -11.270680     9A    -11.263479
      10A    -11.243475    11A    -11.242039    12A    -11.239824
      13A     -8.993853    14A     -6.674618    15A     -6.674067
      16A     -6.673405    17A     -1.284873    18A     -1.256665
      19A     -1.113938    20A     -1.065301    21A     -1.060313
      22A     -0.983842    23A     -0.972377    24A     -0.871716
      25A     -0.843941    26A     -0.782843    27A     -0.749128
      28A     -0.697167    29A     -0.678673    30A     -0.670885
      31A     -0.633109    32A     -0.595911    33A     -0.586473
      34A     -0.572740    35A     -0.571281    36A     -0.561760
      37A     -0.547056    38A     -0.526504    39A     -0.515152
      40A     -0.499678    41A     -0.441266    42A     -0.421324
      43A     -0.393631    44A     -0.381715    45A     -0.366422
      46A     -0.305041

  @DF-RHF Final Energy:  -852.06089047025762

   => Energetics <=

    Nuclear Repulsion Energy =            720.2504449367720554
    One-Electron Energy =               -2595.5743439697366739
    Two-Electron Energy =                1023.2630085627070002
    Total Energy =                       -852.0608904702576183
  Basis Set: (AUG-CC-PVTZ AUX)
    Blend: AUG-CC-PVTZ-RI
    Molecular point group: c1

    Geometry (in Angstrom), charge = 0, multiplicity = 1:

       Center              X                  Y                   Z               Mass
    ------------   -----------------  -----------------  -----------------  -----------------
         S            2.249855429041    -0.993111991780     0.005658248055    31.972071174400
         N           -0.666724570959    -1.436706991780     0.002831248055    14.003074004430
         N            1.483646429041     1.480587008220    -0.005103751945    14.003074004430
         C           -2.721962570959     0.508202008220    -0.012920751945    12.000000000000
         C           -0.393211570959    -0.115913991780    -0.001225751945    12.000000000000
         C           -1.377781570959     0.880432008220    -0.007673751945    12.000000000000
         C            1.025692429041     0.238097008220    -0.001028751945    12.000000000000
         C           -3.010211570959    -0.862845991780    -0.007333751945    12.000000000000
         C           -3.819068570959     1.537464008220     0.014634248055    12.000000000000
         C           -1.964025570959    -1.784250991780    -0.000698751945    12.000000000000
         C            3.444032429041     0.235423008220     0.002812248055    12.000000000000
         C            2.851298429041     1.478823008220    -0.003067751945    12.000000000000
         H           -1.072580570959     1.923869008220    -0.014789751945     1.007825032230
         H           -4.040474570959    -1.212387991780    -0.014773751945     1.007825032230
         H           -4.159953570959     1.713287008220     1.040496248055     1.007825032230
         H           -3.471503570959     2.491109008220    -0.390945751945     1.007825032230
         H           -4.682048570959     1.207315008220    -0.570491751945     1.007825032230
         H           -2.166947570959    -2.853993991780    -0.000133751945     1.007825032230
         H            4.500176429041    -0.001710991780     0.005241248055     1.007825032230
         H            3.395768329041     2.440082308220    -0.006033451945     1.007825032230

  Basis Set: AUG-CC-PVTZ
    Blend: AUG-CC-PVTZ
  Basis Set: (AUG-CC-PVTZ AUX)
    Blend: AUG-CC-PVTZ-JKFIT
	 Reference Energy          =    -852.0608904702576183 [Eh]
	 Singles Energy            =      -0.0000000000000000 [Eh]
	 Same-Spin Energy          =      -0.5691965741996946 [Eh]
	 Opposite-Spin Energy      =      -1.7094108348402106 [Eh]
	 Correlation Energy        =      -2.2786074090399051 [Eh]
	 Total Energy              =    -854.3394978792974825 [Eh]

	 ================> DF-SCS-MP2 Energies <==================
	-----------------------------------------------------------
	 SCS Same-Spin Scale       =       0.3333333333333333 [-]
	 SCS Opposite-Spin Scale   =       1.2000000000000000 [-]
	 SCS Same-Spin Energy      =      -0.1897321913998982 [Eh]
	 SCS Opposite-Spin Energy  =      -2.0512930018082525 [Eh]
	 SCS Correlation Energy    =      -2.2410251932081509 [Eh]
	 SCS Total Energy          =    -854.3019156634658202 [Eh]
	-----------------------------------------------------------

  Dipole Moment: [D]
     X:    -1.2861      Y:     0.3927      Z:     0.0420     Total:     1.3453

*** Psi4 exiting successfully. Buy a developer a beer!
