                               Psi4 1.4a3.dev225

  ==> Input File <==

--------------------------------------------------------------------------
#psi4
#
memory 32 gb

molecule  {
0 1
  S        2.3127110    -1.0235480     0.0053950
  N       -0.6038690    -1.4671430     0.0025680
  N        1.5465020     1.4501510    -0.0053670
  C       -2.6591070     0.4777660    -0.0131840
  C       -0.3303560    -0.1463500    -0.0014890
  C       -1.3149260     0.8499960    -0.0079370
  C        1.0193814     0.0200028    -0.0006765
  C       -2.9473560    -0.8932820    -0.0075970
  C       -3.7562130     1.5070280     0.0143710
  C       -1.9011700    -1.8146870    -0.0009620
  C        3.5068880     0.2049870     0.0025490
  C        2.9141540     1.4483870    -0.0033310
  H       -1.0097250     1.8934330    -0.0150530
  H       -3.9776190    -1.2428240    -0.0150370
  H       -4.0970980     1.6828510     1.0402330
  H       -3.4086480     2.4606730    -0.3912090
  H       -4.6191930     1.1768790    -0.5707550
  H       -2.1040920    -2.8844300    -0.0003970
  H        4.5630320    -0.0321470     0.0049780
  H        3.4487670     2.3922440    -0.0062430
units angstrom
no_reorient  #important for SAPT in psi4, default
symmetry c1  #important for SAPT in psi4, default
}

set PROPERTIES_ORIGIN ["COM"]
properties('MP2/aug-cc-pvtz', properties = ['dipole'])
--------------------------------------------------------------------------

    Molecular point group: c1
  Charge       = 0
  Multiplicity = 1
  Basis Set: AUG-CC-PVTZ
    Blend: AUG-CC-PVTZ
  Basis Set: (AUG-CC-PVTZ AUX)
    Blend: AUG-CC-PVTZ-JKFIT

    Orbital Energies [Eh]
    ---------------------

    Doubly Occupied:

       1A    -92.009421     2A    -15.575476     3A    -15.569339
       4A    -11.312682     5A    -11.286599     6A    -11.280472
       7A    -11.272309     8A    -11.270807     9A    -11.260860
      10A    -11.244652    11A    -11.244040    12A    -11.240033
      13A     -9.009027    14A     -6.689857    15A     -6.689382
      16A     -6.688869    17A     -1.277217    18A     -1.228156
      19A     -1.116211    20A     -1.076882    21A     -1.057013
      22A     -0.982716    23A     -0.972790    24A     -0.887041
      25A     -0.844606    26A     -0.764930    27A     -0.756618
      28A     -0.694535    29A     -0.679583    30A     -0.670813
      31A     -0.635261    32A     -0.596574    33A     -0.594208
      34A     -0.569363    35A     -0.568527    36A     -0.557477
      37A     -0.542750    38A     -0.520625    39A     -0.519030
      40A     -0.502002    41A     -0.431806    42A     -0.419162
      43A     -0.395115    44A     -0.378632    45A     -0.370182
      46A     -0.288995

  @DF-RHF Final Energy:  -852.00726190172270

   => Energetics <=

    Nuclear Repulsion Energy =            720.7976790078175782
    One-Electron Energy =               -2596.5245898906109687
    Two-Electron Energy =                1023.7196489810706908
    Total Energy =                       -852.0072619017226998
  Basis Set: (AUG-CC-PVTZ AUX)
    Blend: AUG-CC-PVTZ-RI
    Molecular point group: c1

    Geometry (in Angstrom), charge = 0, multiplicity = 1:

       Center              X                  Y                   Z               Mass
    ------------   -----------------  -----------------  -----------------  -----------------
         S            2.254626670354    -0.980220454006     0.005615984447    31.972071174400
         N           -0.661953329646    -1.423815454006     0.002788984447    14.003074004430
         N            1.488417670354     1.493478545994    -0.005146015553    14.003074004430
         C           -2.717191329646     0.521093545994    -0.012963015553    12.000000000000
         C           -0.388440329646    -0.103022454006    -0.001268015553    12.000000000000
         C           -1.373010329646     0.893323545994    -0.007716015553    12.000000000000
         C            0.961297070354     0.063330345994    -0.000455515553    12.000000000000
         C           -3.005440329646    -0.849954454006    -0.007376015553    12.000000000000
         C           -3.814297329646     1.550355545994     0.014591984447    12.000000000000
         C           -1.959254329646    -1.771359454006    -0.000741015553    12.000000000000
         C            3.448803670354     0.248314545994     0.002769984447    12.000000000000
         C            2.856069670354     1.491714545994    -0.003110015553    12.000000000000
         H           -1.067809329646     1.936760545994    -0.014832015553     1.007825032230
         H           -4.035703329646    -1.199496454006    -0.014816015553     1.007825032230
         H           -4.155182329646     1.726178545994     1.040453984447     1.007825032230
         H           -3.466732329646     2.504000545994    -0.390988015553     1.007825032230
         H           -4.677277329646     1.220206545994    -0.570534015553     1.007825032230
         H           -2.162176329646    -2.841102454006    -0.000176015553     1.007825032230
         H            4.504947670354     0.011180545994     0.005198984447     1.007825032230
         H            3.390682670354     2.435571545994    -0.006022015553     1.007825032230

  Basis Set: AUG-CC-PVTZ
    Blend: AUG-CC-PVTZ
  Basis Set: (AUG-CC-PVTZ AUX)
    Blend: AUG-CC-PVTZ-JKFIT
	 Reference Energy          =    -852.0072619017226998 [Eh]
	 Singles Energy            =      -0.0000000000000000 [Eh]
	 Same-Spin Energy          =      -0.5761530249776364 [Eh]
	 Opposite-Spin Energy      =      -1.7202852574060379 [Eh]
	 Correlation Energy        =      -2.2964382823836744 [Eh]
	 Total Energy              =    -854.3037001841063329 [Eh]

	 ================> DF-SCS-MP2 Energies <==================
	-----------------------------------------------------------
	 SCS Same-Spin Scale       =       0.3333333333333333 [-]
	 SCS Opposite-Spin Scale   =       1.2000000000000000 [-]
	 SCS Same-Spin Energy      =      -0.1920510083258788 [Eh]
	 SCS Opposite-Spin Energy  =      -2.0643423088872455 [Eh]
	 SCS Correlation Energy    =      -2.2563933172131243 [Eh]
	 SCS Total Energy          =    -854.2636552189358099 [Eh]
	-----------------------------------------------------------

  Dipole Moment: [D]
     X:    -0.8440      Y:     0.2845      Z:     0.0429     Total:     0.8917

*** Psi4 exiting successfully. Buy a developer a beer!
