                               Psi4 1.4a3.dev225

  ==> Input File <==

--------------------------------------------------------------------------
#psi4
#
memory 32 gb

molecule  {
0 1
  S        2.3127110    -1.0235480     0.0053950
  N       -0.6038690    -1.4671430     0.0025680
  N        1.5465020     1.4501510    -0.0053670
  C       -2.6591070     0.4777660    -0.0131840
  C       -0.3303560    -0.1463500    -0.0014890
  C       -1.3149260     0.8499960    -0.0079370
  C        1.0885480     0.2076610    -0.0012920
  C       -2.9473560    -0.8932820    -0.0075970
  C       -3.7562130     1.5070280     0.0143710
  C       -1.9011700    -1.8146870    -0.0009620
  C        3.5068880     0.2049870     0.0025490
  C        2.9141540     1.4483870    -0.0033310
  H       -1.0097250     1.8934330    -0.0150530
  H       -3.9776190    -1.2428240    -0.0150370
  H       -4.0970980     1.6828510     1.0402330
  H       -3.4086480     2.4606730    -0.3912090
  H       -4.6191930     1.1768790    -0.5707550
  H       -2.1227289    -2.9826780    -0.0003451
  H        4.5630320    -0.0321470     0.0049780
  H        3.4487670     2.3922440    -0.0062430
units angstrom
no_reorient  #important for SAPT in psi4, default
symmetry c1  #important for SAPT in psi4, default
}

set PROPERTIES_ORIGIN ["COM"]
properties('MP2/aug-cc-pvtz', properties = ['dipole'])
--------------------------------------------------------------------------

    Molecular point group: c1
  Charge       = 0
  Multiplicity = 1
  Basis Set: AUG-CC-PVTZ
    Blend: AUG-CC-PVTZ
  Basis Set: (AUG-CC-PVTZ AUX)
    Blend: AUG-CC-PVTZ-JKFIT

    Orbital Energies [Eh]
    ---------------------

    Doubly Occupied:

       1A    -91.994055     2A    -15.572996     3A    -15.572771
       4A    -11.312105     5A    -11.294881     6A    -11.292993
       7A    -11.272323     8A    -11.268733     9A    -11.263629
      10A    -11.244461    11A    -11.242361    12A    -11.240219
      13A     -8.994042    14A     -6.674806    15A     -6.674255
      16A     -6.673595    17A     -1.285178    18A     -1.257010
      19A     -1.114528    20A     -1.064947    21A     -1.059682
      22A     -0.983943    23A     -0.972882    24A     -0.871486
      25A     -0.838556    26A     -0.783409    27A     -0.748014
      28A     -0.696924    29A     -0.679310    30A     -0.671843
      31A     -0.622016    32A     -0.596315    33A     -0.584667
      34A     -0.573036    35A     -0.571621    36A     -0.561643
      37A     -0.546524    38A     -0.527034    39A     -0.512324
      40A     -0.500095    41A     -0.440872    42A     -0.420862
      43A     -0.393891    44A     -0.382176    45A     -0.366832
      46A     -0.305349

  @DF-RHF Final Energy:  -852.05409025534618

   => Energetics <=

    Nuclear Repulsion Energy =            719.8392389970251770
    One-Electron Energy =               -2594.7442718003576374
    Two-Electron Energy =                1022.8509425479862784
    Total Energy =                       -852.0540902553461819
  Basis Set: (AUG-CC-PVTZ AUX)
    Blend: AUG-CC-PVTZ-RI
    Molecular point group: c1

    Geometry (in Angstrom), charge = 0, multiplicity = 1:

       Center              X                  Y                   Z               Mass
    ------------   -----------------  -----------------  -----------------  -----------------
         S            2.250018554644    -0.992449899501     0.005657643500    31.972071174400
         N           -0.666561445356    -1.436044899501     0.002830643500    14.003074004430
         N            1.483809554644     1.481249100499    -0.005104356500    14.003074004430
         C           -2.721799445356     0.508864100499    -0.012921356500    12.000000000000
         C           -0.393048445356    -0.115251899501    -0.001226356500    12.000000000000
         C           -1.377618445356     0.881094100499    -0.007674356500    12.000000000000
         C            1.025855554644     0.238759100499    -0.001029356500    12.000000000000
         C           -3.010048445356    -0.862183899501    -0.007334356500    12.000000000000
         C           -3.818905445356     1.538126100499     0.014633643500    12.000000000000
         C           -1.963862445356    -1.783588899501    -0.000699356500    12.000000000000
         C            3.444195554644     0.236085100499     0.002811643500    12.000000000000
         C            2.851461554644     1.479485100499    -0.003068356500    12.000000000000
         H           -1.072417445356     1.924531100499    -0.014790356500     1.007825032230
         H           -4.040311445356    -1.211725899501    -0.014774356500     1.007825032230
         H           -4.159790445356     1.713949100499     1.040495643500     1.007825032230
         H           -3.471340445356     2.491771100499    -0.390946356500     1.007825032230
         H           -4.681885445356     1.207977100499    -0.570492356500     1.007825032230
         H           -2.185421345356    -2.951579899501    -0.000082456500     1.007825032230
         H            4.500339554644    -0.001048899501     0.005240643500     1.007825032230
         H            3.386074554644     2.423342100499    -0.005980356500     1.007825032230

  Basis Set: AUG-CC-PVTZ
    Blend: AUG-CC-PVTZ
  Basis Set: (AUG-CC-PVTZ AUX)
    Blend: AUG-CC-PVTZ-JKFIT
	 Reference Energy          =    -852.0540902553461819 [Eh]
	 Singles Energy            =      -0.0000000000000000 [Eh]
	 Same-Spin Energy          =      -0.5694431878125652 [Eh]
	 Opposite-Spin Energy      =      -1.7102981044980097 [Eh]
	 Correlation Energy        =      -2.2797412923105749 [Eh]
	 Total Energy              =    -854.3338315476567004 [Eh]

	 ================> DF-SCS-MP2 Energies <==================
	-----------------------------------------------------------
	 SCS Same-Spin Scale       =       0.3333333333333333 [-]
	 SCS Opposite-Spin Scale   =       1.2000000000000000 [-]
	 SCS Same-Spin Energy      =      -0.1898143959375217 [Eh]
	 SCS Opposite-Spin Energy  =      -2.0523577253976115 [Eh]
	 SCS Correlation Energy    =      -2.2421721213351331 [Eh]
	 SCS Total Energy          =    -854.2962623766812840 [Eh]
	-----------------------------------------------------------

  Dipole Moment: [D]
     X:    -1.2462      Y:     0.4471      Z:     0.0420     Total:     1.3247

*** Psi4 exiting successfully. Buy a developer a beer!
