                               Psi4 1.4a3.dev225

  ==> Input File <==

--------------------------------------------------------------------------
#psi4
#
memory 32 gb

molecule  {
0 1
  S        2.3127110    -1.0235480     0.0053950
  N       -0.6038690    -1.4671430     0.0025680
  N        1.5465020     1.4501510    -0.0053670
  C       -2.6591070     0.4777660    -0.0131840
  C       -0.3709118    -0.3421940    -0.0008874
  C       -1.3149260     0.8499960    -0.0079370
  C        1.0885480     0.2076610    -0.0012920
  C       -2.9473560    -0.8932820    -0.0075970
  C       -3.7562130     1.5070280     0.0143710
  C       -1.9011700    -1.8146870    -0.0009620
  C        3.5068880     0.2049870     0.0025490
  C        2.9141540     1.4483870    -0.0033310
  H       -1.0097250     1.8934330    -0.0150530
  H       -3.9776190    -1.2428240    -0.0150370
  H       -4.0970980     1.6828510     1.0402330
  H       -3.4086480     2.4606730    -0.3912090
  H       -4.6191930     1.1768790    -0.5707550
  H       -2.1040920    -2.8844300    -0.0003970
  H        4.5630320    -0.0321470     0.0049780
  H        3.4487670     2.3922440    -0.0062430
units angstrom
no_reorient  #important for SAPT in psi4, default
symmetry c1  #important for SAPT in psi4, default
}

set PROPERTIES_ORIGIN ["COM"]
properties('MP2/aug-cc-pvtz', properties = ['dipole'])
--------------------------------------------------------------------------

    Molecular point group: c1
  Charge       = 0
  Multiplicity = 1
  Basis Set: AUG-CC-PVTZ
    Blend: AUG-CC-PVTZ
  Basis Set: (AUG-CC-PVTZ AUX)
    Blend: AUG-CC-PVTZ-JKFIT

    Orbital Energies [Eh]
    ---------------------

    Doubly Occupied:

       1A    -91.987550     2A    -15.572827     3A    -15.561504
       4A    -11.311845     5A    -11.296025     6A    -11.284274
       7A    -11.267345     8A    -11.265907     9A    -11.260776
      10A    -11.247518    11A    -11.247400    12A    -11.237253
      13A     -8.988178    14A     -6.668997    15A     -6.668354
      16A     -6.667772    17A     -1.340320    18A     -1.271605
      19A     -1.122071    20A     -1.059284    21A     -1.047369
      22A     -0.988390    23A     -0.962077    24A     -0.885898
      25A     -0.833035    26A     -0.782813    27A     -0.745941
      28A     -0.702663    29A     -0.693504    30A     -0.664792
      31A     -0.633718    32A     -0.604508    33A     -0.584706
      34A     -0.578930    35A     -0.569592    36A     -0.563642
      37A     -0.552166    38A     -0.543977    39A     -0.511698
      40A     -0.496903    41A     -0.444667    42A     -0.403526
      43A     -0.399143    44A     -0.386202    45A     -0.353077
      46A     -0.309063

  @DF-RHF Final Energy:  -852.00757662446551

   => Energetics <=

    Nuclear Repulsion Energy =            721.3030850497365236
    One-Electron Energy =               -2597.4837176689284206
    Two-Electron Energy =                1024.1730559947263828
    Total Energy =                       -852.0075766244654005
  Basis Set: (AUG-CC-PVTZ AUX)
    Blend: AUG-CC-PVTZ-RI
    Molecular point group: c1

    Geometry (in Angstrom), charge = 0, multiplicity = 1:

       Center              X                  Y                   Z               Mass
    ------------   -----------------  -----------------  -----------------  -----------------
         S            2.252676386317    -0.979662460693     0.005616931954    31.972071174400
         N           -0.663903613683    -1.423257460693     0.002789931954    14.003074004430
         N            1.486467386317     1.494036539307    -0.005145068046    14.003074004430
         C           -2.719141613683     0.521651539307    -0.012962068046    12.000000000000
         C           -0.430946413683    -0.298308460693    -0.000665468046    12.000000000000
         C           -1.374960613683     0.893881539307    -0.007715068046    12.000000000000
         C            1.028513386317     0.251546539307    -0.001070068046    12.000000000000
         C           -3.007390613683    -0.849396460693    -0.007375068046    12.000000000000
         C           -3.816247613683     1.550913539307     0.014592931954    12.000000000000
         C           -1.961204613683    -1.770801460693    -0.000740068046    12.000000000000
         C            3.446853386317     0.248872539307     0.002770931954    12.000000000000
         C            2.854119386317     1.492272539307    -0.003109068046    12.000000000000
         H           -1.069759613683     1.937318539307    -0.014831068046     1.007825032230
         H           -4.037653613683    -1.198938460693    -0.014815068046     1.007825032230
         H           -4.157132613683     1.726736539307     1.040454931954     1.007825032230
         H           -3.468682613683     2.504558539307    -0.390987068046     1.007825032230
         H           -4.679227613683     1.220764539307    -0.570533068046     1.007825032230
         H           -2.164126613683    -2.840544460693    -0.000175068046     1.007825032230
         H            4.502997386317     0.011738539307     0.005199931954     1.007825032230
         H            3.388732386317     2.436129539307    -0.006021068046     1.007825032230

  Basis Set: AUG-CC-PVTZ
    Blend: AUG-CC-PVTZ
  Basis Set: (AUG-CC-PVTZ AUX)
    Blend: AUG-CC-PVTZ-JKFIT
	 Reference Energy          =    -852.0075766244655142 [Eh]
	 Singles Energy            =      -0.0000000000000000 [Eh]
	 Same-Spin Energy          =      -0.5661385734498087 [Eh]
	 Opposite-Spin Energy      =      -1.7061091627872556 [Eh]
	 Correlation Energy        =      -2.2722477362370643 [Eh]
	 Total Energy              =    -854.2798243607026052 [Eh]

	 ================> DF-SCS-MP2 Energies <==================
	-----------------------------------------------------------
	 SCS Same-Spin Scale       =       0.3333333333333333 [-]
	 SCS Opposite-Spin Scale   =       1.2000000000000000 [-]
	 SCS Same-Spin Energy      =      -0.1887128578166029 [Eh]
	 SCS Opposite-Spin Energy  =      -2.0473309953447067 [Eh]
	 SCS Correlation Energy    =      -2.2360438531613096 [Eh]
	 SCS Total Energy          =    -854.2436204776267914 [Eh]
	-----------------------------------------------------------

  Dipole Moment: [D]
     X:    -1.4481      Y:     0.1963      Z:     0.0430     Total:     1.4620

*** Psi4 exiting successfully. Buy a developer a beer!
