                               Psi4 1.4a3.dev225

  ==> Input File <==

--------------------------------------------------------------------------
#psi4
#
memory 32 gb

molecule  {
0 1
  S        2.2238431    -1.1059419     0.0056381
  N       -0.6038690    -1.4671430     0.0025680
  N        1.5465020     1.4501510    -0.0053670
  C       -2.6591070     0.4777660    -0.0131840
  C       -0.3303560    -0.1463500    -0.0014890
  C       -1.3149260     0.8499960    -0.0079370
  C        1.0885480     0.2076610    -0.0012920
  C       -2.9473560    -0.8932820    -0.0075970
  C       -3.7562130     1.5070280     0.0143710
  C       -1.9011700    -1.8146870    -0.0009620
  C        3.5068880     0.2049870     0.0025490
  C        2.9141540     1.4483870    -0.0033310
  H       -1.0097250     1.8934330    -0.0150530
  H       -3.9776190    -1.2428240    -0.0150370
  H       -4.0970980     1.6828510     1.0402330
  H       -3.4086480     2.4606730    -0.3912090
  H       -4.6191930     1.1768790    -0.5707550
  H       -2.1040920    -2.8844300    -0.0003970
  H        4.5630320    -0.0321470     0.0049780
  H        3.4487670     2.3922440    -0.0062430
units angstrom
no_reorient  #important for SAPT in psi4, default
symmetry c1  #important for SAPT in psi4, default
}

set PROPERTIES_ORIGIN ["COM"]
properties('MP2/aug-cc-pvtz', properties = ['dipole'])
--------------------------------------------------------------------------

    Molecular point group: c1
  Charge       = 0
  Multiplicity = 1
  Basis Set: AUG-CC-PVTZ
    Blend: AUG-CC-PVTZ
  Basis Set: (AUG-CC-PVTZ AUX)
    Blend: AUG-CC-PVTZ-JKFIT

    Orbital Energies [Eh]
    ---------------------

    Doubly Occupied:

       1A    -91.995650     2A    -15.573587     3A    -15.571662
       4A    -11.315710     5A    -11.293167     6A    -11.283139
       7A    -11.272366     8A    -11.271703     9A    -11.269767
      10A    -11.244809    11A    -11.242850    12A    -11.240386
      13A     -8.993488    14A     -6.674170    15A     -6.673390
      16A     -6.672892    17A     -1.282510    18A     -1.255627
      19A     -1.115022    20A     -1.065287    21A     -1.040119
      22A     -0.986624    23A     -0.973176    24A     -0.871584
      25A     -0.845502    26A     -0.786915    27A     -0.744748
      28A     -0.692356    29A     -0.680286    30A     -0.670043
      31A     -0.633633    32A     -0.596343    33A     -0.588616
      34A     -0.569912    35A     -0.568287    36A     -0.562715
      37A     -0.547204    38A     -0.523732    39A     -0.513506
      40A     -0.490623    41A     -0.442111    42A     -0.421165
      43A     -0.385338    44A     -0.383372    45A     -0.368195
      46A     -0.307675

  @DF-RHF Final Energy:  -852.05255238764050

   => Energetics <=

    Nuclear Repulsion Energy =            718.8523554867127814
    One-Electron Energy =               -2592.8078973424712785
    Two-Electron Energy =                1021.9029894681178803
    Total Energy =                       -852.0525523876405032
  Basis Set: (AUG-CC-PVTZ AUX)
    Blend: AUG-CC-PVTZ-RI
    Molecular point group: c1

    Geometry (in Angstrom), charge = 0, multiplicity = 1:

       Center              X                  Y                   Z               Mass
    ------------   -----------------  -----------------  -----------------  -----------------
         S            2.177183913854    -1.060442100796     0.005856889442    31.972071174400
         N           -0.650528186146    -1.421643200796     0.002786789442    14.003074004430
         N            1.499842813854     1.495650799204    -0.005148210558    14.003074004430
         C           -2.705766186146     0.523265799204    -0.012965210558    12.000000000000
         C           -0.377015186146    -0.100850200796    -0.001270210558    12.000000000000
         C           -1.361585186146     0.895495799204    -0.007718210558    12.000000000000
         C            1.041888813854     0.253160799204    -0.001073210558    12.000000000000
         C           -2.994015186146    -0.847782200796    -0.007378210558    12.000000000000
         C           -3.802872186146     1.552527799204     0.014589789442    12.000000000000
         C           -1.947829186146    -1.769187200796    -0.000743210558    12.000000000000
         C            3.460228813854     0.250486799204     0.002767789442    12.000000000000
         C            2.867494813854     1.493886799204    -0.003112210558    12.000000000000
         H           -1.056384186146     1.938932799204    -0.014834210558     1.007825032230
         H           -4.024278186146    -1.197324200796    -0.014818210558     1.007825032230
         H           -4.143757186146     1.728350799204     1.040451789442     1.007825032230
         H           -3.455307186146     2.506172799204    -0.390990210558     1.007825032230
         H           -4.665852186146     1.222378799204    -0.570536210558     1.007825032230
         H           -2.150751186146    -2.838930200796    -0.000178210558     1.007825032230
         H            4.516372813854     0.013352799204     0.005196789442     1.007825032230
         H            3.402107813854     2.437743799204    -0.006024210558     1.007825032230

  Basis Set: AUG-CC-PVTZ
    Blend: AUG-CC-PVTZ
  Basis Set: (AUG-CC-PVTZ AUX)
    Blend: AUG-CC-PVTZ-JKFIT
	 Reference Energy          =    -852.0525523876405032 [Eh]
	 Singles Energy            =      -0.0000000000000000 [Eh]
	 Same-Spin Energy          =      -0.5684741923319528 [Eh]
	 Opposite-Spin Energy      =      -1.7110109215013962 [Eh]
	 Correlation Energy        =      -2.2794851138333492 [Eh]
	 Total Energy              =    -854.3320375014739056 [Eh]

	 ================> DF-SCS-MP2 Energies <==================
	-----------------------------------------------------------
	 SCS Same-Spin Scale       =       0.3333333333333333 [-]
	 SCS Opposite-Spin Scale   =       1.2000000000000000 [-]
	 SCS Same-Spin Energy      =      -0.1894913974439843 [Eh]
	 SCS Opposite-Spin Energy  =      -2.0532131058016754 [Eh]
	 SCS Correlation Energy    =      -2.2427045032456596 [Eh]
	 SCS Total Energy          =    -854.2952568908862077 [Eh]
	-----------------------------------------------------------

  Dipole Moment: [D]
     X:    -1.4601      Y:     0.4132      Z:     0.0418     Total:     1.5180

*** Psi4 exiting successfully. Buy a developer a beer!
