                               Psi4 1.4a3.dev225

  ==> Input File <==

--------------------------------------------------------------------------
#psi4
#
memory 32 gb

molecule  {
0 1
  S        2.3127110    -1.0235480     0.0053950
  N       -0.6038690    -1.4671430     0.0025680
  N        1.5465020     1.4501510    -0.0053670
  C       -2.6591070     0.4777660    -0.0131840
  C       -0.3303560    -0.1463500    -0.0014890
  C       -1.3149260     0.8499960    -0.0079370
  C        1.0885480     0.2076610    -0.0012920
  C       -2.9473560    -0.8932820    -0.0075970
  C       -3.7562130     1.5070280     0.0143710
  C       -1.9011700    -1.8146870    -0.0009620
  C        3.5068880     0.2049870     0.0025490
  C        2.9141540     1.4483870    -0.0033310
  H       -1.0097250     1.8934330    -0.0150530
  H       -4.0249670    -1.2588880    -0.0153789
  H       -4.0970980     1.6828510     1.0402330
  H       -3.4086480     2.4606730    -0.3912090
  H       -4.6191930     1.1768790    -0.5707550
  H       -2.1040920    -2.8844300    -0.0003970
  H        4.5630320    -0.0321470     0.0049780
  H        3.4487670     2.3922440    -0.0062430
units angstrom
no_reorient  #important for SAPT in psi4, default
symmetry c1  #important for SAPT in psi4, default
}

set PROPERTIES_ORIGIN ["COM"]
properties('MP2/aug-cc-pvtz', properties = ['dipole'])
--------------------------------------------------------------------------

    Molecular point group: c1
  Charge       = 0
  Multiplicity = 1
  Basis Set: AUG-CC-PVTZ
    Blend: AUG-CC-PVTZ
  Basis Set: (AUG-CC-PVTZ AUX)
    Blend: AUG-CC-PVTZ-JKFIT

    Orbital Energies [Eh]
    ---------------------

    Doubly Occupied:

       1A    -91.993897     2A    -15.572575     3A    -15.572304
       4A    -11.311890     5A    -11.294213     6A    -11.282379
       7A    -11.272146     8A    -11.268596     9A    -11.263470
      10A    -11.249104    11A    -11.242384    12A    -11.239779
      13A     -8.993886    14A     -6.674651    15A     -6.674100
      16A     -6.673439    17A     -1.284972    18A     -1.256883
      19A     -1.113672    20A     -1.065192    21A     -1.060305
      22A     -0.983516    23A     -0.972423    24A     -0.870257
      25A     -0.844149    26A     -0.784084    27A     -0.749494
      28A     -0.696813    29A     -0.679008    30A     -0.665652
      31A     -0.633700    32A     -0.595944    33A     -0.585953
      34A     -0.572770    35A     -0.571447    36A     -0.559667
      37A     -0.547064    38A     -0.526687    39A     -0.513655
      40A     -0.500584    41A     -0.441373    42A     -0.421402
      43A     -0.393715    44A     -0.381912    45A     -0.366629
      46A     -0.305156

  @DF-RHF Final Energy:  -852.05905436775765

   => Energetics <=

    Nuclear Repulsion Energy =            720.0967468143819588
    One-Electron Energy =               -2595.2658200529276655
    Two-Electron Energy =                1023.1100188707880534
    Total Energy =                       -852.0590543677576534
  Basis Set: (AUG-CC-PVTZ AUX)
    Blend: AUG-CC-PVTZ-RI
    Molecular point group: c1

    Geometry (in Angstrom), charge = 0, multiplicity = 1:

       Center              X                  Y                   Z               Mass
    ------------   -----------------  -----------------  -----------------  -----------------
         S            2.250182924280    -0.992920398858     0.005659897986    31.972071174400
         N           -0.666397075720    -1.436515398858     0.002832897986    14.003074004430
         N            1.483973924280     1.480778601142    -0.005102102014    14.003074004430
         C           -2.721635075720     0.508393601142    -0.012919102014    12.000000000000
         C           -0.392884075720    -0.115722398858    -0.001224102014    12.000000000000
         C           -1.377454075720     0.880623601142    -0.007672102014    12.000000000000
         C            1.026019924280     0.238288601142    -0.001027102014    12.000000000000
         C           -3.009884075720    -0.862654398858    -0.007332102014    12.000000000000
         C           -3.818741075720     1.537655601142     0.014635897986    12.000000000000
         C           -1.963698075720    -1.784059398858    -0.000697102014    12.000000000000
         C            3.444359924280     0.235614601142     0.002813897986    12.000000000000
         C            2.851625924280     1.479014601142    -0.003066102014    12.000000000000
         H           -1.072253075720     1.924060601142    -0.014788102014     1.007825032230
         H           -4.087495075720    -1.228260398858    -0.015114002014     1.007825032230
         H           -4.159626075720     1.713478601142     1.040497897986     1.007825032230
         H           -3.471176075720     2.491300601142    -0.390944102014     1.007825032230
         H           -4.681721075720     1.207506601142    -0.570490102014     1.007825032230
         H           -2.166620075720    -2.853802398858    -0.000132102014     1.007825032230
         H            4.500503924280    -0.001519398858     0.005242897986     1.007825032230
         H            3.386238924280     2.422871601142    -0.005978102014     1.007825032230

  Basis Set: AUG-CC-PVTZ
    Blend: AUG-CC-PVTZ
  Basis Set: (AUG-CC-PVTZ AUX)
    Blend: AUG-CC-PVTZ-JKFIT
	 Reference Energy          =    -852.0590543677576534 [Eh]
	 Singles Energy            =      -0.0000000000000000 [Eh]
	 Same-Spin Energy          =      -0.5692726362928618 [Eh]
	 Opposite-Spin Energy      =      -1.7097092871124571 [Eh]
	 Correlation Energy        =      -2.2789819234053188 [Eh]
	 Total Energy              =    -854.3380362911630073 [Eh]

	 ================> DF-SCS-MP2 Energies <==================
	-----------------------------------------------------------
	 SCS Same-Spin Scale       =       0.3333333333333333 [-]
	 SCS Opposite-Spin Scale   =       1.2000000000000000 [-]
	 SCS Same-Spin Energy      =      -0.1897575454309539 [Eh]
	 SCS Opposite-Spin Energy  =      -2.0516511445349486 [Eh]
	 SCS Correlation Energy    =      -2.2414086899659025 [Eh]
	 SCS Total Energy          =    -854.3004630577235048 [Eh]
	-----------------------------------------------------------

  Dipole Moment: [D]
     X:    -1.2599      Y:     0.4016      Z:     0.0422     Total:     1.3230

*** Psi4 exiting successfully. Buy a developer a beer!
