                               Psi4 1.4a3.dev225

  ==> Input File <==

--------------------------------------------------------------------------
#psi4
#
memory 32 gb

molecule  {
0 1
  S        2.3127110    -1.0235480     0.0053950
  N       -0.6038690    -1.4671430     0.0025680
  N        1.5465020     1.4501510    -0.0053670
  C       -2.6591070     0.4777660    -0.0131840
  C       -0.3303560    -0.1463500    -0.0014890
  C       -1.3149260     0.8499960    -0.0079370
  C        1.0885480     0.2076610    -0.0012920
  C       -2.9473560    -0.8932820    -0.0075970
  C       -3.7562130     1.5070280     0.0143710
  C       -1.9011700    -1.8146870    -0.0009620
  C        3.5068880     0.2049870     0.0025490
  C        2.9141540     1.4483870    -0.0033310
  H       -1.0097250     1.8934330    -0.0150530
  H       -3.9776190    -1.2428240    -0.0150370
  H       -4.0970980     1.6828510     1.0402330
  H       -3.4086480     2.4606730    -0.3912090
  H       -4.6191930     1.1768790    -0.5707550
  H       -2.0668182    -2.6879341    -0.0005008
  H        4.5630320    -0.0321470     0.0049780
  H        3.4487670     2.3922440    -0.0062430
units angstrom
no_reorient  #important for SAPT in psi4, default
symmetry c1  #important for SAPT in psi4, default
}

set PROPERTIES_ORIGIN ["COM"]
properties('MP2/aug-cc-pvtz', properties = ['dipole'])
--------------------------------------------------------------------------

    Molecular point group: c1
  Charge       = 0
  Multiplicity = 1
  Basis Set: AUG-CC-PVTZ
    Blend: AUG-CC-PVTZ
  Basis Set: (AUG-CC-PVTZ AUX)
    Blend: AUG-CC-PVTZ-JKFIT

    Orbital Energies [Eh]
    ---------------------

    Doubly Occupied:

       1A    -91.993419     2A    -15.572029     3A    -15.570781
       4A    -11.311303     5A    -11.292798     6A    -11.270760
       7A    -11.268182     8A    -11.263008     9A    -11.258355
      10A    -11.242365    11A    -11.241821    12A    -11.239311
      13A     -8.993410    14A     -6.674177    15A     -6.673626
      16A     -6.672964    17A     -1.284493    18A     -1.256973
      19A     -1.113195    20A     -1.069755    21A     -1.061601
      22A     -0.987113    23A     -0.971888    24A     -0.880161
      25A     -0.858204    26A     -0.786078    27A     -0.754483
      28A     -0.700372    29A     -0.679883    30A     -0.670804
      31A     -0.659328    32A     -0.595395    33A     -0.590350
      34A     -0.572206    35A     -0.571168    36A     -0.562006
      37A     -0.547542    38A     -0.525791    39A     -0.518742
      40A     -0.500652    41A     -0.441890    42A     -0.421813
      43A     -0.393213    44A     -0.381025    45A     -0.366012
      46A     -0.304625

  @DF-RHF Final Energy:  -852.02734690929333

   => Energetics <=

    Nuclear Repulsion Energy =            721.6040240589676387
    One-Electron Energy =               -2598.1326055622171225
    Two-Electron Energy =                1024.5012345939560419
    Total Energy =                       -852.0273469092933283
  Basis Set: (AUG-CC-PVTZ AUX)
    Blend: AUG-CC-PVTZ-RI
    Molecular point group: c1

    Geometry (in Angstrom), charge = 0, multiplicity = 1:

       Center              X                  Y                   Z               Mass
    ------------   -----------------  -----------------  -----------------  -----------------
         S            2.249698468637    -0.994137293830     0.005658534875    31.972071174400
         N           -0.666881531363    -1.437732293830     0.002831534875    14.003074004430
         N            1.483489468637     1.479561706170    -0.005103465125    14.003074004430
         C           -2.722119531363     0.507176706170    -0.012920465125    12.000000000000
         C           -0.393368531363    -0.116939293830    -0.001225465125    12.000000000000
         C           -1.377938531363     0.879406706170    -0.007673465125    12.000000000000
         C            1.025535468637     0.237071706170    -0.001028465125    12.000000000000
         C           -3.010368531363    -0.863871293830    -0.007333465125    12.000000000000
         C           -3.819225531363     1.536438706170     0.014634534875    12.000000000000
         C           -1.964182531363    -1.785276293830    -0.000698465125    12.000000000000
         C            3.443875468637     0.234397706170     0.002812534875    12.000000000000
         C            2.851141468637     1.477797706170    -0.003067465125    12.000000000000
         H           -1.072737531363     1.922843706170    -0.014789465125     1.007825032230
         H           -4.040631531363    -1.213413293830    -0.014773465125     1.007825032230
         H           -4.160110531363     1.712261706170     1.040496534875     1.007825032230
         H           -3.471660531363     2.490083706170    -0.390945465125     1.007825032230
         H           -4.682205531363     1.206289706170    -0.570491465125     1.007825032230
         H           -2.129830731363    -2.658523393830    -0.000237265125     1.007825032230
         H            4.500019468637    -0.002736293830     0.005241534875     1.007825032230
         H            3.385754468637     2.421654706170    -0.005979465125     1.007825032230

  Basis Set: AUG-CC-PVTZ
    Blend: AUG-CC-PVTZ
  Basis Set: (AUG-CC-PVTZ AUX)
    Blend: AUG-CC-PVTZ-JKFIT
	 Reference Energy          =    -852.0273469092933283 [Eh]
	 Singles Energy            =      -0.0000000000000000 [Eh]
	 Same-Spin Energy          =      -0.5688852654107899 [Eh]
	 Opposite-Spin Energy      =      -1.7085679342935123 [Eh]
	 Correlation Energy        =      -2.2774531997043024 [Eh]
	 Total Energy              =    -854.3048001089975969 [Eh]

	 ================> DF-SCS-MP2 Energies <==================
	-----------------------------------------------------------
	 SCS Same-Spin Scale       =       0.3333333333333333 [-]
	 SCS Opposite-Spin Scale   =       1.2000000000000000 [-]
	 SCS Same-Spin Energy      =      -0.1896284218035966 [Eh]
	 SCS Opposite-Spin Energy  =      -2.0502815211522147 [Eh]
	 SCS Correlation Energy    =      -2.2399099429558111 [Eh]
	 SCS Total Energy          =    -854.2672568522491474 [Eh]
	-----------------------------------------------------------

  Dipole Moment: [D]
     X:    -1.3221      Y:     0.3573      Z:     0.0421     Total:     1.3702

*** Psi4 exiting successfully. Buy a developer a beer!
