                               Psi4 1.4a3.dev225

  ==> Input File <==

--------------------------------------------------------------------------
#psi4
#
memory 32 gb

molecule  {
0 1
  S        2.3127110    -1.0235480     0.0053950
  N       -0.6038690    -1.4671430     0.0025680
  N        1.5465020     1.4501510    -0.0053670
  C       -2.6591070     0.4777660    -0.0131840
  C       -0.3506339    -0.2442720    -0.0011882
  C       -1.3149260     0.8499960    -0.0079370
  C        1.0885480     0.2076610    -0.0012920
  C       -2.9473560    -0.8932820    -0.0075970
  C       -3.7562130     1.5070280     0.0143710
  C       -1.9011700    -1.8146870    -0.0009620
  C        3.5068880     0.2049870     0.0025490
  C        2.9141540     1.4483870    -0.0033310
  H       -1.0097250     1.8934330    -0.0150530
  H       -3.9776190    -1.2428240    -0.0150370
  H       -4.0970980     1.6828510     1.0402330
  H       -3.4086480     2.4606730    -0.3912090
  H       -4.6191930     1.1768790    -0.5707550
  H       -2.1040920    -2.8844300    -0.0003970
  H        4.5630320    -0.0321470     0.0049780
  H        3.4487670     2.3922440    -0.0062430
units angstrom
no_reorient  #important for SAPT in psi4, default
symmetry c1  #important for SAPT in psi4, default
}

set PROPERTIES_ORIGIN ["COM"]
properties('MP2/aug-cc-pvtz', properties = ['dipole'])
--------------------------------------------------------------------------

    Molecular point group: c1
  Charge       = 0
  Multiplicity = 1
  Basis Set: AUG-CC-PVTZ
    Blend: AUG-CC-PVTZ
  Basis Set: (AUG-CC-PVTZ AUX)
    Blend: AUG-CC-PVTZ-JKFIT

    Orbital Energies [Eh]
    ---------------------

    Doubly Occupied:

       1A    -91.990877     2A    -15.573047     3A    -15.567516
       4A    -11.312749     5A    -11.296270     6A    -11.282733
       7A    -11.268996     8A    -11.268166     9A    -11.262285
      10A    -11.245095    11A    -11.244851    12A    -11.238623
      13A     -8.991182    14A     -6.671973    15A     -6.671377
      16A     -6.670754    17A     -1.301426    18A     -1.270345
      19A     -1.117984    20A     -1.061110    21A     -1.054696
      22A     -0.986212    23A     -0.967992    24A     -0.877369
      25A     -0.840638    26A     -0.783349    27A     -0.747120
      28A     -0.698014    29A     -0.688683    30A     -0.668031
      31A     -0.634200    32A     -0.597363    33A     -0.585205
      34A     -0.574411    35A     -0.569452    36A     -0.565165
      37A     -0.548974    38A     -0.535712    39A     -0.512437
      40A     -0.499413    41A     -0.444015    42A     -0.413769
      43A     -0.393445    44A     -0.387712    45A     -0.359779
      46A     -0.307384

  @DF-RHF Final Energy:  -852.05234173637245

   => Energetics <=

    Nuclear Repulsion Energy =            720.7262928520530068
    One-Electron Energy =               -2596.4614685836722856
    Two-Electron Energy =                1023.6828339952467104
    Total Energy =                       -852.0523417363724548
  Basis Set: (AUG-CC-PVTZ AUX)
    Blend: AUG-CC-PVTZ-RI
    Molecular point group: c1

    Geometry (in Angstrom), charge = 0, multiplicity = 1:

       Center              X                  Y                   Z               Mass
    ------------   -----------------  -----------------  -----------------  -----------------
         S            2.251294122813    -0.986337412581     0.005637436290    31.972071174400
         N           -0.665285877187    -1.429932412581     0.002810436290    14.003074004430
         N            1.485085122813     1.487361587419    -0.005124563710    14.003074004430
         C           -2.720523877187     0.514976587419    -0.012941563710    12.000000000000
         C           -0.412050777187    -0.207061412581    -0.000945763710    12.000000000000
         C           -1.376342877187     0.887206587419    -0.007694563710    12.000000000000
         C            1.027131122813     0.244871587419    -0.001049563710    12.000000000000
         C           -3.008772877187    -0.856071412581    -0.007354563710    12.000000000000
         C           -3.817629877187     1.544238587419     0.014613436290    12.000000000000
         C           -1.962586877187    -1.777476412581    -0.000719563710    12.000000000000
         C            3.445471122813     0.242197587419     0.002791436290    12.000000000000
         C            2.852737122813     1.485597587419    -0.003088563710    12.000000000000
         H           -1.071141877187     1.930643587419    -0.014810563710     1.007825032230
         H           -4.039035877187    -1.205613412581    -0.014794563710     1.007825032230
         H           -4.158514877187     1.720061587419     1.040475436290     1.007825032230
         H           -3.470064877187     2.497883587419    -0.390966563710     1.007825032230
         H           -4.680609877187     1.214089587419    -0.570512563710     1.007825032230
         H           -2.165508877187    -2.847219412581    -0.000154563710     1.007825032230
         H            4.501615122813     0.005063587419     0.005220436290     1.007825032230
         H            3.387350122813     2.429454587419    -0.006000563710     1.007825032230

  Basis Set: AUG-CC-PVTZ
    Blend: AUG-CC-PVTZ
  Basis Set: (AUG-CC-PVTZ AUX)
    Blend: AUG-CC-PVTZ-JKFIT
	 Reference Energy          =    -852.0523417363724548 [Eh]
	 Singles Energy            =      -0.0000000000000000 [Eh]
	 Same-Spin Energy          =      -0.5677360074989444 [Eh]
	 Opposite-Spin Energy      =      -1.7071227650498859 [Eh]
	 Correlation Energy        =      -2.2748587725488303 [Eh]
	 Total Energy              =    -854.3272005089212371 [Eh]

	 ================> DF-SCS-MP2 Energies <==================
	-----------------------------------------------------------
	 SCS Same-Spin Scale       =       0.3333333333333333 [-]
	 SCS Opposite-Spin Scale   =       1.2000000000000000 [-]
	 SCS Same-Spin Energy      =      -0.1892453358329814 [Eh]
	 SCS Opposite-Spin Energy  =      -2.0485473180598630 [Eh]
	 SCS Correlation Energy    =      -2.2377926538928445 [Eh]
	 SCS Total Energy          =    -854.2901343902652798 [Eh]
	-----------------------------------------------------------

  Dipole Moment: [D]
     X:    -1.3684      Y:     0.3366      Z:     0.0425     Total:     1.4098

*** Psi4 exiting successfully. Buy a developer a beer!
