                               Psi4 1.4a3.dev225

  ==> Input File <==

--------------------------------------------------------------------------
#psi4
#
memory 32 gb

molecule  {
0 1
  S        2.3549344    -0.9800754     0.0052612
  N       -0.6038690    -1.4671430     0.0025680
  N        1.5465020     1.4501510    -0.0053670
  C       -2.6591070     0.4777660    -0.0131840
  C       -0.3303560    -0.1463500    -0.0014890
  C       -1.3149260     0.8499960    -0.0079370
  C        1.0885480     0.2076610    -0.0012920
  C       -2.9473560    -0.8932820    -0.0075970
  C       -3.7562130     1.5070280     0.0143710
  C       -1.9011700    -1.8146870    -0.0009620
  C        3.5068880     0.2049870     0.0025490
  C        2.9141540     1.4483870    -0.0033310
  H       -1.0097250     1.8934330    -0.0150530
  H       -3.9776190    -1.2428240    -0.0150370
  H       -4.0970980     1.6828510     1.0402330
  H       -3.4086480     2.4606730    -0.3912090
  H       -4.6191930     1.1768790    -0.5707550
  H       -2.1040920    -2.8844300    -0.0003970
  H        4.5630320    -0.0321470     0.0049780
  H        3.4487670     2.3922440    -0.0062430
units angstrom
no_reorient  #important for SAPT in psi4, default
symmetry c1  #important for SAPT in psi4, default
}

set PROPERTIES_ORIGIN ["COM"]
properties('MP2/aug-cc-pvtz', properties = ['dipole'])
--------------------------------------------------------------------------

    Molecular point group: c1
  Charge       = 0
  Multiplicity = 1
  Basis Set: AUG-CC-PVTZ
    Blend: AUG-CC-PVTZ
  Basis Set: (AUG-CC-PVTZ AUX)
    Blend: AUG-CC-PVTZ-JKFIT

    Orbital Energies [Eh]
    ---------------------

    Doubly Occupied:

       1A    -91.992278     2A    -15.572876     3A    -15.570941
       4A    -11.309383     5A    -11.294320     6A    -11.281245
       7A    -11.271169     8A    -11.266957     9A    -11.259767
      10A    -11.242607    11A    -11.241416    12A    -11.239437
      13A     -8.993788    14A     -6.674678    15A     -6.674061
      16A     -6.673350    17A     -1.286816    18A     -1.257054
      19A     -1.113292    20A     -1.077390    21A     -1.060561
      22A     -0.983143    23A     -0.971898    24A     -0.872001
      25A     -0.843061    26A     -0.782752    27A     -0.752338
      28A     -0.700509    29A     -0.678340    30A     -0.671907
      31A     -0.634465    32A     -0.595674    33A     -0.587772
      34A     -0.574765    35A     -0.573703    36A     -0.561244
      37A     -0.547681    38A     -0.527955    39A     -0.516400
      40A     -0.501115    41A     -0.440613    42A     -0.420866
      43A     -0.399266    44A     -0.380160    45A     -0.365294
      46A     -0.303191

  @DF-RHF Final Energy:  -852.05980820982700

   => Energetics <=

    Nuclear Repulsion Energy =            721.3490031557475959
    One-Electron Energy =               -2597.7386296501426841
    Two-Electron Energy =                1024.3298182845680913
    Total Energy =                       -852.0598082098269970
  Basis Set: (AUG-CC-PVTZ AUX)
    Blend: AUG-CC-PVTZ-RI
    Molecular point group: c1

    Geometry (in Angstrom), charge = 0, multiplicity = 1:

       Center              X                  Y                   Z               Mass
    ------------   -----------------  -----------------  -----------------  -----------------
         S            2.284466756320    -0.957435143879     0.005548441030    31.972071174400
         N           -0.674336643680    -1.444502743879     0.002855241030    14.003074004430
         N            1.476034356320     1.472791256121    -0.005079758970    14.003074004430
         C           -2.729574643680     0.500406256121    -0.012896758970    12.000000000000
         C           -0.400823643680    -0.123709743879    -0.001201758970    12.000000000000
         C           -1.385393643680     0.872636256121    -0.007649758970    12.000000000000
         C            1.018080356320     0.230301256121    -0.001004758970    12.000000000000
         C           -3.017823643680    -0.870641743879    -0.007309758970    12.000000000000
         C           -3.826680643680     1.529668256121     0.014658241030    12.000000000000
         C           -1.971637643680    -1.792046743879    -0.000674758970    12.000000000000
         C            3.436420356320     0.227627256121     0.002836241030    12.000000000000
         C            2.843686356320     1.471027256121    -0.003043758970    12.000000000000
         H           -1.080192643680     1.916073256121    -0.014765758970     1.007825032230
         H           -4.048086643680    -1.220183743879    -0.014749758970     1.007825032230
         H           -4.167565643680     1.705491256121     1.040520241030     1.007825032230
         H           -3.479115643680     2.483313256121    -0.390921758970     1.007825032230
         H           -4.689660643680     1.199519256121    -0.570467758970     1.007825032230
         H           -2.174559643680    -2.861789743879    -0.000109758970     1.007825032230
         H            4.492564356320    -0.009506743879     0.005265241030     1.007825032230
         H            3.378299356320     2.414884256121    -0.005955758970     1.007825032230

  Basis Set: AUG-CC-PVTZ
    Blend: AUG-CC-PVTZ
  Basis Set: (AUG-CC-PVTZ AUX)
    Blend: AUG-CC-PVTZ-JKFIT
	 Reference Energy          =    -852.0598082098269970 [Eh]
	 Singles Energy            =      -0.0000000000000000 [Eh]
	 Same-Spin Energy          =      -0.5697256509428138 [Eh]
	 Opposite-Spin Energy      =      -1.7087470171976242 [Eh]
	 Correlation Energy        =      -2.2784726681404379 [Eh]
	 Total Energy              =    -854.3382808779674633 [Eh]

	 ================> DF-SCS-MP2 Energies <==================
	-----------------------------------------------------------
	 SCS Same-Spin Scale       =       0.3333333333333333 [-]
	 SCS Opposite-Spin Scale   =       1.2000000000000000 [-]
	 SCS Same-Spin Energy      =      -0.1899085503142713 [Eh]
	 SCS Opposite-Spin Energy  =      -2.0504964206371490 [Eh]
	 SCS Correlation Energy    =      -2.2404049709514204 [Eh]
	 SCS Total Energy          =    -854.3002131807784281 [Eh]
	-----------------------------------------------------------

  Dipole Moment: [D]
     X:    -1.1820      Y:     0.3909      Z:     0.0421     Total:     1.2456

*** Psi4 exiting successfully. Buy a developer a beer!
