                               Psi4 1.4a3.dev225

  ==> Input File <==

--------------------------------------------------------------------------
#psi4
#
memory 32 gb

molecule  {
0 1
  S        2.3127110    -1.0235480     0.0053950
  N       -0.6038690    -1.4671430     0.0025680
  N        1.5465020     1.4501510    -0.0053670
  C       -2.6591070     0.4777660    -0.0131840
  C       -0.3303560    -0.1463500    -0.0014890
  C       -1.3149260     0.8499960    -0.0079370
  C        1.0885480     0.2076610    -0.0012920
  C       -2.9473560    -0.8932820    -0.0075970
  C       -3.7562130     1.5070280     0.0143710
  C       -1.9011700    -1.8146870    -0.0009620
  C        3.5068880     0.2049870     0.0025490
  C        2.9141540     1.4483870    -0.0033310
  H       -1.0097250     1.8934330    -0.0150530
  H       -3.9776190    -1.2428240    -0.0150370
  H       -4.0970980     1.6828510     1.0402330
  H       -3.4086480     2.4606730    -0.3912090
  H       -4.6191930     1.1768790    -0.5707550
  H       -2.0854551    -2.7861820    -0.0004489
  H        4.5630320    -0.0321470     0.0049780
  H        3.4487670     2.3922440    -0.0062430
units angstrom
no_reorient  #important for SAPT in psi4, default
symmetry c1  #important for SAPT in psi4, default
}

set PROPERTIES_ORIGIN ["COM"]
properties('MP2/aug-cc-pvtz', properties = ['dipole'])
--------------------------------------------------------------------------

    Molecular point group: c1
  Charge       = 0
  Multiplicity = 1
  Basis Set: AUG-CC-PVTZ
    Blend: AUG-CC-PVTZ
  Basis Set: (AUG-CC-PVTZ AUX)
    Blend: AUG-CC-PVTZ-JKFIT

    Orbital Energies [Eh]
    ---------------------

    Doubly Occupied:

       1A    -91.993556     2A    -15.572189     3A    -15.571158
       4A    -11.311478     5A    -11.293290     6A    -11.271102
       7A    -11.270124     8A    -11.268298     9A    -11.263142
      10A    -11.242722    11A    -11.241811    12A    -11.239495
      13A     -8.993547    14A     -6.674313    15A     -6.673762
      16A     -6.673101    17A     -1.284550    18A     -1.256573
      19A     -1.113452    20A     -1.066637    21A     -1.061038
      22A     -0.985386    23A     -0.972078    24A     -0.874078
      25A     -0.851064    26A     -0.784868    27A     -0.751813
      28A     -0.698544    29A     -0.679193    30A     -0.671021
      31A     -0.647410    32A     -0.595568    33A     -0.589289
      34A     -0.572376    35A     -0.571267    36A     -0.561879
      37A     -0.547307    38A     -0.526022    39A     -0.517181
      40A     -0.500590    41A     -0.441587    42A     -0.421534
      43A     -0.393323    44A     -0.381278    45A     -0.366096
      46A     -0.304749

  @DF-RHF Final Energy:  -852.05587783177248

   => Energetics <=

    Nuclear Repulsion Energy =            720.9421080056933988
    One-Electron Energy =               -2596.9142874793633382
    Two-Electron Energy =                1023.9163016418974621
    Total Energy =                       -852.0558778317724773
  Basis Set: (AUG-CC-PVTZ AUX)
    Blend: AUG-CC-PVTZ-RI
    Molecular point group: c1

    Geometry (in Angstrom), charge = 0, multiplicity = 1:

       Center              X                  Y                   Z               Mass
    ------------   -----------------  -----------------  -----------------  -----------------
         S            2.249805163973    -0.993574829436     0.005658237750    31.972071174400
         N           -0.666774836027    -1.437169829436     0.002831237750    14.003074004430
         N            1.483596163973     1.480124170564    -0.005103762250    14.003074004430
         C           -2.722012836027     0.507739170564    -0.012920762250    12.000000000000
         C           -0.393261836027    -0.116376829436    -0.001225762250    12.000000000000
         C           -1.377831836027     0.879969170564    -0.007673762250    12.000000000000
         C            1.025642163973     0.237634170564    -0.001028762250    12.000000000000
         C           -3.010261836027    -0.863308829436    -0.007333762250    12.000000000000
         C           -3.819118836027     1.537001170564     0.014634237750    12.000000000000
         C           -1.964075836027    -1.784713829436    -0.000698762250    12.000000000000
         C            3.443982163973     0.234960170564     0.002812237750    12.000000000000
         C            2.851248163973     1.478360170564    -0.003067762250    12.000000000000
         H           -1.072630836027     1.923406170564    -0.014789762250     1.007825032230
         H           -4.040524836027    -1.212850829436    -0.014773762250     1.007825032230
         H           -4.160003836027     1.712824170564     1.040496237750     1.007825032230
         H           -3.471553836027     2.490646170564    -0.390945762250     1.007825032230
         H           -4.682098836027     1.206852170564    -0.570491762250     1.007825032230
         H           -2.148360936027    -2.756208829436    -0.000185662250     1.007825032230
         H            4.500126163973    -0.002173829436     0.005241237750     1.007825032230
         H            3.385861163973     2.422217170564    -0.005979762250     1.007825032230

  Basis Set: AUG-CC-PVTZ
    Blend: AUG-CC-PVTZ
  Basis Set: (AUG-CC-PVTZ AUX)
    Blend: AUG-CC-PVTZ-JKFIT
	 Reference Energy          =    -852.0558778317724773 [Eh]
	 Singles Energy            =      -0.0000000000000000 [Eh]
	 Same-Spin Energy          =      -0.5689505746378197 [Eh]
	 Opposite-Spin Energy      =      -1.7086700852211090 [Eh]
	 Correlation Energy        =      -2.2776206598589286 [Eh]
	 Total Energy              =    -854.3334984916314170 [Eh]

	 ================> DF-SCS-MP2 Energies <==================
	-----------------------------------------------------------
	 SCS Same-Spin Scale       =       0.3333333333333333 [-]
	 SCS Opposite-Spin Scale   =       1.2000000000000000 [-]
	 SCS Same-Spin Energy      =      -0.1896501915459399 [Eh]
	 SCS Opposite-Spin Energy  =      -2.0504041022653308 [Eh]
	 SCS Correlation Energy    =      -2.2400542938112706 [Eh]
	 SCS Total Energy          =    -854.2959321255837040 [Eh]
	-----------------------------------------------------------

  Dipole Moment: [D]
     X:    -1.3053      Y:     0.3654      Z:     0.0421     Total:     1.3561

*** Psi4 exiting successfully. Buy a developer a beer!
