                               Psi4 1.4a3.dev225

  ==> Input File <==

--------------------------------------------------------------------------
#psi4
#
memory 32 gb

molecule  {
0 1
  S        2.3127110    -1.0235480     0.0053950
  N       -0.6038690    -1.4671430     0.0025680
  N        1.5465020     1.4501510    -0.0053670
  C       -2.6591070     0.4777660    -0.0131840
  C       -0.3303560    -0.1463500    -0.0014890
  C       -1.3149260     0.8499960    -0.0079370
  C        1.0885480     0.2076610    -0.0012920
  C       -2.9473560    -0.8932820    -0.0075970
  C       -3.7562130     1.5070280     0.0143710
  C       -1.8528733    -1.8017484    -0.0008306
  C        3.5068880     0.2049870     0.0025490
  C        2.9141540     1.4483870    -0.0033310
  H       -1.0097250     1.8934330    -0.0150530
  H       -3.9776190    -1.2428240    -0.0150370
  H       -4.0970980     1.6828510     1.0402330
  H       -3.4086480     2.4606730    -0.3912090
  H       -4.6191930     1.1768790    -0.5707550
  H       -2.1040920    -2.8844300    -0.0003970
  H        4.5630320    -0.0321470     0.0049780
  H        3.4487670     2.3922440    -0.0062430
units angstrom
no_reorient  #important for SAPT in psi4, default
symmetry c1  #important for SAPT in psi4, default
}

set PROPERTIES_ORIGIN ["COM"]
properties('MP2/aug-cc-pvtz', properties = ['dipole'])
--------------------------------------------------------------------------

    Molecular point group: c1
  Charge       = 0
  Multiplicity = 1
  Basis Set: AUG-CC-PVTZ
    Blend: AUG-CC-PVTZ
  Basis Set: (AUG-CC-PVTZ AUX)
    Blend: AUG-CC-PVTZ-JKFIT

    Orbital Energies [Eh]
    ---------------------

    Doubly Occupied:

       1A    -91.993926     2A    -15.571919     3A    -15.569289
       4A    -11.311810     5A    -11.293935     6A    -11.282572
       7A    -11.270642     8A    -11.268611     9A    -11.263157
      10A    -11.245036    11A    -11.242613    12A    -11.239272
      13A     -8.993926    14A     -6.674693    15A     -6.674145
      16A     -6.673483    17A     -1.289476    18A     -1.265699
      19A     -1.115556    20A     -1.065201    21A     -1.061056
      22A     -0.981505    23A     -0.972230    24A     -0.876191
      25A     -0.840125    26A     -0.783421    27A     -0.750423
      28A     -0.697770    29A     -0.681969    30A     -0.672156
      31A     -0.630145    32A     -0.596461    33A     -0.585286
      34A     -0.573653    35A     -0.571429    36A     -0.563679
      37A     -0.548445    38A     -0.530948    39A     -0.515880
      40A     -0.500063    41A     -0.439544    42A     -0.419450
      43A     -0.393317    44A     -0.382278    45A     -0.370183
      46A     -0.302367

  @DF-RHF Final Energy:  -852.06004300114546

   => Energetics <=

    Nuclear Repulsion Energy =            721.1396750370465725
    One-Electron Energy =               -2597.3095639221569400
    Two-Electron Energy =                1024.1098458839649084
    Total Energy =                       -852.0600430011454591
  Basis Set: (AUG-CC-PVTZ AUX)
    Blend: AUG-CC-PVTZ-RI
    Molecular point group: c1

    Geometry (in Angstrom), charge = 0, multiplicity = 1:

       Center              X                  Y                   Z               Mass
    ------------   -----------------  -----------------  -----------------  -----------------
         S            2.246619666044    -0.993894337186     0.005648983612    31.972071174400
         N           -0.669960333956    -1.437489337186     0.002821983612    14.003074004430
         N            1.480410666044     1.479804662814    -0.005113016388    14.003074004430
         C           -2.725198333956     0.507419662814    -0.012930016388    12.000000000000
         C           -0.396447333956    -0.116696337186    -0.001235016388    12.000000000000
         C           -1.381017333956     0.879649662814    -0.007683016388    12.000000000000
         C            1.022456666044     0.237314662814    -0.001038016388    12.000000000000
         C           -3.013447333956    -0.863628337186    -0.007343016388    12.000000000000
         C           -3.822304333956     1.536681662814     0.014624983612    12.000000000000
         C           -1.918964633956    -1.772094737186    -0.000576616388    12.000000000000
         C            3.440796666044     0.234640662814     0.002802983612    12.000000000000
         C            2.848062666044     1.478040662814    -0.003077016388    12.000000000000
         H           -1.075816333956     1.923086662814    -0.014799016388     1.007825032230
         H           -4.043710333956    -1.213170337186    -0.014783016388     1.007825032230
         H           -4.163189333956     1.712504662814     1.040486983612     1.007825032230
         H           -3.474739333956     2.490326662814    -0.390955016388     1.007825032230
         H           -4.685284333956     1.206532662814    -0.570501016388     1.007825032230
         H           -2.170183333956    -2.854776337186    -0.000143016388     1.007825032230
         H            4.496940666044    -0.002493337186     0.005231983612     1.007825032230
         H            3.382675666044     2.421897662814    -0.005989016388     1.007825032230

  Basis Set: AUG-CC-PVTZ
    Blend: AUG-CC-PVTZ
  Basis Set: (AUG-CC-PVTZ AUX)
    Blend: AUG-CC-PVTZ-JKFIT
	 Reference Energy          =    -852.0600430011454591 [Eh]
	 Singles Energy            =      -0.0000000000000000 [Eh]
	 Same-Spin Energy          =      -0.5687989500986884 [Eh]
	 Opposite-Spin Energy      =      -1.7083847746388989 [Eh]
	 Correlation Energy        =      -2.2771837247375872 [Eh]
	 Total Energy              =    -854.3372267258830561 [Eh]

	 ================> DF-SCS-MP2 Energies <==================
	-----------------------------------------------------------
	 SCS Same-Spin Scale       =       0.3333333333333333 [-]
	 SCS Opposite-Spin Scale   =       1.2000000000000000 [-]
	 SCS Same-Spin Energy      =      -0.1895996500328961 [Eh]
	 SCS Opposite-Spin Energy  =      -2.0500617295666785 [Eh]
	 SCS Correlation Energy    =      -2.2396613795995748 [Eh]
	 SCS Total Energy          =    -854.2997043807450837 [Eh]
	-----------------------------------------------------------

  Dipole Moment: [D]
     X:    -1.2409      Y:     0.3963      Z:     0.0424     Total:     1.3033

*** Psi4 exiting successfully. Buy a developer a beer!
