                               Psi4 1.4a3.dev225

  ==> Input File <==

--------------------------------------------------------------------------
#psi4
#
memory 32 gb

molecule  {
0 1
  S        2.3956149    -0.9351558     0.0051194
  N       -0.6038690    -1.4671430     0.0025680
  N        1.5465020     1.4501510    -0.0053670
  C       -2.6591070     0.4777660    -0.0131840
  C       -0.3303560    -0.1463500    -0.0014890
  C       -1.3149260     0.8499960    -0.0079370
  C        1.0885480     0.2076610    -0.0012920
  C       -2.9473560    -0.8932820    -0.0075970
  C       -3.7562130     1.5070280     0.0143710
  C       -1.9011700    -1.8146870    -0.0009620
  C        3.5068880     0.2049870     0.0025490
  C        2.9141540     1.4483870    -0.0033310
  H       -1.0097250     1.8934330    -0.0150530
  H       -3.9776190    -1.2428240    -0.0150370
  H       -4.0970980     1.6828510     1.0402330
  H       -3.4086480     2.4606730    -0.3912090
  H       -4.6191930     1.1768790    -0.5707550
  H       -2.1040920    -2.8844300    -0.0003970
  H        4.5630320    -0.0321470     0.0049780
  H        3.4487670     2.3922440    -0.0062430
units angstrom
no_reorient  #important for SAPT in psi4, default
symmetry c1  #important for SAPT in psi4, default
}

set PROPERTIES_ORIGIN ["COM"]
properties('MP2/aug-cc-pvtz', properties = ['dipole'])
--------------------------------------------------------------------------

    Molecular point group: c1
  Charge       = 0
  Multiplicity = 1
  Basis Set: AUG-CC-PVTZ
    Blend: AUG-CC-PVTZ
  Basis Set: (AUG-CC-PVTZ AUX)
    Blend: AUG-CC-PVTZ-JKFIT

    Orbital Energies [Eh]
    ---------------------

    Doubly Occupied:

       1A    -91.990363     2A    -15.573350     3A    -15.569869
       4A    -11.306732     5A    -11.294581     6A    -11.280518
       7A    -11.270647     8A    -11.265505     9A    -11.256014
      10A    -11.241674    11A    -11.240728    12A    -11.239022
      13A     -8.993783    14A     -6.674921    15A     -6.673971
      16A     -6.673284    17A     -1.289729    18A     -1.257401
      19A     -1.112696    20A     -1.092290    21A     -1.059329
      22A     -0.981813    23A     -0.971286    24A     -0.871820
      25A     -0.842202    26A     -0.781992    27A     -0.755080
      28A     -0.703752    29A     -0.677532    30A     -0.672397
      31A     -0.635147    32A     -0.595568    33A     -0.589193
      34A     -0.577533    35A     -0.575821    36A     -0.560652
      37A     -0.548524    38A     -0.529528    39A     -0.517101
      40A     -0.499802    41A     -0.439781    42A     -0.420187
      43A     -0.405509    44A     -0.378761    45A     -0.364149
      46A     -0.301067

  @DF-RHF Final Energy:  -852.05220703237160

   => Energetics <=

    Nuclear Repulsion Energy =            722.5051794849235876
    One-Electron Energy =               -2600.0095659399662509
    Two-Electron Energy =                1025.4521794226709517
    Total Energy =                       -852.0522070323715980
  Basis Set: (AUG-CC-PVTZ AUX)
    Blend: AUG-CC-PVTZ-RI
    Molecular point group: c1

    Geometry (in Angstrom), charge = 0, multiplicity = 1:

       Center              X                  Y                   Z               Mass
    ------------   -----------------  -----------------  -----------------  -----------------
         S            2.317758970776    -0.920673723629     0.005432394373    31.972071174400
         N           -0.681724929224    -1.452660923629     0.002880994373    14.003074004430
         N            1.468646070776     1.464633076371    -0.005054005627    14.003074004430
         C           -2.736962929224     0.492248076371    -0.012871005627    12.000000000000
         C           -0.408211929224    -0.131867923629    -0.001176005627    12.000000000000
         C           -1.392781929224     0.864478076371    -0.007624005627    12.000000000000
         C            1.010692070776     0.222143076371    -0.000979005627    12.000000000000
         C           -3.025211929224    -0.878799923629    -0.007284005627    12.000000000000
         C           -3.834068929224     1.521510076371     0.014683994373    12.000000000000
         C           -1.979025929224    -1.800204923629    -0.000649005627    12.000000000000
         C            3.429032070776     0.219469076371     0.002861994373    12.000000000000
         C            2.836298070776     1.462869076371    -0.003018005627    12.000000000000
         H           -1.087580929224     1.907915076371    -0.014740005627     1.007825032230
         H           -4.055474929224    -1.228341923629    -0.014724005627     1.007825032230
         H           -4.174953929224     1.697333076371     1.040545994373     1.007825032230
         H           -3.486503929224     2.475155076371    -0.390896005627     1.007825032230
         H           -4.697048929224     1.191361076371    -0.570442005627     1.007825032230
         H           -2.181947929224    -2.869947923629    -0.000084005627     1.007825032230
         H            4.485176070776    -0.017664923629     0.005290994373     1.007825032230
         H            3.370911070776     2.406726076371    -0.005930005627     1.007825032230

  Basis Set: AUG-CC-PVTZ
    Blend: AUG-CC-PVTZ
  Basis Set: (AUG-CC-PVTZ AUX)
    Blend: AUG-CC-PVTZ-JKFIT
	 Reference Energy          =    -852.0522070323715980 [Eh]
	 Singles Energy            =      -0.0000000000000000 [Eh]
	 Same-Spin Energy          =      -0.5704494140118870 [Eh]
	 Opposite-Spin Energy      =      -1.7084707992957520 [Eh]
	 Correlation Energy        =      -2.2789202133076389 [Eh]
	 Total Energy              =    -854.3311272456792267 [Eh]

	 ================> DF-SCS-MP2 Energies <==================
	-----------------------------------------------------------
	 SCS Same-Spin Scale       =       0.3333333333333333 [-]
	 SCS Opposite-Spin Scale   =       1.2000000000000000 [-]
	 SCS Same-Spin Energy      =      -0.1901498046706290 [Eh]
	 SCS Opposite-Spin Energy  =      -2.0501649591549023 [Eh]
	 SCS Correlation Energy    =      -2.2403147638255314 [Eh]
	 SCS Total Energy          =    -854.2925217961970930 [Eh]
	-----------------------------------------------------------

  Dipole Moment: [D]
     X:    -1.0750      Y:     0.3922      Z:     0.0422     Total:     1.1451

*** Psi4 exiting successfully. Buy a developer a beer!
