                               Psi4 1.4a3.dev225

  ==> Input File <==

--------------------------------------------------------------------------
#psi4
#
memory 32 gb

molecule  {
0 1
  S        2.3127110    -1.0235480     0.0053950
  N       -0.6038690    -1.4671430     0.0025680
  N        1.5465020     1.4501510    -0.0053670
  C       -2.6591070     0.4777660    -0.0131840
  C       -0.3303560    -0.1463500    -0.0014890
  C       -1.3149260     0.8499960    -0.0079370
  C        1.0885480     0.2076610    -0.0012920
  C       -2.9473560    -0.8932820    -0.0075970
  C       -3.7562130     1.5070280     0.0143710
  C       -1.9011700    -1.8146870    -0.0009620
  C        3.5068880     0.2049870     0.0025490
  C        2.9141540     1.4483870    -0.0033310
  H       -1.0097250     1.8934330    -0.0150530
  H       -3.9965582    -1.2492496    -0.0151738
  H       -4.0970980     1.6828510     1.0402330
  H       -3.4086480     2.4606730    -0.3912090
  H       -4.6191930     1.1768790    -0.5707550
  H       -2.1040920    -2.8844300    -0.0003970
  H        4.5630320    -0.0321470     0.0049780
  H        3.4487670     2.3922440    -0.0062430
units angstrom
no_reorient  #important for SAPT in psi4, default
symmetry c1  #important for SAPT in psi4, default
}

set PROPERTIES_ORIGIN ["COM"]
properties('MP2/aug-cc-pvtz', properties = ['dipole'])
--------------------------------------------------------------------------

    Molecular point group: c1
  Charge       = 0
  Multiplicity = 1
  Basis Set: AUG-CC-PVTZ
    Blend: AUG-CC-PVTZ
  Basis Set: (AUG-CC-PVTZ AUX)
    Blend: AUG-CC-PVTZ-JKFIT

    Orbital Energies [Eh]
    ---------------------

    Doubly Occupied:

       1A    -91.993816     2A    -15.572488     3A    -15.572060
       4A    -11.311800     5A    -11.294069     6A    -11.282092
       7A    -11.271823     8A    -11.268525     9A    -11.263394
      10A    -11.245728    11A    -11.242143    12A    -11.239789
      13A     -8.993805    14A     -6.674570    15A     -6.674019
      16A     -6.673358    17A     -1.284856    18A     -1.256714
      19A     -1.113790    20A     -1.065248    21A     -1.060287
      22A     -0.984012    23A     -0.972412    24A     -0.871272
      25A     -0.843990    26A     -0.784009    27A     -0.749551
      28A     -0.697145    29A     -0.678986    30A     -0.669062
      31A     -0.633904    32A     -0.595899    33A     -0.586891
      34A     -0.572697    35A     -0.571433    36A     -0.560980
      37A     -0.547034    38A     -0.526534    39A     -0.514573
      40A     -0.500511    41A     -0.441310    42A     -0.421308
      43A     -0.393611    44A     -0.381756    45A     -0.366470
      46A     -0.305051

  @DF-RHF Final Energy:  -852.06089408596324

   => Energetics <=

    Nuclear Repulsion Energy =            720.2527393853711146
    One-Electron Energy =               -2595.5777162326080543
    Two-Electron Energy =                1023.2640827612736985
    Total Energy =                       -852.0608940859632412
  Basis Set: (AUG-CC-PVTZ AUX)
    Blend: AUG-CC-PVTZ-RI
    Molecular point group: c1

    Geometry (in Angstrom), charge = 0, multiplicity = 1:

       Center              X                  Y                   Z               Mass
    ------------   -----------------  -----------------  -----------------  -----------------
         S            2.250020285297    -0.992975578224     0.005658723798    31.972071174400
         N           -0.666559714703    -1.436570578224     0.002831723798    14.003074004430
         N            1.483811285297     1.480723421776    -0.005103276202    14.003074004430
         C           -2.721797714703     0.508338421776    -0.012920276202    12.000000000000
         C           -0.393046714703    -0.115777578224    -0.001225276202    12.000000000000
         C           -1.377616714703     0.880568421776    -0.007673276202    12.000000000000
         C            1.025857285297     0.238233421776    -0.001028276202    12.000000000000
         C           -3.010046714703    -0.862709578224    -0.007333276202    12.000000000000
         C           -3.818903714703     1.537600421776     0.014634723798    12.000000000000
         C           -1.963860714703    -1.784114578224    -0.000698276202    12.000000000000
         C            3.444197285297     0.235559421776     0.002812723798    12.000000000000
         C            2.851463285297     1.478959421776    -0.003067276202    12.000000000000
         H           -1.072415714703     1.924005421776    -0.014789276202     1.007825032230
         H           -4.059248914703    -1.218677178224    -0.014910076202     1.007825032230
         H           -4.159788714703     1.713423421776     1.040496723798     1.007825032230
         H           -3.471338714703     2.491245421776    -0.390945276202     1.007825032230
         H           -4.681883714703     1.207451421776    -0.570491276202     1.007825032230
         H           -2.166782714703    -2.853857578224    -0.000133276202     1.007825032230
         H            4.500341285297    -0.001574578224     0.005241723798     1.007825032230
         H            3.386076285297     2.422816421776    -0.005979276202     1.007825032230

  Basis Set: AUG-CC-PVTZ
    Blend: AUG-CC-PVTZ
  Basis Set: (AUG-CC-PVTZ AUX)
    Blend: AUG-CC-PVTZ-JKFIT
	 Reference Energy          =    -852.0608940859632412 [Eh]
	 Singles Energy            =      -0.0000000000000000 [Eh]
	 Same-Spin Energy          =      -0.5691956291033946 [Eh]
	 Opposite-Spin Energy      =      -1.7094326747293915 [Eh]
	 Correlation Energy        =      -2.2786283038327859 [Eh]
	 Total Energy              =    -854.3395223897960022 [Eh]

	 ================> DF-SCS-MP2 Energies <==================
	-----------------------------------------------------------
	 SCS Same-Spin Scale       =       0.3333333333333333 [-]
	 SCS Opposite-Spin Scale   =       1.2000000000000000 [-]
	 SCS Same-Spin Energy      =      -0.1897318763677982 [Eh]
	 SCS Opposite-Spin Energy  =      -2.0513192096752699 [Eh]
	 SCS Correlation Energy    =      -2.2410510860430679 [Eh]
	 SCS Total Energy          =    -854.3019451720062989 [Eh]
	-----------------------------------------------------------

  Dipole Moment: [D]
     X:    -1.2725      Y:     0.3975      Z:     0.0421     Total:     1.3338

*** Psi4 exiting successfully. Buy a developer a beer!
