                               Psi4 1.4a3.dev225

  ==> Input File <==

--------------------------------------------------------------------------
#psi4
#
memory 32 gb

molecule  {
0 1
  S        2.3127110    -1.0235480     0.0053950
  N       -0.6038690    -1.4671430     0.0025680
  N        1.5465020     1.4501510    -0.0053670
  C       -2.6591070     0.4777660    -0.0131840
  C       -0.3303560    -0.1463500    -0.0014890
  C       -1.3149260     0.8499960    -0.0079370
  C        1.0885480     0.2076610    -0.0012920
  C       -2.9473560    -0.8932820    -0.0075970
  C       -3.7562130     1.5070280     0.0143710
  C       -1.9011700    -1.8146870    -0.0009620
  C        3.5068880     0.2049870     0.0025490
  C        2.9141540     1.4483870    -0.0033310
  H       -1.0097250     1.8934330    -0.0150530
  H       -3.9776190    -1.2428240    -0.0150370
  H       -4.0970980     1.6828510     1.0402330
  H       -3.4086480     2.4606730    -0.3912090
  H       -4.6191930     1.1768790    -0.5707550
  H       -2.1040920    -2.8844300    -0.0003970
  H        4.5630320    -0.0321470     0.0049780
  H        3.5473358     2.5662667    -0.0067799
units angstrom
no_reorient  #important for SAPT in psi4, default
symmetry c1  #important for SAPT in psi4, default
}

set PROPERTIES_ORIGIN ["COM"]
properties('MP2/aug-cc-pvtz', properties = ['dipole'])
--------------------------------------------------------------------------

    Molecular point group: c1
  Charge       = 0
  Multiplicity = 1
  Basis Set: AUG-CC-PVTZ
    Blend: AUG-CC-PVTZ
  Basis Set: (AUG-CC-PVTZ AUX)
    Blend: AUG-CC-PVTZ-JKFIT

    Orbital Energies [Eh]
    ---------------------

    Doubly Occupied:

       1A    -91.995128     2A    -15.574701     3A    -15.572597
       4A    -11.313507     5A    -11.294768     6A    -11.288986
       7A    -11.282467     8A    -11.272125     9A    -11.265004
      10A    -11.243980    11A    -11.242599    12A    -11.240134
      13A     -8.995078    14A     -6.675839    15A     -6.675284
      16A     -6.674613    17A     -1.286056    18A     -1.257427
      19A     -1.114415    20A     -1.065898    21A     -1.060896
      22A     -0.980987    23A     -0.972208    24A     -0.870202
      25A     -0.844571    26A     -0.777119    27A     -0.745865
      28A     -0.695983    29A     -0.677413    30A     -0.666553
      31A     -0.625778    32A     -0.596358    33A     -0.578326
      34A     -0.573782    35A     -0.567594    36A     -0.560634
      37A     -0.547658    38A     -0.527307    39A     -0.515690
      40A     -0.489753    41A     -0.441003    42A     -0.422182
      43A     -0.394629    44A     -0.382421    45A     -0.367099
      46A     -0.305801

  @DF-RHF Final Energy:  -852.03880640069212

   => Energetics <=

    Nuclear Repulsion Energy =            719.3667123006013071
    One-Electron Energy =               -2593.7741956348968415
    Two-Electron Energy =                1022.3686769336035240
    Total Energy =                       -852.0388064006921240
  Basis Set: (AUG-CC-PVTZ AUX)
    Blend: AUG-CC-PVTZ-RI
    Molecular point group: c1

    Geometry (in Angstrom), charge = 0, multiplicity = 1:

       Center              X                  Y                   Z               Mass
    ------------   -----------------  -----------------  -----------------  -----------------
         S            2.249347557777    -0.994008635866     0.005661014351    31.972071174400
         N           -0.667232442223    -1.437603635866     0.002834014351    14.003074004430
         N            1.483138557777     1.479690364134    -0.005100985649    14.003074004430
         C           -2.722470442223     0.507305364134    -0.012917985649    12.000000000000
         C           -0.393719442223    -0.116810635866    -0.001222985649    12.000000000000
         C           -1.378289442223     0.879535364134    -0.007670985649    12.000000000000
         C            1.025184557777     0.237200364134    -0.001025985649    12.000000000000
         C           -3.010719442223    -0.863742635866    -0.007330985649    12.000000000000
         C           -3.819576442223     1.536567364134     0.014637014351    12.000000000000
         C           -1.964533442223    -1.785147635866    -0.000695985649    12.000000000000
         C            3.443524557777     0.234526364134     0.002815014351    12.000000000000
         C            2.850790557777     1.477926364134    -0.003064985649    12.000000000000
         H           -1.073088442223     1.922972364134    -0.014786985649     1.007825032230
         H           -4.040982442223    -1.213284635866    -0.014770985649     1.007825032230
         H           -4.160461442223     1.712390364134     1.040499014351     1.007825032230
         H           -3.472011442223     2.490212364134    -0.390942985649     1.007825032230
         H           -4.682556442223     1.206418364134    -0.570488985649     1.007825032230
         H           -2.167455442223    -2.854890635866    -0.000130985649     1.007825032230
         H            4.499668557777    -0.002607635866     0.005244014351     1.007825032230
         H            3.483972357777     2.595806064134    -0.006513885649     1.007825032230

  Basis Set: AUG-CC-PVTZ
    Blend: AUG-CC-PVTZ
  Basis Set: (AUG-CC-PVTZ AUX)
    Blend: AUG-CC-PVTZ-JKFIT
	 Reference Energy          =    -852.0388064006921240 [Eh]
	 Singles Energy            =      -0.0000000000000000 [Eh]
	 Same-Spin Energy          =      -0.5697483166640618 [Eh]
	 Opposite-Spin Energy      =      -1.7114045699970035 [Eh]
	 Correlation Energy        =      -2.2811528866610651 [Eh]
	 Total Energy              =    -854.3199592873531856 [Eh]

	 ================> DF-SCS-MP2 Energies <==================
	-----------------------------------------------------------
	 SCS Same-Spin Scale       =       0.3333333333333333 [-]
	 SCS Opposite-Spin Scale   =       1.2000000000000000 [-]
	 SCS Same-Spin Energy      =      -0.1899161055546872 [Eh]
	 SCS Opposite-Spin Energy  =      -2.0536854839964040 [Eh]
	 SCS Correlation Energy    =      -2.2436015895510915 [Eh]
	 SCS Total Energy          =    -854.2824079902432004 [Eh]
	-----------------------------------------------------------

  Dipole Moment: [D]
     X:    -1.3620      Y:     0.3464      Z:     0.0422     Total:     1.4060

*** Psi4 exiting successfully. Buy a developer a beer!
