                               Psi4 1.4a3.dev225

  ==> Input File <==

--------------------------------------------------------------------------
#psi4
#
memory 32 gb

molecule  {
0 1
  S        2.3127110    -1.0235480     0.0053950
  N       -0.6038690    -1.4671430     0.0025680
  N        1.5465020     1.4501510    -0.0053670
  C       -2.6591070     0.4777660    -0.0131840
  C       -0.3303560    -0.1463500    -0.0014890
  C       -1.3149260     0.8499960    -0.0079370
  C        1.1590550     0.1367482    -0.0009069
  C       -2.9473560    -0.8932820    -0.0075970
  C       -3.7562130     1.5070280     0.0143710
  C       -1.9011700    -1.8146870    -0.0009620
  C        3.5068880     0.2049870     0.0025490
  C        2.9141540     1.4483870    -0.0033310
  H       -1.0097250     1.8934330    -0.0150530
  H       -3.9776190    -1.2428240    -0.0150370
  H       -4.0970980     1.6828510     1.0402330
  H       -3.4086480     2.4606730    -0.3912090
  H       -4.6191930     1.1768790    -0.5707550
  H       -2.1040920    -2.8844300    -0.0003970
  H        4.5630320    -0.0321470     0.0049780
  H        3.4487670     2.3922440    -0.0062430
units angstrom
no_reorient  #important for SAPT in psi4, default
symmetry c1  #important for SAPT in psi4, default
}

set PROPERTIES_ORIGIN ["COM"]
properties('MP2/aug-cc-pvtz', properties = ['dipole'])
--------------------------------------------------------------------------

    Molecular point group: c1
  Charge       = 0
  Multiplicity = 1
  Basis Set: AUG-CC-PVTZ
    Blend: AUG-CC-PVTZ
  Basis Set: (AUG-CC-PVTZ AUX)
    Blend: AUG-CC-PVTZ-JKFIT

    Orbital Energies [Eh]
    ---------------------

    Doubly Occupied:

       1A    -92.001255     2A    -15.571194     3A    -15.568918
       4A    -11.310229     5A    -11.296307     6A    -11.279753
       7A    -11.270572     8A    -11.269123     9A    -11.259103
      10A    -11.241261    11A    -11.240723    12A    -11.238843
      13A     -9.003105    14A     -6.684033    15A     -6.683289
      16A     -6.682612    17A     -1.280015    18A     -1.253390
      19A     -1.112642    20A     -1.073598    21A     -1.055071
      22A     -0.986424    23A     -0.971267    24A     -0.867078
      25A     -0.837583    26A     -0.781013    27A     -0.750017
      28A     -0.698558    29A     -0.676158    30A     -0.669871
      31A     -0.630412    32A     -0.594357    33A     -0.576361
      34A     -0.572862    35A     -0.572573    36A     -0.556821
      37A     -0.549444    38A     -0.526603    39A     -0.508519
      40A     -0.506469    41A     -0.446842    42A     -0.424472
      43A     -0.387163    44A     -0.382379    45A     -0.366531
      46A     -0.307492

  @DF-RHF Final Energy:  -852.04984036026769

   => Energetics <=

    Nuclear Repulsion Energy =            720.8590203828346148
    One-Electron Energy =               -2596.7731190559043171
    Two-Electron Energy =                1023.8642583128020078
    Total Energy =                       -852.0498403602676945
  Basis Set: (AUG-CC-PVTZ AUX)
    Blend: AUG-CC-PVTZ-RI
    Molecular point group: c1

    Geometry (in Angstrom), charge = 0, multiplicity = 1:

       Center              X                  Y                   Z               Mass
    ------------   -----------------  -----------------  -----------------  -----------------
         S            2.245105678545    -0.988178521938     0.005631689895    31.972071174400
         N           -0.671474321455    -1.431773521938     0.002804689895    14.003074004430
         N            1.478896678545     1.485520478062    -0.005130310105    14.003074004430
         C           -2.726712321455     0.513135478062    -0.012947310105    12.000000000000
         C           -0.397961321455    -0.110980521938    -0.001252310105    12.000000000000
         C           -1.382531321455     0.885365478062    -0.007700310105    12.000000000000
         C            1.091449678545     0.172117678062    -0.000670210105    12.000000000000
         C           -3.014961321455    -0.857912521938    -0.007360310105    12.000000000000
         C           -3.823818321455     1.542397478062     0.014607689895    12.000000000000
         C           -1.968775321455    -1.779317521938    -0.000725310105    12.000000000000
         C            3.439282678545     0.240356478062     0.002785689895    12.000000000000
         C            2.846548678545     1.483756478062    -0.003094310105    12.000000000000
         H           -1.077330321455     1.928802478062    -0.014816310105     1.007825032230
         H           -4.045224321455    -1.207454521938    -0.014800310105     1.007825032230
         H           -4.164703321455     1.718220478062     1.040469689895     1.007825032230
         H           -3.476253321455     2.496042478062    -0.390972310105     1.007825032230
         H           -4.686798321455     1.212248478062    -0.570518310105     1.007825032230
         H           -2.171697321455    -2.849060521938    -0.000160310105     1.007825032230
         H            4.495426678545     0.003222478062     0.005214689895     1.007825032230
         H            3.381161678545     2.427613478062    -0.006006310105     1.007825032230

  Basis Set: AUG-CC-PVTZ
    Blend: AUG-CC-PVTZ
  Basis Set: (AUG-CC-PVTZ AUX)
    Blend: AUG-CC-PVTZ-JKFIT
	 Reference Energy          =    -852.0498403602676945 [Eh]
	 Singles Energy            =      -0.0000000000000000 [Eh]
	 Same-Spin Energy          =      -0.5700735444669565 [Eh]
	 Opposite-Spin Energy      =      -1.7103415012897951 [Eh]
	 Correlation Energy        =      -2.2804150457567518 [Eh]
	 Total Energy              =    -854.3302554060244347 [Eh]

	 ================> DF-SCS-MP2 Energies <==================
	-----------------------------------------------------------
	 SCS Same-Spin Scale       =       0.3333333333333333 [-]
	 SCS Opposite-Spin Scale   =       1.2000000000000000 [-]
	 SCS Same-Spin Energy      =      -0.1900245148223188 [Eh]
	 SCS Opposite-Spin Energy  =      -2.0524098015477539 [Eh]
	 SCS Correlation Energy    =      -2.2424343163700726 [Eh]
	 SCS Total Energy          =    -854.2922746766378168 [Eh]
	-----------------------------------------------------------

  Dipole Moment: [D]
     X:    -1.0145      Y:     0.1973      Z:     0.0429     Total:     1.0344

*** Psi4 exiting successfully. Buy a developer a beer!
