                               Psi4 1.4a3.dev225

  ==> Input File <==

--------------------------------------------------------------------------
#psi4
#
memory 32 gb

molecule  {
0 1
  S        2.3127110    -1.0235480     0.0053950
  N       -0.6038690    -1.4671430     0.0025680
  N        1.5465020     1.4501510    -0.0053670
  C       -2.6591070     0.4777660    -0.0131840
  C       -0.3303560    -0.1463500    -0.0014890
  C       -1.3149260     0.8499960    -0.0079370
  C        1.0885480     0.2076610    -0.0012920
  C       -2.9473560    -0.8932820    -0.0075970
  C       -3.7562130     1.5070280     0.0143710
  C       -1.9161787    -1.8014684    -0.0010572
  C        3.5068880     0.2049870     0.0025490
  C        2.9141540     1.4483870    -0.0033310
  H       -1.0097250     1.8934330    -0.0150530
  H       -3.9776190    -1.2428240    -0.0150370
  H       -4.0970980     1.6828510     1.0402330
  H       -3.4086480     2.4606730    -0.3912090
  H       -4.6191930     1.1768790    -0.5707550
  H       -2.1040920    -2.8844300    -0.0003970
  H        4.5630320    -0.0321470     0.0049780
  H        3.4487670     2.3922440    -0.0062430
units angstrom
no_reorient  #important for SAPT in psi4, default
symmetry c1  #important for SAPT in psi4, default
}

set PROPERTIES_ORIGIN ["COM"]
properties('MP2/aug-cc-pvtz', properties = ['dipole'])
--------------------------------------------------------------------------

    Molecular point group: c1
  Charge       = 0
  Multiplicity = 1
  Basis Set: AUG-CC-PVTZ
    Blend: AUG-CC-PVTZ
  Basis Set: (AUG-CC-PVTZ AUX)
    Blend: AUG-CC-PVTZ-JKFIT

    Orbital Energies [Eh]
    ---------------------

    Doubly Occupied:

       1A    -91.993961     2A    -15.572861     3A    -15.572278
       4A    -11.311823     5A    -11.294215     6A    -11.280706
       7A    -11.272141     8A    -11.268633     9A    -11.263678
      10A    -11.241552    11A    -11.241443    12A    -11.240030
      13A     -8.993947    14A     -6.674712    15A     -6.674160
      16A     -6.673500    17A     -1.284584    18A     -1.255232
      19A     -1.114266    20A     -1.065805    21A     -1.060414
      22A     -0.986281    23A     -0.972921    24A     -0.870937
      25A     -0.843837    26A     -0.784264    27A     -0.749178
      28A     -0.697885    29A     -0.679008    30A     -0.672357
      31A     -0.631318    32A     -0.596139    33A     -0.587816
      34A     -0.572681    35A     -0.571630    36A     -0.561410
      37A     -0.546383    38A     -0.526283    39A     -0.513328
      40A     -0.500555    41A     -0.442276    42A     -0.422461
      43A     -0.394414    44A     -0.382242    45A     -0.365240
      46A     -0.306399

  @DF-RHF Final Energy:  -852.06081563398948

   => Energetics <=

    Nuclear Repulsion Energy =            720.4698073409372228
    One-Electron Energy =               -2596.0068776519719904
    Two-Electron Energy =                1023.4762546770452900
    Total Energy =                       -852.0608156339894776
  Basis Set: (AUG-CC-PVTZ AUX)
    Blend: AUG-CC-PVTZ-RI
    Molecular point group: c1

    Geometry (in Angstrom), charge = 0, multiplicity = 1:

       Center              X                  Y                   Z               Mass
    ------------   -----------------  -----------------  -----------------  -----------------
         S            2.250934942481    -0.993913423669     0.005664430029    31.972071174400
         N           -0.665645057519    -1.437508423669     0.002837430029    14.003074004430
         N            1.484725942481     1.479785576331    -0.005097569971    14.003074004430
         C           -2.720883057519     0.507400576331    -0.012914569971    12.000000000000
         C           -0.392132057519    -0.116715423669    -0.001219569971    12.000000000000
         C           -1.376702057519     0.879630576331    -0.007667569971    12.000000000000
         C            1.026771942481     0.237295576331    -0.001022569971    12.000000000000
         C           -3.009132057519    -0.863647423669    -0.007327569971    12.000000000000
         C           -3.817989057519     1.536662576331     0.014640430029    12.000000000000
         C           -1.977954757519    -1.771833823669    -0.000787769971    12.000000000000
         C            3.445111942481     0.234621576331     0.002818430029    12.000000000000
         C            2.852377942481     1.478021576331    -0.003061569971    12.000000000000
         H           -1.071501057519     1.923067576331    -0.014783569971     1.007825032230
         H           -4.039395057519    -1.213189423669    -0.014767569971     1.007825032230
         H           -4.158874057519     1.712485576331     1.040502430029     1.007825032230
         H           -3.470424057519     2.490307576331    -0.390939569971     1.007825032230
         H           -4.680969057519     1.206513576331    -0.570485569971     1.007825032230
         H           -2.165868057519    -2.854795423669    -0.000127569971     1.007825032230
         H            4.501255942481    -0.002512423669     0.005247430029     1.007825032230
         H            3.386990942481     2.421878576331    -0.005973569971     1.007825032230

  Basis Set: AUG-CC-PVTZ
    Blend: AUG-CC-PVTZ
  Basis Set: (AUG-CC-PVTZ AUX)
    Blend: AUG-CC-PVTZ-JKFIT
	 Reference Energy          =    -852.0608156339894776 [Eh]
	 Singles Energy            =      -0.0000000000000000 [Eh]
	 Same-Spin Energy          =      -0.5691822054874920 [Eh]
	 Opposite-Spin Energy      =      -1.7094353133447129 [Eh]
	 Correlation Energy        =      -2.2786175188322049 [Eh]
	 Total Energy              =    -854.3394331528216981 [Eh]

	 ================> DF-SCS-MP2 Energies <==================
	-----------------------------------------------------------
	 SCS Same-Spin Scale       =       0.3333333333333333 [-]
	 SCS Opposite-Spin Scale   =       1.2000000000000000 [-]
	 SCS Same-Spin Energy      =      -0.1897274018291640 [Eh]
	 SCS Opposite-Spin Energy  =      -2.0513223760136552 [Eh]
	 SCS Correlation Energy    =      -2.2410497778428193 [Eh]
	 SCS Total Energy          =    -854.3018654118322956 [Eh]
	-----------------------------------------------------------

  Dipole Moment: [D]
     X:    -1.2742      Y:     0.4274      Z:     0.0421     Total:     1.3446

*** Psi4 exiting successfully. Buy a developer a beer!
