                               Psi4 1.4a3.dev225

  ==> Input File <==

--------------------------------------------------------------------------
#psi4
#
memory 32 gb

molecule  {
0 1
  S        2.3127110    -1.0235480     0.0053950
  N       -0.6038690    -1.4671430     0.0025680
  N        1.5465020     1.4501510    -0.0053670
  C       -2.6591070     0.4777660    -0.0131840
  C       -0.3303560    -0.1463500    -0.0014890
  C       -1.3149260     0.8499960    -0.0079370
  C        1.0885480     0.2076610    -0.0012920
  C       -2.9473560    -0.8932820    -0.0075970
  C       -3.7562130     1.5070280     0.0143710
  C       -1.9011700    -1.8146870    -0.0009620
  C        3.5068880     0.2049870     0.0025490
  C        2.9141540     1.4483870    -0.0033310
  H       -1.0097250     1.8934330    -0.0150530
  H       -3.9776190    -1.2428240    -0.0150370
  H       -4.0970980     1.6828510     1.0402330
  H       -3.4086480     2.4606730    -0.3912090
  H       -4.6191930     1.1768790    -0.5707550
  H       -2.1040920    -2.8844300    -0.0003970
  H        4.5630320    -0.0321470     0.0049780
  H        3.3501982     2.2182213    -0.0057061
units angstrom
no_reorient  #important for SAPT in psi4, default
symmetry c1  #important for SAPT in psi4, default
}

set PROPERTIES_ORIGIN ["COM"]
properties('MP2/aug-cc-pvtz', properties = ['dipole'])
--------------------------------------------------------------------------

    Molecular point group: c1
  Charge       = 0
  Multiplicity = 1
  Basis Set: AUG-CC-PVTZ
    Blend: AUG-CC-PVTZ
  Basis Set: (AUG-CC-PVTZ AUX)
    Blend: AUG-CC-PVTZ-JKFIT

    Orbital Energies [Eh]
    ---------------------

    Doubly Occupied:

       1A    -91.993200     2A    -15.571537     3A    -15.571204
       4A    -11.310653     5A    -11.293531     6A    -11.281623
       7A    -11.271353     8A    -11.263149     9A    -11.245391
      10A    -11.243136    11A    -11.241653    12A    -11.239615
      13A     -8.993212    14A     -6.673979    15A     -6.673429
      16A     -6.672779    17A     -1.284438    18A     -1.256448
      19A     -1.113631    20A     -1.066696    21A     -1.060414
      22A     -0.994112    23A     -0.972750    24A     -0.877719
      25A     -0.843613    26A     -0.803055    27A     -0.754577
      28A     -0.703034    29A     -0.684818    30A     -0.673803
      31A     -0.641739    32A     -0.595742    33A     -0.595434
      34A     -0.572193    35A     -0.572007    36A     -0.561856
      37A     -0.546635    38A     -0.526028    39A     -0.514828
      40A     -0.506200    41A     -0.441300    42A     -0.420711
      43A     -0.393008    44A     -0.381386    45A     -0.366115
      46A     -0.304824

  @DF-RHF Final Energy:  -852.02619998913417

   => Energetics <=

    Nuclear Repulsion Energy =            721.6151610065060140
    One-Electron Energy =               -2598.1456003652479012
    Two-Electron Energy =                1024.5042393696076033
    Total Energy =                       -852.0261999891342839
  Basis Set: (AUG-CC-PVTZ AUX)
    Blend: AUG-CC-PVTZ-RI
    Molecular point group: c1

    Geometry (in Angstrom), charge = 0, multiplicity = 1:

       Center              X                  Y                   Z               Mass
    ------------   -----------------  -----------------  -----------------  -----------------
         S            2.250476160840    -0.992016093070     0.005654866899    31.972071174400
         N           -0.666103839160    -1.435611093070     0.002827866899    14.003074004430
         N            1.484267160840     1.481682906930    -0.005107133101    14.003074004430
         C           -2.721341839160     0.509297906930    -0.012924133101    12.000000000000
         C           -0.392590839160    -0.114818093070    -0.001229133101    12.000000000000
         C           -1.377160839160     0.881527906930    -0.007677133101    12.000000000000
         C            1.026313160840     0.239192906930    -0.001032133101    12.000000000000
         C           -3.009590839160    -0.861750093070    -0.007337133101    12.000000000000
         C           -3.818447839160     1.538559906930     0.014630866899    12.000000000000
         C           -1.963404839160    -1.783155093070    -0.000702133101    12.000000000000
         C            3.444653160840     0.236518906930     0.002808866899    12.000000000000
         C            2.851919160840     1.479918906930    -0.003071133101    12.000000000000
         H           -1.071959839160     1.924964906930    -0.014793133101     1.007825032230
         H           -4.039853839160    -1.211292093070    -0.014777133101     1.007825032230
         H           -4.159332839160     1.714382906930     1.040492866899     1.007825032230
         H           -3.470882839160     2.492204906930    -0.390949133101     1.007825032230
         H           -4.681427839160     1.208410906930    -0.570495133101     1.007825032230
         H           -2.166326839160    -2.852898093070    -0.000137133101     1.007825032230
         H            4.500797160840    -0.000615093070     0.005237866899     1.007825032230
         H            3.287963360840     2.249753206930    -0.005446233101     1.007825032230

  Basis Set: AUG-CC-PVTZ
    Blend: AUG-CC-PVTZ
  Basis Set: (AUG-CC-PVTZ AUX)
    Blend: AUG-CC-PVTZ-JKFIT
	 Reference Energy          =    -852.0261999891341702 [Eh]
	 Singles Energy            =      -0.0000000000000000 [Eh]
	 Same-Spin Energy          =      -0.5688862545464366 [Eh]
	 Opposite-Spin Energy      =      -1.7088726013913940 [Eh]
	 Correlation Energy        =      -2.2777588559378303 [Eh]
	 Total Energy              =    -854.3039588450719748 [Eh]

	 ================> DF-SCS-MP2 Energies <==================
	-----------------------------------------------------------
	 SCS Same-Spin Scale       =       0.3333333333333333 [-]
	 SCS Opposite-Spin Scale   =       1.2000000000000000 [-]
	 SCS Same-Spin Energy      =      -0.1896287515154789 [Eh]
	 SCS Opposite-Spin Energy  =      -2.0506471216696727 [Eh]
	 SCS Correlation Energy    =      -2.2402758731851513 [Eh]
	 SCS Total Energy          =    -854.2664758623193393 [Eh]
	-----------------------------------------------------------

  Dipole Moment: [D]
     X:    -1.2477      Y:     0.3889      Z:     0.0421     Total:     1.3075

*** Psi4 exiting successfully. Buy a developer a beer!
