                               Psi4 1.4a3.dev225

  ==> Input File <==

--------------------------------------------------------------------------
#psi4
#
memory 32 gb

molecule  {
0 1
  S        2.3127110    -1.0235480     0.0053950
  N       -0.6038690    -1.4671430     0.0025680
  N        1.5465020     1.4501510    -0.0053670
  C       -2.6591070     0.4777660    -0.0131840
  C       -0.3303560    -0.1463500    -0.0014890
  C       -1.3149260     0.8499960    -0.0079370
  C        1.0885480     0.2076610    -0.0012920
  C       -2.9473560    -0.8932820    -0.0075970
  C       -3.7562130     1.5070280     0.0143710
  C       -1.9011700    -1.8146870    -0.0009620
  C        3.5068880     0.2049870     0.0025490
  C        2.9141540     1.4483870    -0.0033310
  H       -1.0097250     1.8934330    -0.0150530
  H       -3.9776190    -1.2428240    -0.0150370
  H       -4.0970980     1.6828510     1.0402330
  H       -3.3768500     2.5479201    -0.4283147
  H       -4.6191930     1.1768790    -0.5707550
  H       -2.1040920    -2.8844300    -0.0003970
  H        4.5630320    -0.0321470     0.0049780
  H        3.4487670     2.3922440    -0.0062430
units angstrom
no_reorient  #important for SAPT in psi4, default
symmetry c1  #important for SAPT in psi4, default
}

set PROPERTIES_ORIGIN ["COM"]
properties('MP2/aug-cc-pvtz', properties = ['dipole'])
--------------------------------------------------------------------------

    Molecular point group: c1
  Charge       = 0
  Multiplicity = 1
  Basis Set: AUG-CC-PVTZ
    Blend: AUG-CC-PVTZ
  Basis Set: (AUG-CC-PVTZ AUX)
    Blend: AUG-CC-PVTZ-JKFIT

    Orbital Energies [Eh]
    ---------------------

    Doubly Occupied:

       1A    -91.993871     2A    -15.572533     3A    -15.572252
       4A    -11.311843     5A    -11.294149     6A    -11.282369
       7A    -11.272545     8A    -11.268558     9A    -11.263442
      10A    -11.251308    11A    -11.244211    12A    -11.242179
      13A     -8.993860    14A     -6.674625    15A     -6.674075
      16A     -6.673414    17A     -1.284935    18A     -1.256879
      19A     -1.113467    20A     -1.065500    21A     -1.060404
      22A     -0.984262    23A     -0.967041    24A     -0.872309
      25A     -0.842284    26A     -0.783755    27A     -0.749345
      28A     -0.697132    29A     -0.678620    30A     -0.671066
      31A     -0.633507    32A     -0.595421    33A     -0.587770
      34A     -0.572864    35A     -0.571789    36A     -0.552110
      37A     -0.543593    38A     -0.526268    39A     -0.511621
      40A     -0.500419    41A     -0.441434    42A     -0.421532
      43A     -0.393724    44A     -0.381916    45A     -0.366487
      46A     -0.305173

  @DF-RHF Final Energy:  -852.05487831898131

   => Energetics <=

    Nuclear Repulsion Energy =            719.9662570153966499
    One-Electron Energy =               -2595.0065503398418514
    Two-Electron Energy =                1022.9854150054638922
    Total Energy =                       -852.0548783189813093
  Basis Set: (AUG-CC-PVTZ AUX)
    Blend: AUG-CC-PVTZ-RI
    Molecular point group: c1

    Geometry (in Angstrom), charge = 0, multiplicity = 1:

       Center              X                  Y                   Z               Mass
    ------------   -----------------  -----------------  -----------------  -----------------
         S            2.249729817323    -0.993511849824     0.005870368933    31.972071174400
         N           -0.666850182677    -1.437106849824     0.003043368933    14.003074004430
         N            1.483520817323     1.480187150176    -0.004891631067    14.003074004430
         C           -2.722088182677     0.507802150176    -0.012708631067    12.000000000000
         C           -0.393337182677    -0.116313849824    -0.001013631067    12.000000000000
         C           -1.377907182677     0.880032150176    -0.007461631067    12.000000000000
         C            1.025566817323     0.237697150176    -0.000816631067    12.000000000000
         C           -3.010337182677    -0.863245849824    -0.007121631067    12.000000000000
         C           -3.819194182677     1.537064150176     0.014846368933    12.000000000000
         C           -1.964151182677    -1.784650849824    -0.000486631067    12.000000000000
         C            3.443906817323     0.235023150176     0.003024368933    12.000000000000
         C            2.851172817323     1.478423150176    -0.002855631067    12.000000000000
         H           -1.072706182677     1.923469150176    -0.014577631067     1.007825032230
         H           -4.040600182677    -1.212787849824    -0.014561631067     1.007825032230
         H           -4.160079182677     1.712887150176     1.040708368933     1.007825032230
         H           -3.439831182677     2.577956250176    -0.427839331067     1.007825032230
         H           -4.682174182677     1.206915150176    -0.570279631067     1.007825032230
         H           -2.167073182677    -2.854393849824     0.000078368933     1.007825032230
         H            4.500050817323    -0.002110849824     0.005453368933     1.007825032230
         H            3.385785817323     2.422280150176    -0.005767631067     1.007825032230

  Basis Set: AUG-CC-PVTZ
    Blend: AUG-CC-PVTZ
  Basis Set: (AUG-CC-PVTZ AUX)
    Blend: AUG-CC-PVTZ-JKFIT
	 Reference Energy          =    -852.0548783189813093 [Eh]
	 Singles Energy            =      -0.0000000000000000 [Eh]
	 Same-Spin Energy          =      -0.5691919376813082 [Eh]
	 Opposite-Spin Energy      =      -1.7100446631910047 [Eh]
	 Correlation Energy        =      -2.2792366008723128 [Eh]
	 Total Energy              =    -854.3341149198536186 [Eh]

	 ================> DF-SCS-MP2 Energies <==================
	-----------------------------------------------------------
	 SCS Same-Spin Scale       =       0.3333333333333333 [-]
	 SCS Opposite-Spin Scale   =       1.2000000000000000 [-]
	 SCS Same-Spin Energy      =      -0.1897306458937694 [Eh]
	 SCS Opposite-Spin Energy  =      -2.0520535958292054 [Eh]
	 SCS Correlation Energy    =      -2.2417842417229750 [Eh]
	 SCS Total Energy          =    -854.2966625607042488 [Eh]
	-----------------------------------------------------------

  Dipole Moment: [D]
     X:    -1.2659      Y:     0.3443      Z:     0.0559     Total:     1.3130

*** Psi4 exiting successfully. Buy a developer a beer!
