                               Psi4 1.4a3.dev225

  ==> Input File <==

--------------------------------------------------------------------------
#psi4
#
memory 32 gb

molecule  {
0 1
  S        2.3127110    -1.0235480     0.0053950
  N       -0.6038690    -1.4671430     0.0025680
  N        1.5465020     1.4501510    -0.0053670
  C       -2.6591070     0.4777660    -0.0131840
  C       -0.3303560    -0.1463500    -0.0014890
  C       -1.3149260     0.8499960    -0.0079370
  C        1.0532945     0.2431174    -0.0014846
  C       -2.9473560    -0.8932820    -0.0075970
  C       -3.7562130     1.5070280     0.0143710
  C       -1.9011700    -1.8146870    -0.0009620
  C        3.5068880     0.2049870     0.0025490
  C        2.9141540     1.4483870    -0.0033310
  H       -1.0097250     1.8934330    -0.0150530
  H       -3.9776190    -1.2428240    -0.0150370
  H       -4.0970980     1.6828510     1.0402330
  H       -3.4086480     2.4606730    -0.3912090
  H       -4.6191930     1.1768790    -0.5707550
  H       -2.1040920    -2.8844300    -0.0003970
  H        4.5630320    -0.0321470     0.0049780
  H        3.4487670     2.3922440    -0.0062430
units angstrom
no_reorient  #important for SAPT in psi4, default
symmetry c1  #important for SAPT in psi4, default
}

set PROPERTIES_ORIGIN ["COM"]
properties('MP2/aug-cc-pvtz', properties = ['dipole'])
--------------------------------------------------------------------------

    Molecular point group: c1
  Charge       = 0
  Multiplicity = 1
  Basis Set: AUG-CC-PVTZ
    Blend: AUG-CC-PVTZ
  Basis Set: (AUG-CC-PVTZ AUX)
    Blend: AUG-CC-PVTZ-JKFIT

    Orbital Energies [Eh]
    ---------------------

    Doubly Occupied:

       1A    -91.989053     2A    -15.573603     3A    -15.573110
       4A    -11.312646     5A    -11.293300     6A    -11.283162
       7A    -11.272340     8A    -11.268207     9A    -11.265040
      10A    -11.244728    11A    -11.242952    12A    -11.240420
      13A     -8.988483    14A     -6.669249    15A     -6.668623
      16A     -6.668026    17A     -1.287660    18A     -1.258439
      19A     -1.114771    20A     -1.069829    21A     -1.056743
      22A     -0.982925    23A     -0.972849    24A     -0.874873
      25A     -0.847050    26A     -0.785776    27A     -0.749334
      28A     -0.696872    29A     -0.680842    30A     -0.672084
      31A     -0.636404    32A     -0.596928    33A     -0.594675
      34A     -0.573618    35A     -0.569836    36A     -0.563529
      37A     -0.545449    38A     -0.526510    39A     -0.517363
      40A     -0.497299    41A     -0.438688    42A     -0.417108
      43A     -0.397602    44A     -0.381163    45A     -0.366146
      46A     -0.303392

  @DF-RHF Final Energy:  -852.05987802055358

   => Energetics <=

    Nuclear Repulsion Energy =            720.1623017403840095
    One-Electron Energy =               -2595.3869632745399940
    Two-Electron Energy =                1023.1647835136024014
    Total Energy =                       -852.0598780205535832
  Basis Set: (AUG-CC-PVTZ AUX)
    Blend: AUG-CC-PVTZ-RI
    Molecular point group: c1

    Geometry (in Angstrom), charge = 0, multiplicity = 1:

       Center              X                  Y                   Z               Mass
    ------------   -----------------  -----------------  -----------------  -----------------
         S            2.252314949690    -0.995429285733     0.005671069398    31.972071174400
         N           -0.664265050310    -1.439024285733     0.002844069398    14.003074004430
         N            1.486105949690     1.478269714267    -0.005090930602    14.003074004430
         C           -2.719503050310     0.505884714267    -0.012907930602    12.000000000000
         C           -0.390752050310    -0.118231285733    -0.001212930602    12.000000000000
         C           -1.375322050310     0.878114714267    -0.007660930602    12.000000000000
         C            0.992898449690     0.271236114267    -0.001208530602    12.000000000000
         C           -3.007752050310    -0.865163285733    -0.007320930602    12.000000000000
         C           -3.816609050310     1.535146714267     0.014647069398    12.000000000000
         C           -1.961566050310    -1.786568285733    -0.000685930602    12.000000000000
         C            3.446491949690     0.233105714267     0.002825069398    12.000000000000
         C            2.853757949690     1.476505714267    -0.003054930602    12.000000000000
         H           -1.070121050310     1.921551714267    -0.014776930602     1.007825032230
         H           -4.038015050310    -1.214705285733    -0.014760930602     1.007825032230
         H           -4.157494050310     1.710969714267     1.040509069398     1.007825032230
         H           -3.469044050310     2.488791714267    -0.390932930602     1.007825032230
         H           -4.679589050310     1.204997714267    -0.570478930602     1.007825032230
         H           -2.164488050310    -2.856311285733    -0.000120930602     1.007825032230
         H            4.502635949690    -0.004028285733     0.005254069398     1.007825032230
         H            3.388370949690     2.420362714267    -0.005966930602     1.007825032230

  Basis Set: AUG-CC-PVTZ
    Blend: AUG-CC-PVTZ
  Basis Set: (AUG-CC-PVTZ AUX)
    Blend: AUG-CC-PVTZ-JKFIT
	 Reference Energy          =    -852.0598780205535832 [Eh]
	 Singles Energy            =      -0.0000000000000000 [Eh]
	 Same-Spin Energy          =      -0.5690629763473716 [Eh]
	 Opposite-Spin Energy      =      -1.7093180710575206 [Eh]
	 Correlation Energy        =      -2.2783810474048920 [Eh]
	 Total Energy              =    -854.3382590679584609 [Eh]

	 ================> DF-SCS-MP2 Energies <==================
	-----------------------------------------------------------
	 SCS Same-Spin Scale       =       0.3333333333333333 [-]
	 SCS Opposite-Spin Scale   =       1.2000000000000000 [-]
	 SCS Same-Spin Energy      =      -0.1896876587824572 [Eh]
	 SCS Opposite-Spin Energy  =      -2.0511816852690248 [Eh]
	 SCS Correlation Energy    =      -2.2408693440514820 [Eh]
	 SCS Total Energy          =    -854.3007473646050585 [Eh]
	-----------------------------------------------------------

  Dipole Moment: [D]
     X:    -1.4545      Y:     0.5150      Z:     0.0415     Total:     1.5436

*** Psi4 exiting successfully. Buy a developer a beer!
