                               Psi4 1.4a3.dev225

  ==> Input File <==

--------------------------------------------------------------------------
#psi4
#
memory 32 gb

molecule  {
0 1
  S        2.3127110    -1.0235480     0.0053950
  N       -0.6038690    -1.4671430     0.0025680
  N        1.5465020     1.4501510    -0.0053670
  C       -2.6591070     0.4777660    -0.0131840
  C       -0.3303560    -0.1463500    -0.0014890
  C       -1.3149260     0.8499960    -0.0079370
  C        1.1058397     0.2545756    -0.0014459
  C       -2.9473560    -0.8932820    -0.0075970
  C       -3.7562130     1.5070280     0.0143710
  C       -1.9011700    -1.8146870    -0.0009620
  C        3.5068880     0.2049870     0.0025490
  C        2.9141540     1.4483870    -0.0033310
  H       -1.0097250     1.8934330    -0.0150530
  H       -3.9776190    -1.2428240    -0.0150370
  H       -4.0970980     1.6828510     1.0402330
  H       -3.4086480     2.4606730    -0.3912090
  H       -4.6191930     1.1768790    -0.5707550
  H       -2.1040920    -2.8844300    -0.0003970
  H        4.5630320    -0.0321470     0.0049780
  H        3.4487670     2.3922440    -0.0062430
units angstrom
no_reorient  #important for SAPT in psi4, default
symmetry c1  #important for SAPT in psi4, default
}

set PROPERTIES_ORIGIN ["COM"]
properties('MP2/aug-cc-pvtz', properties = ['dipole'])
--------------------------------------------------------------------------

    Molecular point group: c1
  Charge       = 0
  Multiplicity = 1
  Basis Set: AUG-CC-PVTZ
    Blend: AUG-CC-PVTZ
  Basis Set: (AUG-CC-PVTZ AUX)
    Blend: AUG-CC-PVTZ-JKFIT

    Orbital Energies [Eh]
    ---------------------

    Doubly Occupied:

       1A    -91.989325     2A    -15.572615     3A    -15.570295
       4A    -11.310543     5A    -11.295570     6A    -11.282284
       7A    -11.271513     8A    -11.268211     9A    -11.264046
      10A    -11.243358    11A    -11.241418    12A    -11.239791
      13A     -8.989406    14A     -6.670184    15A     -6.669554
      16A     -6.668885    17A     -1.296768    18A     -1.259503
      19A     -1.113622    20A     -1.067262    21A     -1.057514
      22A     -0.983700    23A     -0.972320    24A     -0.868981
      25A     -0.843238    26A     -0.789903    27A     -0.746521
      28A     -0.698715    29A     -0.679108    30A     -0.671396
      31A     -0.634222    32A     -0.596096    33A     -0.590111
      34A     -0.576053    35A     -0.570237    36A     -0.562326
      37A     -0.546410    38A     -0.528108    39A     -0.513916
      40A     -0.499533    41A     -0.442524    42A     -0.418078
      43A     -0.397872    44A     -0.380192    45A     -0.364957
      46A     -0.308148

  @DF-RHF Final Energy:  -852.06229628282915

   => Energetics <=

    Nuclear Repulsion Energy =            720.3328104121118258
    One-Electron Energy =               -2595.7415542387780079
    Two-Electron Energy =                1023.3464475438369163
    Total Energy =                       -852.0622962828291520
  Basis Set: (AUG-CC-PVTZ AUX)
    Blend: AUG-CC-PVTZ-RI
    Molecular point group: c1

    Geometry (in Angstrom), charge = 0, multiplicity = 1:

       Center              X                  Y                   Z               Mass
    ------------   -----------------  -----------------  -----------------  -----------------
         S            2.248733153139    -0.996210345492     0.005668431374    31.972071174400
         N           -0.667846846861    -1.439805345492     0.002841431374    14.003074004430
         N            1.482524153139     1.477488654508    -0.005093568626    14.003074004430
         C           -2.723084846861     0.505103654508    -0.012910568626    12.000000000000
         C           -0.394333846861    -0.119012345492    -0.001215568626    12.000000000000
         C           -1.378903846861     0.877333654508    -0.007663568626    12.000000000000
         C            1.041861853139     0.281913254508    -0.001172468626    12.000000000000
         C           -3.011333846861    -0.865944345492    -0.007323568626    12.000000000000
         C           -3.820190846861     1.534365654508     0.014644431374    12.000000000000
         C           -1.965147846861    -1.787349345492    -0.000688568626    12.000000000000
         C            3.442910153139     0.232324654508     0.002822431374    12.000000000000
         C            2.850176153139     1.475724654508    -0.003057568626    12.000000000000
         H           -1.073702846861     1.920770654508    -0.014779568626     1.007825032230
         H           -4.041596846861    -1.215486345492    -0.014763568626     1.007825032230
         H           -4.161075846861     1.710188654508     1.040506431374     1.007825032230
         H           -3.472625846861     2.488010654508    -0.390935568626     1.007825032230
         H           -4.683170846861     1.204216654508    -0.570481568626     1.007825032230
         H           -2.168069846861    -2.857092345492    -0.000123568626     1.007825032230
         H            4.499054153139    -0.004809345492     0.005251431374     1.007825032230
         H            3.384789153139     2.419581654508    -0.005969568626     1.007825032230

  Basis Set: AUG-CC-PVTZ
    Blend: AUG-CC-PVTZ
  Basis Set: (AUG-CC-PVTZ AUX)
    Blend: AUG-CC-PVTZ-JKFIT
	 Reference Energy          =    -852.0622962828291520 [Eh]
	 Singles Energy            =      -0.0000000000000000 [Eh]
	 Same-Spin Energy          =      -0.5676401915888845 [Eh]
	 Opposite-Spin Energy      =      -1.7072334173592405 [Eh]
	 Correlation Energy        =      -2.2748736089481252 [Eh]
	 Total Energy              =    -854.3371698917773074 [Eh]

	 ================> DF-SCS-MP2 Energies <==================
	-----------------------------------------------------------
	 SCS Same-Spin Scale       =       0.3333333333333333 [-]
	 SCS Opposite-Spin Scale   =       1.2000000000000000 [-]
	 SCS Same-Spin Energy      =      -0.1892133971962948 [Eh]
	 SCS Opposite-Spin Energy  =      -2.0486801008310884 [Eh]
	 SCS Correlation Energy    =      -2.2378934980273830 [Eh]
	 SCS Total Energy          =    -854.3001897808564991 [Eh]
	-----------------------------------------------------------

  Dipole Moment: [D]
     X:    -1.4064      Y:     0.4823      Z:     0.0416     Total:     1.4874

*** Psi4 exiting successfully. Buy a developer a beer!
