                               Psi4 1.4a3.dev225

  ==> Input File <==

--------------------------------------------------------------------------
#psi4
#
memory 32 gb

molecule  {
0 1
  S        2.3127110    -1.0235480     0.0053950
  N       -0.6038690    -1.4671430     0.0025680
  N        1.5465020     1.4501510    -0.0053670
  C       -2.6591070     0.4777660    -0.0131840
  C       -0.3303560    -0.1463500    -0.0014890
  C       -1.3149260     0.8499960    -0.0079370
  C        1.1577146     0.3953192    -0.0019075
  C       -2.9473560    -0.8932820    -0.0075970
  C       -3.7562130     1.5070280     0.0143710
  C       -1.9011700    -1.8146870    -0.0009620
  C        3.5068880     0.2049870     0.0025490
  C        2.9141540     1.4483870    -0.0033310
  H       -1.0097250     1.8934330    -0.0150530
  H       -3.9776190    -1.2428240    -0.0150370
  H       -4.0970980     1.6828510     1.0402330
  H       -3.4086480     2.4606730    -0.3912090
  H       -4.6191930     1.1768790    -0.5707550
  H       -2.1040920    -2.8844300    -0.0003970
  H        4.5630320    -0.0321470     0.0049780
  H        3.4487670     2.3922440    -0.0062430
units angstrom
no_reorient  #important for SAPT in psi4, default
symmetry c1  #important for SAPT in psi4, default
}

set PROPERTIES_ORIGIN ["COM"]
properties('MP2/aug-cc-pvtz', properties = ['dipole'])
--------------------------------------------------------------------------

    Molecular point group: c1
  Charge       = 0
  Multiplicity = 1
  Basis Set: AUG-CC-PVTZ
    Blend: AUG-CC-PVTZ
  Basis Set: (AUG-CC-PVTZ AUX)
    Blend: AUG-CC-PVTZ-JKFIT

    Orbital Energies [Eh]
    ---------------------

    Doubly Occupied:

       1A    -91.974417     2A    -15.573979     3A    -15.561738
       4A    -11.304177     5A    -11.298371     6A    -11.282956
       7A    -11.270973     8A    -11.269566     9A    -11.267307
      10A    -11.242761    11A    -11.239650    12A    -11.239606
      13A     -8.974908    14A     -6.655713    15A     -6.654847
      16A     -6.654162    17A     -1.356529    18A     -1.260075
      19A     -1.112779    20A     -1.078181    21A     -1.047396
      22A     -0.979033    23A     -0.971306    24A     -0.861980
      25A     -0.839805    26A     -0.806577    27A     -0.735039
      28A     -0.705275    29A     -0.679021    30A     -0.671418
      31A     -0.635608    32A     -0.606255    33A     -0.598314
      34A     -0.590728    35A     -0.568160    36A     -0.562506
      37A     -0.546436    38A     -0.531888    39A     -0.515606
      40A     -0.495585    41A     -0.440155    42A     -0.413715
      43A     -0.398279    44A     -0.376882    45A     -0.360228
      46A     -0.313908

  @DF-RHF Final Energy:  -852.01141050311742

   => Energetics <=

    Nuclear Repulsion Energy =            720.5873965010496249
    One-Electron Energy =               -2596.1500176278177605
    Two-Electron Energy =                1023.5512106236507179
    Total Energy =                       -852.0114105031174176
  Basis Set: (AUG-CC-PVTZ AUX)
    Blend: AUG-CC-PVTZ-RI
    Molecular point group: c1

    Geometry (in Angstrom), charge = 0, multiplicity = 1:

       Center              X                  Y                   Z               Mass
    ------------   -----------------  -----------------  -----------------  -----------------
         S            2.245197048263    -1.005804274930     0.005699896803    31.972071174400
         N           -0.671382951737    -1.449399274930     0.002872896803    14.003074004430
         N            1.478988048263     1.467894725070    -0.005062103197    14.003074004430
         C           -2.726620951737     0.495509725070    -0.012879103197    12.000000000000
         C           -0.397869951737    -0.128606274930    -0.001184103197    12.000000000000
         C           -1.382439951737     0.867739725070    -0.007632103197    12.000000000000
         C            1.090200648263     0.413062925070    -0.001602603197    12.000000000000
         C           -3.014869951737    -0.875538274930    -0.007292103197    12.000000000000
         C           -3.823726951737     1.524771725070     0.014675896803    12.000000000000
         C           -1.968683951737    -1.796943274930    -0.000657103197    12.000000000000
         C            3.439374048263     0.222730725070     0.002853896803    12.000000000000
         C            2.846640048263     1.466130725070    -0.003026103197    12.000000000000
         H           -1.077238951737     1.911176725070    -0.014748103197     1.007825032230
         H           -4.045132951737    -1.225080274930    -0.014732103197     1.007825032230
         H           -4.164611951737     1.700594725070     1.040537896803     1.007825032230
         H           -3.476161951737     2.478416725070    -0.390904103197     1.007825032230
         H           -4.686706951737     1.194622725070    -0.570450103197     1.007825032230
         H           -2.171605951737    -2.866686274930    -0.000092103197     1.007825032230
         H            4.495518048263    -0.014403274930     0.005282896803     1.007825032230
         H            3.381253048263     2.409987725070    -0.005938103197     1.007825032230

  Basis Set: AUG-CC-PVTZ
    Blend: AUG-CC-PVTZ
  Basis Set: (AUG-CC-PVTZ AUX)
    Blend: AUG-CC-PVTZ-JKFIT
	 Reference Energy          =    -852.0114105031174176 [Eh]
	 Singles Energy            =      -0.0000000000000000 [Eh]
	 Same-Spin Energy          =      -0.5643157776624101 [Eh]
	 Opposite-Spin Energy      =      -1.7032864477603065 [Eh]
	 Correlation Energy        =      -2.2676022254227166 [Eh]
	 Total Energy              =    -854.2790127285401240 [Eh]

	 ================> DF-SCS-MP2 Energies <==================
	-----------------------------------------------------------
	 SCS Same-Spin Scale       =       0.3333333333333333 [-]
	 SCS Opposite-Spin Scale   =       1.2000000000000000 [-]
	 SCS Same-Spin Energy      =      -0.1881052592208034 [Eh]
	 SCS Opposite-Spin Energy  =      -2.0439437373123677 [Eh]
	 SCS Correlation Energy    =      -2.2320489965331709 [Eh]
	 SCS Total Energy          =    -854.2434594996506121 [Eh]
	-----------------------------------------------------------

  Dipole Moment: [D]
     X:    -1.7658      Y:     0.9270      Z:     0.0396     Total:     1.9947

*** Psi4 exiting successfully. Buy a developer a beer!
