                               Psi4 1.4a3.dev225

  ==> Input File <==

--------------------------------------------------------------------------
#psi4
#
memory 32 gb

molecule  {
0 1
  S        2.3127110    -1.0235480     0.0053950
  N       -0.6038690    -1.4671430     0.0025680
  N        1.5465020     1.4501510    -0.0053670
  C       -2.6591070     0.4777660    -0.0131840
  C       -0.3303560    -0.1463500    -0.0014890
  C       -1.2667398     0.8633397    -0.0077489
  C        1.0885480     0.2076610    -0.0012920
  C       -2.9473560    -0.8932820    -0.0075970
  C       -3.7562130     1.5070280     0.0143710
  C       -1.9011700    -1.8146870    -0.0009620
  C        3.5068880     0.2049870     0.0025490
  C        2.9141540     1.4483870    -0.0033310
  H       -1.0097250     1.8934330    -0.0150530
  H       -3.9776190    -1.2428240    -0.0150370
  H       -4.0970980     1.6828510     1.0402330
  H       -3.4086480     2.4606730    -0.3912090
  H       -4.6191930     1.1768790    -0.5707550
  H       -2.1040920    -2.8844300    -0.0003970
  H        4.5630320    -0.0321470     0.0049780
  H        3.4487670     2.3922440    -0.0062430
units angstrom
no_reorient  #important for SAPT in psi4, default
symmetry c1  #important for SAPT in psi4, default
}

set PROPERTIES_ORIGIN ["COM"]
properties('MP2/aug-cc-pvtz', properties = ['dipole'])
--------------------------------------------------------------------------

    Molecular point group: c1
  Charge       = 0
  Multiplicity = 1
  Basis Set: AUG-CC-PVTZ
    Blend: AUG-CC-PVTZ
  Basis Set: (AUG-CC-PVTZ AUX)
    Blend: AUG-CC-PVTZ-JKFIT

    Orbital Energies [Eh]
    ---------------------

    Doubly Occupied:

       1A    -91.992175     2A    -15.571271     3A    -15.570517
       4A    -11.309824     5A    -11.290418     6A    -11.284222
       7A    -11.278559     8A    -11.267307     9A    -11.261653
      10A    -11.243667    11A    -11.242784    12A    -11.241292
      13A     -8.992201    14A     -6.672972    15A     -6.672416
      16A     -6.671762    17A     -1.283892    18A     -1.255731
      19A     -1.108672    20A     -1.067560    21A     -1.059556
      22A     -0.983638    23A     -0.973918    24A     -0.869880
      25A     -0.844735    26A     -0.783122    27A     -0.747517
      28A     -0.697350    29A     -0.680776    30A     -0.670554
      31A     -0.638446    32A     -0.595754    33A     -0.589038
      34A     -0.572452    35A     -0.570562    36A     -0.564367
      37A     -0.546754    38A     -0.526163    39A     -0.508866
      40A     -0.499788    41A     -0.440990    42A     -0.422228
      43A     -0.393788    44A     -0.379410    45A     -0.363789
      46A     -0.305531

  @DF-RHF Final Energy:  -852.05849991928403

   => Energetics <=

    Nuclear Repulsion Energy =            720.2894334740844897
    One-Electron Energy =               -2595.6801310033833943
    Two-Electron Energy =                1023.3321976100148731
    Total Energy =                       -852.0584999192840314
  Basis Set: (AUG-CC-PVTZ AUX)
    Blend: AUG-CC-PVTZ-RI
    Molecular point group: c1

    Geometry (in Angstrom), charge = 0, multiplicity = 1:

       Center              X                  Y                   Z               Mass
    ------------   -----------------  -----------------  -----------------  -----------------
         S            2.246627198388    -0.993921951236     0.005645118599    31.972071174400
         N           -0.669952801612    -1.437516951236     0.002818118599    14.003074004430
         N            1.480418198388     1.479777048764    -0.005116881401    14.003074004430
         C           -2.725190801612     0.507392048764    -0.012933881401    12.000000000000
         C           -0.396439801612    -0.116723951236    -0.001238881401    12.000000000000
         C           -1.332823601612     0.892965748764    -0.007498781401    12.000000000000
         C            1.022464198388     0.237287048764    -0.001041881401    12.000000000000
         C           -3.013439801612    -0.863655951236    -0.007346881401    12.000000000000
         C           -3.822296801612     1.536654048764     0.014621118599    12.000000000000
         C           -1.967253801612    -1.785060951236    -0.000711881401    12.000000000000
         C            3.440804198388     0.234613048764     0.002799118599    12.000000000000
         C            2.848070198388     1.478013048764    -0.003080881401    12.000000000000
         H           -1.075808801612     1.923059048764    -0.014802881401     1.007825032230
         H           -4.043702801612    -1.213197951236    -0.014786881401     1.007825032230
         H           -4.163181801612     1.712477048764     1.040483118599     1.007825032230
         H           -3.474731801612     2.490299048764    -0.390958881401     1.007825032230
         H           -4.685276801612     1.206505048764    -0.570504881401     1.007825032230
         H           -2.170175801612    -2.854803951236    -0.000146881401     1.007825032230
         H            4.496948198388    -0.002520951236     0.005228118599     1.007825032230
         H            3.382683198388     2.421870048764    -0.005992881401     1.007825032230

  Basis Set: AUG-CC-PVTZ
    Blend: AUG-CC-PVTZ
  Basis Set: (AUG-CC-PVTZ AUX)
    Blend: AUG-CC-PVTZ-JKFIT
	 Reference Energy          =    -852.0584999192840314 [Eh]
	 Singles Energy            =      -0.0000000000000000 [Eh]
	 Same-Spin Energy          =      -0.5689751980593413 [Eh]
	 Opposite-Spin Energy      =      -1.7092937036089020 [Eh]
	 Correlation Energy        =      -2.2782689016682434 [Eh]
	 Total Energy              =    -854.3367688209523294 [Eh]

	 ================> DF-SCS-MP2 Energies <==================
	-----------------------------------------------------------
	 SCS Same-Spin Scale       =       0.3333333333333333 [-]
	 SCS Opposite-Spin Scale   =       1.2000000000000000 [-]
	 SCS Same-Spin Energy      =      -0.1896583993531137 [Eh]
	 SCS Opposite-Spin Energy  =      -2.0511524443306821 [Eh]
	 SCS Correlation Energy    =      -2.2408108436837959 [Eh]
	 SCS Total Energy          =    -854.2993107629678207 [Eh]
	-----------------------------------------------------------

  Dipole Moment: [D]
     X:    -1.3931      Y:     0.3989      Z:     0.0434     Total:     1.4497

*** Psi4 exiting successfully. Buy a developer a beer!
