                               Psi4 1.4a3.dev225

  ==> Input File <==

--------------------------------------------------------------------------
#psi4
#
memory 32 gb

molecule  {
0 1
  S        2.3127110    -1.0235480     0.0053950
  N       -0.6038690    -1.4671430     0.0025680
  N        1.5465020     1.4501510    -0.0053670
  C       -2.6591070     0.4777660    -0.0131840
  C       -0.3303560    -0.1463500    -0.0014890
  C       -1.3149260     0.8499960    -0.0079370
  C        1.0885480     0.2076610    -0.0012920
  C       -2.9473560    -0.8932820    -0.0075970
  C       -3.7562130     1.5070280     0.0143710
  C       -1.9011700    -1.8146870    -0.0009620
  C        3.5068880     0.2049870     0.0025490
  C        2.7141544     1.4486450    -0.0036287
  H       -1.0097250     1.8934330    -0.0150530
  H       -3.9776190    -1.2428240    -0.0150370
  H       -4.0970980     1.6828510     1.0402330
  H       -3.4086480     2.4606730    -0.3912090
  H       -4.6191930     1.1768790    -0.5707550
  H       -2.1040920    -2.8844300    -0.0003970
  H        4.5630320    -0.0321470     0.0049780
  H        3.4487670     2.3922440    -0.0062430
units angstrom
no_reorient  #important for SAPT in psi4, default
symmetry c1  #important for SAPT in psi4, default
}

set PROPERTIES_ORIGIN ["COM"]
properties('MP2/aug-cc-pvtz', properties = ['dipole'])
--------------------------------------------------------------------------

    Molecular point group: c1
  Charge       = 0
  Multiplicity = 1
  Basis Set: AUG-CC-PVTZ
    Blend: AUG-CC-PVTZ
  Basis Set: (AUG-CC-PVTZ AUX)
    Blend: AUG-CC-PVTZ-JKFIT

    Orbital Energies [Eh]
    ---------------------

    Doubly Occupied:

       1A    -92.006736     2A    -15.567783     3A    -15.564236
       4A    -11.309700     5A    -11.292969     6A    -11.280733
       7A    -11.273798     8A    -11.270444     9A    -11.267518
      10A    -11.239915    11A    -11.239471    12A    -11.238859
      13A     -9.005242    14A     -6.685737    15A     -6.685434
      16A     -6.685060    17A     -1.346149    18A     -1.261549
      19A     -1.112475    20A     -1.084336    21A     -1.058542
      22A     -0.978091    23A     -0.966637    24A     -0.863557
      25A     -0.845698    26A     -0.798949    27A     -0.743118
      28A     -0.708075    29A     -0.676137    30A     -0.669075
      31A     -0.633606    32A     -0.603511    33A     -0.596321
      34A     -0.588930    35A     -0.573853    36A     -0.561429
      37A     -0.545177    38A     -0.532644    39A     -0.514001
      40A     -0.482606    41A     -0.427763    42A     -0.422625
      43A     -0.412283    44A     -0.381629    45A     -0.368422
      46A     -0.282609

  @DF-RHF Final Energy:  -851.99806669434247

   => Energetics <=

    Nuclear Repulsion Energy =            724.0227884845756989
    One-Electron Energy =               -2602.7348478180038001
    Two-Electron Energy =                1026.7139926390855180
    Total Energy =                       -851.9980666943424694
  Basis Set: (AUG-CC-PVTZ AUX)
    Blend: AUG-CC-PVTZ-RI
    Molecular point group: c1

    Geometry (in Angstrom), charge = 0, multiplicity = 1:

       Center              X                  Y                   Z               Mass
    ------------   -----------------  -----------------  -----------------  -----------------
         S            2.263545033749    -0.993029951298     0.005678233646    31.972071174400
         N           -0.653034966251    -1.436624951298     0.002851233646    14.003074004430
         N            1.497336033749     1.480669048702    -0.005083766354    14.003074004430
         C           -2.708272966251     0.508284048702    -0.012900766354    12.000000000000
         C           -0.379521966251    -0.115831951298    -0.001205766354    12.000000000000
         C           -1.364091966251     0.880514048702    -0.007653766354    12.000000000000
         C            1.039382033749     0.238179048702    -0.001008766354    12.000000000000
         C           -2.996521966251    -0.862763951298    -0.007313766354    12.000000000000
         C           -3.805378966251     1.537546048702     0.014654233646    12.000000000000
         C           -1.950335966251    -1.784168951298    -0.000678766354    12.000000000000
         C            3.457722033749     0.235505048702     0.002832233646    12.000000000000
         C            2.664988433749     1.479163048702    -0.003345466354    12.000000000000
         H           -1.058890966251     1.923951048702    -0.014769766354     1.007825032230
         H           -4.026784966251    -1.212305951298    -0.014753766354     1.007825032230
         H           -4.146263966251     1.713369048702     1.040516233646     1.007825032230
         H           -3.457813966251     2.491191048702    -0.390925766354     1.007825032230
         H           -4.668358966251     1.207397048702    -0.570471766354     1.007825032230
         H           -2.153257966251    -2.853911951298    -0.000113766354     1.007825032230
         H            4.513866033749    -0.001628951298     0.005261233646     1.007825032230
         H            3.399601033749     2.422762048702    -0.005959766354     1.007825032230

  Basis Set: AUG-CC-PVTZ
    Blend: AUG-CC-PVTZ
  Basis Set: (AUG-CC-PVTZ AUX)
    Blend: AUG-CC-PVTZ-JKFIT
	 Reference Energy          =    -851.9980666943424694 [Eh]
	 Singles Energy            =      -0.0000000000000000 [Eh]
	 Same-Spin Energy          =      -0.5742207361134026 [Eh]
	 Opposite-Spin Energy      =      -1.7137463445701420 [Eh]
	 Correlation Energy        =      -2.2879670806835444 [Eh]
	 Total Energy              =    -854.2860337750259987 [Eh]

	 ================> DF-SCS-MP2 Energies <==================
	-----------------------------------------------------------
	 SCS Same-Spin Scale       =       0.3333333333333333 [-]
	 SCS Opposite-Spin Scale   =       1.2000000000000000 [-]
	 SCS Same-Spin Energy      =      -0.1914069120378009 [Eh]
	 SCS Opposite-Spin Energy  =      -2.0564956134841701 [Eh]
	 SCS Correlation Energy    =      -2.2479025255219711 [Eh]
	 SCS Total Energy          =    -854.2459692198644916 [Eh]
	-----------------------------------------------------------

  Dipole Moment: [D]
     X:    -1.1019      Y:     0.3826      Z:     0.0423     Total:     1.1672

*** Psi4 exiting successfully. Buy a developer a beer!
