                               Psi4 1.4a3.dev225

  ==> Input File <==

--------------------------------------------------------------------------
#psi4
#
memory 32 gb

molecule  {
0 1
  S        2.3127110    -1.0235480     0.0053950
  N       -0.6038690    -1.4671430     0.0025680
  N        1.5465020     1.4501510    -0.0053670
  C       -2.6591070     0.4777660    -0.0131840
  C       -0.3404950    -0.1953110    -0.0013386
  C       -1.3149260     0.8499960    -0.0079370
  C        1.0885480     0.2076610    -0.0012920
  C       -2.9473560    -0.8932820    -0.0075970
  C       -3.7562130     1.5070280     0.0143710
  C       -1.9011700    -1.8146870    -0.0009620
  C        3.5068880     0.2049870     0.0025490
  C        2.9141540     1.4483870    -0.0033310
  H       -1.0097250     1.8934330    -0.0150530
  H       -3.9776190    -1.2428240    -0.0150370
  H       -4.0970980     1.6828510     1.0402330
  H       -3.4086480     2.4606730    -0.3912090
  H       -4.6191930     1.1768790    -0.5707550
  H       -2.1040920    -2.8844300    -0.0003970
  H        4.5630320    -0.0321470     0.0049780
  H        3.4487670     2.3922440    -0.0062430
units angstrom
no_reorient  #important for SAPT in psi4, default
symmetry c1  #important for SAPT in psi4, default
}

set PROPERTIES_ORIGIN ["COM"]
properties('MP2/aug-cc-pvtz', properties = ['dipole'])
--------------------------------------------------------------------------

    Molecular point group: c1
  Charge       = 0
  Multiplicity = 1
  Basis Set: AUG-CC-PVTZ
    Blend: AUG-CC-PVTZ
  Basis Set: (AUG-CC-PVTZ AUX)
    Blend: AUG-CC-PVTZ-JKFIT

    Orbital Energies [Eh]
    ---------------------

    Doubly Occupied:

       1A    -91.992348     2A    -15.572794     3A    -15.569961
       4A    -11.312402     5A    -11.295418     6A    -11.282286
       7A    -11.270385     8A    -11.268362     9A    -11.262843
      10A    -11.244025    11A    -11.243634    12A    -11.239249
      13A     -8.992494    14A     -6.673272    15A     -6.672699
      16A     -6.672057    17A     -1.289754    18A     -1.265581
      19A     -1.115941    20A     -1.062411    21A     -1.058263
      22A     -0.985081    23A     -0.970495    24A     -0.874110
      25A     -0.842928    26A     -0.783593    27A     -0.748223
      28A     -0.697559    29A     -0.684059    30A     -0.669797
      31A     -0.634185    32A     -0.596323    33A     -0.586147
      34A     -0.573203    35A     -0.570466    36A     -0.563908
      37A     -0.547761    38A     -0.530942    39A     -0.513655
      40A     -0.500169    41A     -0.442833    42A     -0.418382
      43A     -0.392226    44A     -0.385460    45A     -0.363193
      46A     -0.306241

  @DF-RHF Final Energy:  -852.06055205306097

   => Energetics <=

    Nuclear Repulsion Energy =            720.5212148922679489
    One-Electron Energy =               -2596.0892954681930860
    Two-Electron Energy =                1023.5075285228642770
    Total Energy =                       -852.0605520530609738
  Basis Set: (AUG-CC-PVTZ AUX)
    Blend: AUG-CC-PVTZ-RI
    Molecular point group: c1

    Geometry (in Angstrom), charge = 0, multiplicity = 1:

       Center              X                  Y                   Z               Mass
    ------------   -----------------  -----------------  -----------------  -----------------
         S            2.250602994469    -0.989674888524     0.005647688458    31.972071174400
         N           -0.665977005531    -1.433269888524     0.002820688458    14.003074004430
         N            1.484393994469     1.484024111476    -0.005114311542    14.003074004430
         C           -2.721215005531     0.511639111476    -0.012931311542    12.000000000000
         C           -0.402603005531    -0.161437888524    -0.001085911542    12.000000000000
         C           -1.377034005531     0.883869111476    -0.007684311542    12.000000000000
         C            1.026439994469     0.241534111476    -0.001039311542    12.000000000000
         C           -3.009464005531    -0.859408888524    -0.007344311542    12.000000000000
         C           -3.818321005531     1.540901111476     0.014623688458    12.000000000000
         C           -1.963278005531    -1.780813888524    -0.000709311542    12.000000000000
         C            3.444779994469     0.238860111476     0.002801688458    12.000000000000
         C            2.852045994469     1.482260111476    -0.003078311542    12.000000000000
         H           -1.071833005531     1.927306111476    -0.014800311542     1.007825032230
         H           -4.039727005531    -1.208950888524    -0.014784311542     1.007825032230
         H           -4.159206005531     1.716724111476     1.040485688458     1.007825032230
         H           -3.470756005531     2.494546111476    -0.390956311542     1.007825032230
         H           -4.681301005531     1.210752111476    -0.570502311542     1.007825032230
         H           -2.166200005531    -2.850556888524    -0.000144311542     1.007825032230
         H            4.500923994469     0.001726111476     0.005230688458     1.007825032230
         H            3.386658994469     2.426117111476    -0.005990311542     1.007825032230

  Basis Set: AUG-CC-PVTZ
    Blend: AUG-CC-PVTZ
  Basis Set: (AUG-CC-PVTZ AUX)
    Blend: AUG-CC-PVTZ-JKFIT
	 Reference Energy          =    -852.0605520530609738 [Eh]
	 Singles Energy            =      -0.0000000000000000 [Eh]
	 Same-Spin Energy          =      -0.5684870851204307 [Eh]
	 Opposite-Spin Energy      =      -1.7080612314267114 [Eh]
	 Correlation Energy        =      -2.2765483165471423 [Eh]
	 Total Energy              =    -854.3371003696081516 [Eh]

	 ================> DF-SCS-MP2 Energies <==================
	-----------------------------------------------------------
	 SCS Same-Spin Scale       =       0.3333333333333333 [-]
	 SCS Opposite-Spin Scale   =       1.2000000000000000 [-]
	 SCS Same-Spin Energy      =      -0.1894956950401435 [Eh]
	 SCS Opposite-Spin Energy  =      -2.0496734777120538 [Eh]
	 SCS Correlation Energy    =      -2.2391691727521974 [Eh]
	 SCS Total Energy          =    -854.2997212258131867 [Eh]
	-----------------------------------------------------------

  Dipole Moment: [D]
     X:    -1.3279      Y:     0.3739      Z:     0.0422     Total:     1.3802

*** Psi4 exiting successfully. Buy a developer a beer!
