                               Psi4 1.4a3.dev225

  ==> Input File <==

--------------------------------------------------------------------------
#psi4
#
memory 32 gb

molecule  {
0 1
  S        2.3127110    -1.0235480     0.0053950
  N       -0.6038690    -1.4671430     0.0025680
  N        1.5465020     1.4501510    -0.0053670
  C       -2.6591070     0.4777660    -0.0131840
  C       -0.3303560    -0.1463500    -0.0014890
  C       -1.3149260     0.8499960    -0.0079370
  C        1.0885480     0.2076610    -0.0012920
  C       -2.9473560    -0.8932820    -0.0075970
  C       -3.7562130     1.5070280     0.0143710
  C       -1.9011700    -1.8146870    -0.0009620
  C        3.5068880     0.2049870     0.0025490
  C        2.8711206     1.4269433    -0.0033034
  H       -1.0097250     1.8934330    -0.0150530
  H       -3.9776190    -1.2428240    -0.0150370
  H       -4.0970980     1.6828510     1.0402330
  H       -3.4086480     2.4606730    -0.3912090
  H       -4.6191930     1.1768790    -0.5707550
  H       -2.1040920    -2.8844300    -0.0003970
  H        4.5630320    -0.0321470     0.0049780
  H        3.4487670     2.3922440    -0.0062430
units angstrom
no_reorient  #important for SAPT in psi4, default
symmetry c1  #important for SAPT in psi4, default
}

set PROPERTIES_ORIGIN ["COM"]
properties('MP2/aug-cc-pvtz', properties = ['dipole'])
--------------------------------------------------------------------------

    Molecular point group: c1
  Charge       = 0
  Multiplicity = 1
  Basis Set: AUG-CC-PVTZ
    Blend: AUG-CC-PVTZ
  Basis Set: (AUG-CC-PVTZ AUX)
    Blend: AUG-CC-PVTZ-JKFIT

    Orbital Energies [Eh]
    ---------------------

    Doubly Occupied:

       1A    -91.994772     2A    -15.571626     3A    -15.570853
       4A    -11.312202     5A    -11.293933     6A    -11.281975
       7A    -11.271744     8A    -11.268378     9A    -11.261511
      10A    -11.243332    11A    -11.242090    12A    -11.239881
      13A     -8.994652    14A     -6.675369    15A     -6.674883
      16A     -6.674242    17A     -1.294749    18A     -1.259807
      19A     -1.113987    20A     -1.066327    21A     -1.064232
      22A     -0.983191    23A     -0.972150    24A     -0.870707
      25A     -0.845159    26A     -0.784843    27A     -0.748910
      28A     -0.700416    29A     -0.678150    30A     -0.671125
      31A     -0.632517    32A     -0.596397    33A     -0.585446
      34A     -0.576521    35A     -0.574078    36A     -0.562168
      37A     -0.547904    38A     -0.528532    39A     -0.515164
      40A     -0.491981    41A     -0.443379    42A     -0.422664
      43A     -0.394568    44A     -0.383491    45A     -0.367730
      46A     -0.302333

  @DF-RHF Final Energy:  -852.05843369065371

   => Energetics <=

    Nuclear Repulsion Energy =            721.4916655666238512
    One-Electron Energy =               -2598.0000596729264544
    Two-Electron Energy =                1024.4499604156490022
    Total Energy =                       -852.0584336906536009
  Basis Set: (AUG-CC-PVTZ AUX)
    Blend: AUG-CC-PVTZ-RI
    Molecular point group: c1

    Geometry (in Angstrom), charge = 0, multiplicity = 1:

       Center              X                  Y                   Z               Mass
    ------------   -----------------  -----------------  -----------------  -----------------
         S            2.252845274420    -0.991550633031     0.005656059243    31.972071174400
         N           -0.663734725580    -1.435145633031     0.002829059243    14.003074004430
         N            1.486636274420     1.482148366969    -0.005105940757    14.003074004430
         C           -2.718972725580     0.509763366969    -0.012922940757    12.000000000000
         C           -0.390221725580    -0.114352633031    -0.001227940757    12.000000000000
         C           -1.374791725580     0.881993366969    -0.007675940757    12.000000000000
         C            1.028682274420     0.239658366969    -0.001030940757    12.000000000000
         C           -3.007221725580    -0.861284633031    -0.007335940757    12.000000000000
         C           -3.816078725580     1.539025366969     0.014632059243    12.000000000000
         C           -1.961035725580    -1.782689633031    -0.000700940757    12.000000000000
         C            3.447022274420     0.236984366969     0.002810059243    12.000000000000
         C            2.811254874420     1.458940666969    -0.003042340757    12.000000000000
         H           -1.069590725580     1.925430366969    -0.014791940757     1.007825032230
         H           -4.037484725580    -1.210826633031    -0.014775940757     1.007825032230
         H           -4.156963725580     1.714848366969     1.040494059243     1.007825032230
         H           -3.468513725580     2.492670366969    -0.390947940757     1.007825032230
         H           -4.679058725580     1.208876366969    -0.570493940757     1.007825032230
         H           -2.163957725580    -2.852432633031    -0.000135940757     1.007825032230
         H            4.503166274420    -0.000149633031     0.005239059243     1.007825032230
         H            3.388901274420     2.424241366969    -0.005981940757     1.007825032230

  Basis Set: AUG-CC-PVTZ
    Blend: AUG-CC-PVTZ
  Basis Set: (AUG-CC-PVTZ AUX)
    Blend: AUG-CC-PVTZ-JKFIT
	 Reference Energy          =    -852.0584336906537146 [Eh]
	 Singles Energy            =      -0.0000000000000000 [Eh]
	 Same-Spin Energy          =      -0.5698524596915974 [Eh]
	 Opposite-Spin Energy      =      -1.7092834375575685 [Eh]
	 Correlation Energy        =      -2.2791358972491658 [Eh]
	 Total Energy              =    -854.3375695879028626 [Eh]

	 ================> DF-SCS-MP2 Energies <==================
	-----------------------------------------------------------
	 SCS Same-Spin Scale       =       0.3333333333333333 [-]
	 SCS Opposite-Spin Scale   =       1.2000000000000000 [-]
	 SCS Same-Spin Energy      =      -0.1899508198971991 [Eh]
	 SCS Opposite-Spin Energy  =      -2.0511401250690819 [Eh]
	 SCS Correlation Energy    =      -2.2410909449662810 [Eh]
	 SCS Total Energy          =    -854.2995246356199459 [Eh]
	-----------------------------------------------------------

  Dipole Moment: [D]
     X:    -1.2535      Y:     0.3564      Z:     0.0422     Total:     1.3039

*** Psi4 exiting successfully. Buy a developer a beer!
