                               Psi4 1.4a3.dev225

  ==> Input File <==

--------------------------------------------------------------------------
#psi4
#
memory 32 gb

molecule  {
0 1
  S        2.3127110    -1.0235480     0.0053950
  N       -0.6038690    -1.4671430     0.0025680
  N        1.5465020     1.4501510    -0.0053670
  C       -2.6591070     0.4777660    -0.0131840
  C       -0.3303560    -0.1463500    -0.0014890
  C       -1.3149260     0.8499960    -0.0079370
  C        1.0885480     0.2076610    -0.0012920
  C       -2.9473560    -0.8932820    -0.0075970
  C       -3.7562130     1.5070280     0.0143710
  C       -1.9011700    -1.8146870    -0.0009620
  C        3.5068880     0.2049870     0.0025490
  C        3.0023339     1.4867054    -0.0033646
  H       -1.0097250     1.8934330    -0.0150530
  H       -3.9776190    -1.2428240    -0.0150370
  H       -4.0970980     1.6828510     1.0402330
  H       -3.4086480     2.4606730    -0.3912090
  H       -4.6191930     1.1768790    -0.5707550
  H       -2.1040920    -2.8844300    -0.0003970
  H        4.5630320    -0.0321470     0.0049780
  H        3.4487670     2.3922440    -0.0062430
units angstrom
no_reorient  #important for SAPT in psi4, default
symmetry c1  #important for SAPT in psi4, default
}

set PROPERTIES_ORIGIN ["COM"]
properties('MP2/aug-cc-pvtz', properties = ['dipole'])
--------------------------------------------------------------------------

    Molecular point group: c1
  Charge       = 0
  Multiplicity = 1
  Basis Set: AUG-CC-PVTZ
    Blend: AUG-CC-PVTZ
  Basis Set: (AUG-CC-PVTZ AUX)
    Blend: AUG-CC-PVTZ-JKFIT

    Orbital Energies [Eh]
    ---------------------

    Doubly Occupied:

       1A    -91.992527     2A    -15.574992     3A    -15.572528
       4A    -11.311128     5A    -11.294215     6A    -11.281900
       7A    -11.271485     8A    -11.269787     9A    -11.267968
      10A    -11.243703    11A    -11.241910    12A    -11.239706
      13A     -8.992704    14A     -6.673551    15A     -6.672879
      16A     -6.672178    17A     -1.274686    18A     -1.245280
      19A     -1.113844    20A     -1.065435    21A     -1.052106
      22A     -0.987354    23A     -0.972771    24A     -0.874840
      25A     -0.841959    26A     -0.788339    27A     -0.748797
      28A     -0.694488    29A     -0.681537    30A     -0.671909
      31A     -0.635188    32A     -0.595361    33A     -0.590416
      34A     -0.567968    35A     -0.567042    36A     -0.560872
      37A     -0.543042    38A     -0.522372    39A     -0.516047
      40A     -0.513456    41A     -0.436993    42A     -0.416230
      43A     -0.393912    44A     -0.378332    45A     -0.362531
      46A     -0.310495

  @DF-RHF Final Energy:  -852.04998503434933

   => Energetics <=

    Nuclear Repulsion Energy =            718.2425911944742438
    One-Electron Energy =               -2591.5916333585100801
    Two-Electron Energy =                1021.2990571296865028
    Total Energy =                       -852.0499850343493335
  Basis Set: (AUG-CC-PVTZ AUX)
    Blend: AUG-CC-PVTZ-RI
    Molecular point group: c1

    Geometry (in Angstrom), charge = 0, multiplicity = 1:

       Center              X                  Y                   Z               Mass
    ------------   -----------------  -----------------  -----------------  -----------------
         S            2.243900987493    -0.995624376850     0.005660231003    31.972071174400
         N           -0.672679012507    -1.439219376850     0.002833231003    14.003074004430
         N            1.477691987493     1.478074623150    -0.005101768997    14.003074004430
         C           -2.727917012507     0.505689623150    -0.012918768997    12.000000000000
         C           -0.399166012507    -0.118426376850    -0.001223768997    12.000000000000
         C           -1.383736012507     0.877919623150    -0.007671768997    12.000000000000
         C            1.019737987493     0.235584623150    -0.001026768997    12.000000000000
         C           -3.016166012507    -0.865358376850    -0.007331768997    12.000000000000
         C           -3.825023012507     1.534951623150     0.014636231003    12.000000000000
         C           -1.969980012507    -1.786763376850    -0.000696768997    12.000000000000
         C            3.438077987493     0.232910623150     0.002814231003    12.000000000000
         C            2.933523887493     1.514629023150    -0.003099368997    12.000000000000
         H           -1.078535012507     1.921356623150    -0.014787768997     1.007825032230
         H           -4.046429012507    -1.214900376850    -0.014771768997     1.007825032230
         H           -4.165908012507     1.710774623150     1.040498231003     1.007825032230
         H           -3.477458012507     2.488596623150    -0.390943768997     1.007825032230
         H           -4.688003012507     1.204802623150    -0.570489768997     1.007825032230
         H           -2.172902012507    -2.856506376850    -0.000131768997     1.007825032230
         H            4.494221987493    -0.004223376850     0.005243231003     1.007825032230
         H            3.379956987493     2.420167623150    -0.005977768997     1.007825032230

  Basis Set: AUG-CC-PVTZ
    Blend: AUG-CC-PVTZ
  Basis Set: (AUG-CC-PVTZ AUX)
    Blend: AUG-CC-PVTZ-JKFIT
	 Reference Energy          =    -852.0499850343493335 [Eh]
	 Singles Energy            =      -0.0000000000000000 [Eh]
	 Same-Spin Energy          =      -0.5680726236246361 [Eh]
	 Opposite-Spin Energy      =      -1.7102918475674822 [Eh]
	 Correlation Energy        =      -2.2783644711921180 [Eh]
	 Total Energy              =    -854.3283495055414960 [Eh]

	 ================> DF-SCS-MP2 Energies <==================
	-----------------------------------------------------------
	 SCS Same-Spin Scale       =       0.3333333333333333 [-]
	 SCS Opposite-Spin Scale   =       1.2000000000000000 [-]
	 SCS Same-Spin Energy      =      -0.1893575412082120 [Eh]
	 SCS Opposite-Spin Energy  =      -2.0523502170809786 [Eh]
	 SCS Correlation Energy    =      -2.2417077582891904 [Eh]
	 SCS Total Energy          =    -854.2916927926385142 [Eh]
	-----------------------------------------------------------

  Dipole Moment: [D]
     X:    -1.3627      Y:     0.4429      Z:     0.0418     Total:     1.4335

*** Psi4 exiting successfully. Buy a developer a beer!
