                               Psi4 1.4a3.dev225

  ==> Input File <==

--------------------------------------------------------------------------
#psi4
#
memory 32 gb

molecule  {
0 1
  S        2.3127110    -1.0235480     0.0053950
  N       -0.6038690    -1.4671430     0.0025680
  N        1.5465020     1.4501510    -0.0053670
  C       -2.6591070     0.4777660    -0.0131840
  C       -0.3303560    -0.1463500    -0.0014890
  C       -1.3149260     0.8499960    -0.0079370
  C        1.0885480     0.2076610    -0.0012920
  C       -2.9473560    -0.8932820    -0.0075970
  C       -3.7562130     1.5070280     0.0143710
  C       -1.9011700    -1.8146870    -0.0009620
  C        3.5068880     0.2049870     0.0025490
  C        2.9141540     1.4483870    -0.0033310
  H       -1.0097250     1.8934330    -0.0150530
  H       -3.7882270    -1.1785681    -0.0136693
  H       -4.0970980     1.6828510     1.0402330
  H       -3.4086480     2.4606730    -0.3912090
  H       -4.6191930     1.1768790    -0.5707550
  H       -2.1040920    -2.8844300    -0.0003970
  H        4.5630320    -0.0321470     0.0049780
  H        3.4487670     2.3922440    -0.0062430
units angstrom
no_reorient  #important for SAPT in psi4, default
symmetry c1  #important for SAPT in psi4, default
}

set PROPERTIES_ORIGIN ["COM"]
properties('MP2/aug-cc-pvtz', properties = ['dipole'])
--------------------------------------------------------------------------

    Molecular point group: c1
  Charge       = 0
  Multiplicity = 1
  Basis Set: AUG-CC-PVTZ
    Blend: AUG-CC-PVTZ
  Basis Set: (AUG-CC-PVTZ AUX)
    Blend: AUG-CC-PVTZ-JKFIT

    Orbital Energies [Eh]
    ---------------------

    Doubly Occupied:

       1A    -91.993483     2A    -15.572142     3A    -15.570683
       4A    -11.311388     5A    -11.293493     6A    -11.280735
       7A    -11.270234     8A    -11.268222     9A    -11.263093
      10A    -11.240762    11A    -11.239929    12A    -11.219623
      13A     -8.993468    14A     -6.674233    15A     -6.673682
      16A     -6.673022    17A     -1.284326    18A     -1.255960
      19A     -1.116795    20A     -1.067081    21A     -1.060610
      22A     -0.991011    23A     -0.972527    24A     -0.883205
      25A     -0.843177    26A     -0.783843    27A     -0.752045
      28A     -0.712782    29A     -0.690155    30A     -0.677507
      31A     -0.634909    32A     -0.595860    33A     -0.593374
      34A     -0.572374    35A     -0.571583    36A     -0.566750
      37A     -0.546539    38A     -0.525767    39A     -0.518357
      40A     -0.500177    41A     -0.441002    42A     -0.420842
      43A     -0.393191    44A     -0.381109    45A     -0.365621
      46A     -0.304695

  @DF-RHF Final Energy:  -852.02717195761466

   => Energetics <=

    Nuclear Repulsion Energy =            721.5837031181766861
    One-Electron Energy =               -2598.0990166977194349
    Two-Electron Energy =                1024.4881416219279799
    Total Energy =                       -852.0271719576146552
  Basis Set: (AUG-CC-PVTZ AUX)
    Blend: AUG-CC-PVTZ-RI
    Molecular point group: c1

    Geometry (in Angstrom), charge = 0, multiplicity = 1:

       Center              X                  Y                   Z               Mass
    ------------   -----------------  -----------------  -----------------  -----------------
         S            2.248827599424    -0.993380226335     0.005650110610    31.972071174400
         N           -0.667752400576    -1.436975226335     0.002823110610    14.003074004430
         N            1.482618599424     1.480318773665    -0.005111889390    14.003074004430
         C           -2.722990400576     0.507933773665    -0.012928889390    12.000000000000
         C           -0.394239400576    -0.116182226335    -0.001233889390    12.000000000000
         C           -1.378809400576     0.880163773665    -0.007681889390    12.000000000000
         C            1.024664599424     0.237828773665    -0.001036889390    12.000000000000
         C           -3.011239400576    -0.863114226335    -0.007341889390    12.000000000000
         C           -3.820096400576     1.537195773665     0.014626110610    12.000000000000
         C           -1.965053400576    -1.784519226335    -0.000706889390    12.000000000000
         C            3.443004599424     0.235154773665     0.002804110610    12.000000000000
         C            2.850270599424     1.478554773665    -0.003075889390    12.000000000000
         H           -1.073608400576     1.923600773665    -0.014797889390     1.007825032230
         H           -3.852110400576    -1.148400326335    -0.013414189390     1.007825032230
         H           -4.160981400576     1.713018773665     1.040488110610     1.007825032230
         H           -3.472531400576     2.490840773665    -0.390953889390     1.007825032230
         H           -4.683076400576     1.207046773665    -0.570499889390     1.007825032230
         H           -2.167975400576    -2.854262226335    -0.000141889390     1.007825032230
         H            4.499148599424    -0.001979226335     0.005233110610     1.007825032230
         H            3.384883599424     2.422411773665    -0.005987889390     1.007825032230

  Basis Set: AUG-CC-PVTZ
    Blend: AUG-CC-PVTZ
  Basis Set: (AUG-CC-PVTZ AUX)
    Blend: AUG-CC-PVTZ-JKFIT
	 Reference Energy          =    -852.0271719576146552 [Eh]
	 Singles Energy            =      -0.0000000000000000 [Eh]
	 Same-Spin Energy          =      -0.5688697803594429 [Eh]
	 Opposite-Spin Energy      =      -1.7086079856356391 [Eh]
	 Correlation Energy        =      -2.2774777659950818 [Eh]
	 Total Energy              =    -854.3046497236097139 [Eh]

	 ================> DF-SCS-MP2 Energies <==================
	-----------------------------------------------------------
	 SCS Same-Spin Scale       =       0.3333333333333333 [-]
	 SCS Opposite-Spin Scale   =       1.2000000000000000 [-]
	 SCS Same-Spin Energy      =      -0.1896232601198143 [Eh]
	 SCS Opposite-Spin Energy  =      -2.0503295827627670 [Eh]
	 SCS Correlation Energy    =      -2.2399528428825812 [Eh]
	 SCS Total Energy          =    -854.2671248004971858 [Eh]
	-----------------------------------------------------------

  Dipole Moment: [D]
     X:    -1.3200      Y:     0.3826      Z:     0.0414     Total:     1.3749

*** Psi4 exiting successfully. Buy a developer a beer!
