                               Psi4 1.4a3.dev225

  ==> Input File <==

--------------------------------------------------------------------------
#psi4
#
memory 32 gb

molecule  {
0 1
  S        2.3127110    -1.0235480     0.0053950
  N       -0.6038690    -1.4671430     0.0025680
  N        1.5465020     1.4501510    -0.0053670
  C       -2.6591070     0.4777660    -0.0131840
  C       -0.3303560    -0.1463500    -0.0014890
  C       -1.3149260     0.8499960    -0.0079370
  C        1.0885480     0.2076610    -0.0012920
  C       -2.9473560    -0.8932820    -0.0075970
  C       -3.7562130     1.5070280     0.0143710
  C       -1.9011700    -1.8146870    -0.0009620
  C        3.5068880     0.2049870     0.0025490
  C        2.9141540     1.4483870    -0.0033310
  H       -1.0097250     1.8934330    -0.0150530
  H       -3.9776190    -1.2428240    -0.0150370
  H       -4.0970980     1.6828510     1.0402330
  H       -3.4086480     2.4606730    -0.3912090
  H       -4.6191930     1.1768790    -0.5707550
  H       -2.1040920    -2.8844300    -0.0003970
  H        4.5630320    -0.0321470     0.0049780
  H        3.4487670     2.3922440    -0.0062430
units angstrom
no_reorient  #important for SAPT in psi4, default
symmetry c1  #important for SAPT in psi4, default
}

set PROPERTIES_ORIGIN ["COM"]
properties('MP2/aug-cc-pvtz', properties = ['dipole'])
--------------------------------------------------------------------------

    Molecular point group: c1
  Charge       = 0
  Multiplicity = 1
  Basis Set: AUG-CC-PVTZ
    Blend: AUG-CC-PVTZ
  Basis Set: (AUG-CC-PVTZ AUX)
    Blend: AUG-CC-PVTZ-JKFIT

    Orbital Energies [Eh]
    ---------------------

    Doubly Occupied:

       1A    -91.993767     2A    -15.572435     3A    -15.571906
       4A    -11.311745     5A    -11.293982     6A    -11.281913
       7A    -11.271620     8A    -11.268481     9A    -11.263348
      10A    -11.243432    11A    -11.241990    12A    -11.239797
      13A     -8.993756    14A     -6.674521    15A     -6.673970
      16A     -6.673309    17A     -1.284784    18A     -1.256610
      19A     -1.113898    20A     -1.065305    21A     -1.060284
      22A     -0.984392    23A     -0.972409    24A     -0.872021
      25A     -0.843891    26A     -0.783966    27A     -0.749612
      28A     -0.697459    29A     -0.679058    30A     -0.671368
      31A     -0.634028    32A     -0.595874    33A     -0.587534
      34A     -0.572652    35A     -0.571428    36A     -0.561784
      37A     -0.547001    38A     -0.526438    39A     -0.515107
      40A     -0.500466    41A     -0.441269    42A     -0.421249
      43A     -0.393548    44A     -0.381660    45A     -0.366370
      46A     -0.304989

  @DF-RHF Final Energy:  -852.06155575721743

   => Energetics <=

    Nuclear Repulsion Energy =            720.3595977364491318
    One-Electron Energy =               -2595.7894515807493008
    Two-Electron Energy =                1023.3682980870827350
    Total Energy =                       -852.0615557572174339
  Basis Set: (AUG-CC-PVTZ AUX)
    Blend: AUG-CC-PVTZ-RI
    Molecular point group: c1

    Geometry (in Angstrom), charge = 0, multiplicity = 1:

       Center              X                  Y                   Z               Mass
    ------------   -----------------  -----------------  -----------------  -----------------
         S            2.249911859309    -0.993012364468     0.005657940625    31.972071174400
         N           -0.666668140691    -1.436607364468     0.002830940625    14.003074004430
         N            1.483702859309     1.480686635532    -0.005104059375    14.003074004430
         C           -2.721906140691     0.508301635532    -0.012921059375    12.000000000000
         C           -0.393155140691    -0.115814364468    -0.001226059375    12.000000000000
         C           -1.377725140691     0.880531635532    -0.007674059375    12.000000000000
         C            1.025748859309     0.238196635532    -0.001029059375    12.000000000000
         C           -3.010155140691    -0.862746364468    -0.007334059375    12.000000000000
         C           -3.819012140691     1.537563635532     0.014633940625    12.000000000000
         C           -1.963969140691    -1.784151364468    -0.000699059375    12.000000000000
         C            3.444088859309     0.235522635532     0.002811940625    12.000000000000
         C            2.851354859309     1.478922635532    -0.003068059375    12.000000000000
         H           -1.072524140691     1.923968635532    -0.014790059375     1.007825032230
         H           -4.040418140691    -1.212288364468    -0.014774059375     1.007825032230
         H           -4.159897140691     1.713386635532     1.040495940625     1.007825032230
         H           -3.471447140691     2.491208635532    -0.390946059375     1.007825032230
         H           -4.681992140691     1.207414635532    -0.570492059375     1.007825032230
         H           -2.166891140691    -2.853894364468    -0.000134059375     1.007825032230
         H            4.500232859309    -0.001611364468     0.005240940625     1.007825032230
         H            3.385967859309     2.422779635532    -0.005980059375     1.007825032230

  Basis Set: AUG-CC-PVTZ
    Blend: AUG-CC-PVTZ
  Basis Set: (AUG-CC-PVTZ AUX)
    Blend: AUG-CC-PVTZ-JKFIT
	 Reference Energy          =    -852.0615557572174339 [Eh]
	 Singles Energy            =      -0.0000000000000000 [Eh]
	 Same-Spin Energy          =      -0.5691475374152706 [Eh]
	 Opposite-Spin Energy      =      -1.7092683428754010 [Eh]
	 Correlation Energy        =      -2.2784158802906713 [Eh]
	 Total Energy              =    -854.3399716375081425 [Eh]

	 ================> DF-SCS-MP2 Energies <==================
	-----------------------------------------------------------
	 SCS Same-Spin Scale       =       0.3333333333333333 [-]
	 SCS Opposite-Spin Scale   =       1.2000000000000000 [-]
	 SCS Same-Spin Energy      =      -0.1897158458050902 [Eh]
	 SCS Opposite-Spin Energy  =      -2.0511220114504809 [Eh]
	 SCS Correlation Energy    =      -2.2408378572555709 [Eh]
	 SCS Total Energy          =    -854.3023936144729760 [Eh]
	-----------------------------------------------------------

  Dipole Moment: [D]
     X:    -1.2801      Y:     0.3951      Z:     0.0420     Total:     1.3403

*** Psi4 exiting successfully. Buy a developer a beer!
