                               Psi4 1.4a3.dev225

  ==> Input File <==

--------------------------------------------------------------------------
#psi4
#
memory 32 gb

molecule  {
0 1
  S        2.3127110    -1.0235480     0.0053950
  N       -0.6038690    -1.4671430     0.0025680
  N        1.5465020     1.4501510    -0.0053670
  C       -2.6591070     0.4777660    -0.0131840
  C       -0.3303560    -0.1463500    -0.0014890
  C       -1.3149260     0.8499960    -0.0079370
  C        1.0885480     0.2076610    -0.0012920
  C       -2.9473560    -0.8932820    -0.0075970
  C       -3.7562130     1.5070280     0.0143710
  C       -1.9762134    -1.7485942    -0.0014379
  C        3.5068880     0.2049870     0.0025490
  C        2.9141540     1.4483870    -0.0033310
  H       -1.0097250     1.8934330    -0.0150530
  H       -3.9776190    -1.2428240    -0.0150370
  H       -4.0970980     1.6828510     1.0402330
  H       -3.4086480     2.4606730    -0.3912090
  H       -4.6191930     1.1768790    -0.5707550
  H       -2.1040920    -2.8844300    -0.0003970
  H        4.5630320    -0.0321470     0.0049780
  H        3.4487670     2.3922440    -0.0062430
units angstrom
no_reorient  #important for SAPT in psi4, default
symmetry c1  #important for SAPT in psi4, default
}

set PROPERTIES_ORIGIN ["COM"]
properties('MP2/aug-cc-pvtz', properties = ['dipole'])
--------------------------------------------------------------------------

    Molecular point group: c1
  Charge       = 0
  Multiplicity = 1
  Basis Set: AUG-CC-PVTZ
    Blend: AUG-CC-PVTZ
  Basis Set: (AUG-CC-PVTZ AUX)
    Blend: AUG-CC-PVTZ-JKFIT

    Orbital Energies [Eh]
    ---------------------

    Doubly Occupied:

       1A    -91.994684     2A    -15.574464     3A    -15.573714
       4A    -11.312106     5A    -11.295109     6A    -11.274960
       7A    -11.274074     8A    -11.269211     9A    -11.264928
      10A    -11.240911    11A    -11.240032    12A    -11.232291
      13A     -8.994664    14A     -6.675426    15A     -6.674874
      16A     -6.674214    17A     -1.284261    18A     -1.250080
      19A     -1.117243    20A     -1.068298    21A     -1.061218
      22A     -0.994381    23A     -0.973948    24A     -0.867481
      25A     -0.842722    26A     -0.785696    27A     -0.746764
      28A     -0.699644    29A     -0.680156    30A     -0.676189
      31A     -0.621375    32A     -0.597320    33A     -0.589223
      34A     -0.572854    35A     -0.572377    36A     -0.559955
      37A     -0.543318    38A     -0.526465    39A     -0.505001
      40A     -0.497990    41A     -0.446215    42A     -0.426095
      43A     -0.400424    44A     -0.384756    45A     -0.360063
      46A     -0.311877

  @DF-RHF Final Energy:  -852.04654172801509

   => Energetics <=

    Nuclear Repulsion Energy =            720.9725117159869114
    One-Electron Energy =               -2596.9800030821479595
    Two-Electron Energy =                1023.9609496381459621
    Total Energy =                       -852.0465417280150859
  Basis Set: (AUG-CC-PVTZ AUX)
    Blend: AUG-CC-PVTZ-RI
    Molecular point group: c1

    Geometry (in Angstrom), charge = 0, multiplicity = 1:

       Center              X                  Y                   Z               Mass
    ------------   -----------------  -----------------  -----------------  -----------------
         S            2.255027268353    -0.997517646837     0.005690380829    31.972071174400
         N           -0.661552731647    -1.441112646837     0.002863380829    14.003074004430
         N            1.488818268353     1.476181353163    -0.005071619171    14.003074004430
         C           -2.716790731647     0.503796353163    -0.012888619171    12.000000000000
         C           -0.388039731647    -0.120319646837    -0.001193619171    12.000000000000
         C           -1.372609731647     0.876026353163    -0.007641619171    12.000000000000
         C            1.030864268353     0.233691353163    -0.000996619171    12.000000000000
         C           -3.005039731647    -0.867251646837    -0.007301619171    12.000000000000
         C           -3.813896731647     1.533058353163     0.014666380829    12.000000000000
         C           -2.033897131647    -1.722563846837    -0.001142519171    12.000000000000
         C            3.449204268353     0.231017353163     0.002844380829    12.000000000000
         C            2.856470268353     1.474417353163    -0.003035619171    12.000000000000
         H           -1.067408731647     1.919463353163    -0.014757619171     1.007825032230
         H           -4.035302731647    -1.216793646837    -0.014741619171     1.007825032230
         H           -4.154781731647     1.708881353163     1.040528380829     1.007825032230
         H           -3.466331731647     2.486703353163    -0.390913619171     1.007825032230
         H           -4.676876731647     1.202909353163    -0.570459619171     1.007825032230
         H           -2.161775731647    -2.858399646837    -0.000101619171     1.007825032230
         H            4.505348268353    -0.006116646837     0.005273380829     1.007825032230
         H            3.391083268353     2.418274353163    -0.005947619171     1.007825032230

  Basis Set: AUG-CC-PVTZ
    Blend: AUG-CC-PVTZ
  Basis Set: (AUG-CC-PVTZ AUX)
    Blend: AUG-CC-PVTZ-JKFIT
	 Reference Energy          =    -852.0465417280150859 [Eh]
	 Singles Energy            =      -0.0000000000000000 [Eh]
	 Same-Spin Energy          =      -0.5691631654139336 [Eh]
	 Opposite-Spin Energy      =      -1.7105140571601449 [Eh]
	 Correlation Energy        =      -2.2796772225740787 [Eh]
	 Total Energy              =    -854.3262189505891229 [Eh]

	 ================> DF-SCS-MP2 Energies <==================
	-----------------------------------------------------------
	 SCS Same-Spin Scale       =       0.3333333333333333 [-]
	 SCS Opposite-Spin Scale   =       1.2000000000000000 [-]
	 SCS Same-Spin Energy      =      -0.1897210551379779 [Eh]
	 SCS Opposite-Spin Energy  =      -2.0526168685921737 [Eh]
	 SCS Correlation Energy    =      -2.2423379237301515 [Eh]
	 SCS Total Energy          =    -854.2888796517452192 [Eh]
	-----------------------------------------------------------

  Dipole Moment: [D]
     X:    -1.2286      Y:     0.5512      Z:     0.0425     Total:     1.3472

*** Psi4 exiting successfully. Buy a developer a beer!
