                               Psi4 1.4a3.dev225

  ==> Input File <==

--------------------------------------------------------------------------
#psi4
#
memory 32 gb

molecule  {
0 1
  S        2.3127110    -1.0235480     0.0053950
  N       -0.6038690    -1.4671430     0.0025680
  N        1.5465020     1.4501510    -0.0053670
  C       -2.6591070     0.4777660    -0.0131840
  C       -0.3303560    -0.1463500    -0.0014890
  C       -1.3149260     0.8499960    -0.0079370
  C        1.0885480     0.2076610    -0.0012920
  C       -2.9473560    -0.8932820    -0.0075970
  C       -3.7562130     1.5070280     0.0143710
  C       -1.9011700    -1.8146870    -0.0009620
  C        3.5068880     0.2049870     0.0025490
  C        2.8641541     1.4484515    -0.0034054
  H       -1.0097250     1.8934330    -0.0150530
  H       -3.9776190    -1.2428240    -0.0150370
  H       -4.0970980     1.6828510     1.0402330
  H       -3.4086480     2.4606730    -0.3912090
  H       -4.6191930     1.1768790    -0.5707550
  H       -2.1040920    -2.8844300    -0.0003970
  H        4.5630320    -0.0321470     0.0049780
  H        3.4487670     2.3922440    -0.0062430
units angstrom
no_reorient  #important for SAPT in psi4, default
symmetry c1  #important for SAPT in psi4, default
}

set PROPERTIES_ORIGIN ["COM"]
properties('MP2/aug-cc-pvtz', properties = ['dipole'])
--------------------------------------------------------------------------

    Molecular point group: c1
  Charge       = 0
  Multiplicity = 1
  Basis Set: AUG-CC-PVTZ
    Blend: AUG-CC-PVTZ
  Basis Set: (AUG-CC-PVTZ AUX)
    Blend: AUG-CC-PVTZ-JKFIT

    Orbital Energies [Eh]
    ---------------------

    Doubly Occupied:

       1A    -91.996254     2A    -15.571116     3A    -15.570832
       4A    -11.311511     5A    -11.293774     6A    -11.281711
       7A    -11.271424     8A    -11.269827     9A    -11.264149
      10A    -11.242788    11A    -11.241548    12A    -11.239638
      13A     -8.995948    14A     -6.676654    15A     -6.676165
      16A     -6.675564    17A     -1.294897    18A     -1.259563
      19A     -1.113626    20A     -1.065789    21A     -1.063398
      22A     -0.982320    23A     -0.971486    24A     -0.869971
      25A     -0.844476    26A     -0.786546    27A     -0.748877
      28A     -0.699304    29A     -0.678307    30A     -0.670580
      31A     -0.634001    32A     -0.596130    33A     -0.588424
      34A     -0.576190    35A     -0.573927    36A     -0.562008
      37A     -0.547186    38A     -0.528028    39A     -0.514869
      40A     -0.492970    41A     -0.441911    42A     -0.422489
      43A     -0.394746    44A     -0.383178    45A     -0.367562
      46A     -0.299452

  @DF-RHF Final Energy:  -852.05745079483017

   => Energetics <=

    Nuclear Repulsion Energy =            721.1997996629220324
    One-Electron Energy =               -2597.4122678984808772
    Two-Electron Energy =                1024.1550174407286704
    Total Energy =                       -852.0574507948301743
  Basis Set: (AUG-CC-PVTZ AUX)
    Blend: AUG-CC-PVTZ-RI
    Molecular point group: c1

    Geometry (in Angstrom), charge = 0, multiplicity = 1:

       Center              X                  Y                   Z               Mass
    ------------   -----------------  -----------------  -----------------  -----------------
         S            2.253320152919    -0.993016761176     0.005663012176    31.972071174400
         N           -0.663259847081    -1.436611761176     0.002836012176    14.003074004430
         N            1.487111152919     1.480682238824    -0.005098987824    14.003074004430
         C           -2.718497847081     0.508297238824    -0.012915987824    12.000000000000
         C           -0.389746847081    -0.115818761176    -0.001220987824    12.000000000000
         C           -1.374316847081     0.880527238824    -0.007668987824    12.000000000000
         C            1.029157152919     0.238192238824    -0.001023987824    12.000000000000
         C           -3.006746847081    -0.862750761176    -0.007328987824    12.000000000000
         C           -3.815603847081     1.537559238824     0.014639012176    12.000000000000
         C           -1.960560847081    -1.784155761176    -0.000693987824    12.000000000000
         C            3.447497152919     0.235518238824     0.002817012176    12.000000000000
         C            2.804763252919     1.478982738824    -0.003137387824    12.000000000000
         H           -1.069115847081     1.923964238824    -0.014784987824     1.007825032230
         H           -4.037009847081    -1.212292761176    -0.014768987824     1.007825032230
         H           -4.156488847081     1.713382238824     1.040501012176     1.007825032230
         H           -3.468038847081     2.491204238824    -0.390940987824     1.007825032230
         H           -4.678583847081     1.207410238824    -0.570486987824     1.007825032230
         H           -2.163482847081    -2.853898761176    -0.000128987824     1.007825032230
         H            4.503641152919    -0.001615761176     0.005246012176     1.007825032230
         H            3.389376152919     2.422775238824    -0.005974987824     1.007825032230

  Basis Set: AUG-CC-PVTZ
    Blend: AUG-CC-PVTZ
  Basis Set: (AUG-CC-PVTZ AUX)
    Blend: AUG-CC-PVTZ-JKFIT
	 Reference Energy          =    -852.0574507948301743 [Eh]
	 Singles Energy            =      -0.0000000000000000 [Eh]
	 Same-Spin Energy          =      -0.5703773083570635 [Eh]
	 Opposite-Spin Energy      =      -1.7099030551247001 [Eh]
	 Correlation Energy        =      -2.2802803634817637 [Eh]
	 Total Energy              =    -854.3377311583119535 [Eh]

	 ================> DF-SCS-MP2 Energies <==================
	-----------------------------------------------------------
	 SCS Same-Spin Scale       =       0.3333333333333333 [-]
	 SCS Opposite-Spin Scale   =       1.2000000000000000 [-]
	 SCS Same-Spin Energy      =      -0.1901257694523545 [Eh]
	 SCS Opposite-Spin Energy  =      -2.0518836661496400 [Eh]
	 SCS Correlation Energy    =      -2.2420094356019944 [Eh]
	 SCS Total Energy          =    -854.2994602304321461 [Eh]
	-----------------------------------------------------------

  Dipole Moment: [D]
     X:    -1.2159      Y:     0.3814      Z:     0.0422     Total:     1.2750

*** Psi4 exiting successfully. Buy a developer a beer!
