                               Psi4 1.4a3.dev225

  ==> Input File <==

--------------------------------------------------------------------------
#psi4
#
memory 32 gb

molecule  {
0 1
  S        2.3127110    -1.0235480     0.0053950
  N       -0.6038690    -1.4671430     0.0025680
  N        1.5465020     1.4501510    -0.0053670
  C       -2.6591070     0.4777660    -0.0131840
  C       -0.3303560    -0.1463500    -0.0014890
  C       -1.1221812     0.9033708    -0.0071846
  C        1.0885480     0.2076610    -0.0012920
  C       -2.9473560    -0.8932820    -0.0075970
  C       -3.7562130     1.5070280     0.0143710
  C       -1.9011700    -1.8146870    -0.0009620
  C        3.5068880     0.2049870     0.0025490
  C        2.9141540     1.4483870    -0.0033310
  H       -1.0097250     1.8934330    -0.0150530
  H       -3.9776190    -1.2428240    -0.0150370
  H       -4.0970980     1.6828510     1.0402330
  H       -3.4086480     2.4606730    -0.3912090
  H       -4.6191930     1.1768790    -0.5707550
  H       -2.1040920    -2.8844300    -0.0003970
  H        4.5630320    -0.0321470     0.0049780
  H        3.4487670     2.3922440    -0.0062430
units angstrom
no_reorient  #important for SAPT in psi4, default
symmetry c1  #important for SAPT in psi4, default
}

set PROPERTIES_ORIGIN ["COM"]
properties('MP2/aug-cc-pvtz', properties = ['dipole'])
--------------------------------------------------------------------------

    Molecular point group: c1
  Charge       = 0
  Multiplicity = 1
  Basis Set: AUG-CC-PVTZ
    Blend: AUG-CC-PVTZ
  Basis Set: (AUG-CC-PVTZ AUX)
    Blend: AUG-CC-PVTZ-JKFIT

    Orbital Energies [Eh]
    ---------------------

    Doubly Occupied:

       1A    -91.987682     2A    -15.569612     3A    -15.565185
       4A    -11.304801     5A    -11.293195     6A    -11.291159
       7A    -11.281578     8A    -11.264192     9A    -11.256895
      10A    -11.245399    11A    -11.244830    12A    -11.243921
      13A     -8.987825    14A     -6.668612    15A     -6.668039
      16A     -6.667404    17A     -1.282156    18A     -1.253362
      19A     -1.097729    20A     -1.078243    21A     -1.055923
      22A     -0.982445    23A     -0.976516    24A     -0.869849
      25A     -0.841756    26A     -0.780504    27A     -0.744577
      28A     -0.704387    29A     -0.689945    30A     -0.664825
      31A     -0.647959    32A     -0.595839    33A     -0.591705
      34A     -0.572647    35A     -0.571436    36A     -0.564191
      37A     -0.546344    38A     -0.525447    39A     -0.497435
      40A     -0.480247    41A     -0.441066    42A     -0.421574
      43A     -0.397806    44A     -0.377532    45A     -0.355160
      46A     -0.306574

  @DF-RHF Final Energy:  -852.01920435368027

   => Energetics <=

    Nuclear Repulsion Energy =            720.2892593473918623
    One-Electron Energy =               -2595.7059042794289780
    Two-Electron Energy =                1023.3974405783568500
    Total Energy =                       -852.0192043536802657
  Basis Set: (AUG-CC-PVTZ AUX)
    Blend: AUG-CC-PVTZ-RI
    Molecular point group: c1

    Geometry (in Angstrom), charge = 0, multiplicity = 1:

       Center              X                  Y                   Z               Mass
    ------------   -----------------  -----------------  -----------------  -----------------
         S            2.236773215627    -0.996650711540     0.005606652520    31.972071174400
         N           -0.679806784373    -1.440245711540     0.002779652520    14.003074004430
         N            1.470564215627     1.477048288460    -0.005155347480    14.003074004430
         C           -2.735044784373     0.504663288460    -0.012972347480    12.000000000000
         C           -0.406293784373    -0.119452711540    -0.001277347480    12.000000000000
         C           -1.198118984373     0.930268088460    -0.006972947480    12.000000000000
         C            1.012610215627     0.234558288460    -0.001080347480    12.000000000000
         C           -3.023293784373    -0.866384711540    -0.007385347480    12.000000000000
         C           -3.832150784373     1.533925288460     0.014582652520    12.000000000000
         C           -1.977107784373    -1.787789711540    -0.000750347480    12.000000000000
         C            3.430950215627     0.231884288460     0.002760652520    12.000000000000
         C            2.838216215627     1.475284288460    -0.003119347480    12.000000000000
         H           -1.085662784373     1.920330288460    -0.014841347480     1.007825032230
         H           -4.053556784373    -1.215926711540    -0.014825347480     1.007825032230
         H           -4.173035784373     1.709748288460     1.040444652520     1.007825032230
         H           -3.484585784373     2.487570288460    -0.390997347480     1.007825032230
         H           -4.695130784373     1.203776288460    -0.570543347480     1.007825032230
         H           -2.180029784373    -2.857532711540    -0.000185347480     1.007825032230
         H            4.487094215627    -0.005249711540     0.005189652520     1.007825032230
         H            3.372829215627     2.419141288460    -0.006031347480     1.007825032230

  Basis Set: AUG-CC-PVTZ
    Blend: AUG-CC-PVTZ
  Basis Set: (AUG-CC-PVTZ AUX)
    Blend: AUG-CC-PVTZ-JKFIT
	 Reference Energy          =    -852.0192043536802657 [Eh]
	 Singles Energy            =      -0.0000000000000000 [Eh]
	 Same-Spin Energy          =      -0.5683956378257575 [Eh]
	 Opposite-Spin Energy      =      -1.7106953711484274 [Eh]
	 Correlation Energy        =      -2.2790910089741852 [Eh]
	 Total Energy              =    -854.2982953626544713 [Eh]

	 ================> DF-SCS-MP2 Energies <==================
	-----------------------------------------------------------
	 SCS Same-Spin Scale       =       0.3333333333333333 [-]
	 SCS Opposite-Spin Scale   =       1.2000000000000000 [-]
	 SCS Same-Spin Energy      =      -0.1894652126085858 [Eh]
	 SCS Opposite-Spin Energy  =      -2.0528344453781129 [Eh]
	 SCS Correlation Energy    =      -2.2422996579866985 [Eh]
	 SCS Total Energy          =    -854.2615040116669434 [Eh]
	-----------------------------------------------------------

  Dipole Moment: [D]
     X:    -1.7080      Y:     0.3782      Z:     0.0472     Total:     1.7500

*** Psi4 exiting successfully. Buy a developer a beer!
