                               Psi4 1.4a3.dev225

  ==> Input File <==

--------------------------------------------------------------------------
#psi4
#
memory 32 gb

molecule  {
0 1
  S        2.4347030    -0.8888438     0.0049697
  N       -0.6038690    -1.4671430     0.0025680
  N        1.5465020     1.4501510    -0.0053670
  C       -2.6591070     0.4777660    -0.0131840
  C       -0.3303560    -0.1463500    -0.0014890
  C       -1.3149260     0.8499960    -0.0079370
  C        1.0885480     0.2076610    -0.0012920
  C       -2.9473560    -0.8932820    -0.0075970
  C       -3.7562130     1.5070280     0.0143710
  C       -1.9011700    -1.8146870    -0.0009620
  C        3.5068880     0.2049870     0.0025490
  C        2.9141540     1.4483870    -0.0033310
  H       -1.0097250     1.8934330    -0.0150530
  H       -3.9776190    -1.2428240    -0.0150370
  H       -4.0970980     1.6828510     1.0402330
  H       -3.4086480     2.4606730    -0.3912090
  H       -4.6191930     1.1768790    -0.5707550
  H       -2.1040920    -2.8844300    -0.0003970
  H        4.5630320    -0.0321470     0.0049780
  H        3.4487670     2.3922440    -0.0062430
units angstrom
no_reorient  #important for SAPT in psi4, default
symmetry c1  #important for SAPT in psi4, default
}

set PROPERTIES_ORIGIN ["COM"]
properties('MP2/aug-cc-pvtz', properties = ['dipole'])
--------------------------------------------------------------------------

    Molecular point group: c1
  Charge       = 0
  Multiplicity = 1
  Basis Set: AUG-CC-PVTZ
    Blend: AUG-CC-PVTZ
  Basis Set: (AUG-CC-PVTZ AUX)
    Blend: AUG-CC-PVTZ-JKFIT

    Orbital Energies [Eh]
    ---------------------

    Doubly Occupied:

       1A    -91.987958     2A    -15.573861     3A    -15.568677
       4A    -11.303772     5A    -11.294747     6A    -11.279720
       7A    -11.270045     8A    -11.264165     9A    -11.252149
      10A    -11.240628    11A    -11.239919    12A    -11.238544
      13A     -8.993770    14A     -6.675269    15A     -6.673734
      16A     -6.673115    17A     -1.293828    18A     -1.257605
      19A     -1.113000    20A     -1.107456    21A     -1.057941
      22A     -0.980416    23A     -0.970565    24A     -0.871481
      25A     -0.841308    26A     -0.782065    27A     -0.757519
      28A     -0.707084    29A     -0.676624    30A     -0.672894
      31A     -0.636164    32A     -0.595748    33A     -0.592187
      34A     -0.581031    35A     -0.577025    36A     -0.560006
      37A     -0.549179    38A     -0.531094    39A     -0.517053
      40A     -0.497200    41A     -0.438708    42A     -0.419173
      43A     -0.412229    44A     -0.377448    45A     -0.362970
      46A     -0.298628

  @DF-RHF Final Energy:  -852.03702654147901

   => Energetics <=

    Nuclear Repulsion Energy =            723.8365440357384841
    One-Electron Energy =               -2602.6157338155871912
    Two-Electron Energy =                1026.7421632383698125
    Total Energy =                       -852.0370265414790083
  Basis Set: (AUG-CC-PVTZ AUX)
    Blend: AUG-CC-PVTZ-RI
    Molecular point group: c1

    Geometry (in Angstrom), charge = 0, multiplicity = 1:

       Center              X                  Y                   Z               Mass
    ------------   -----------------  -----------------  -----------------  -----------------
         S            2.349747992737    -0.882772787409     0.005309882494    31.972071174400
         N           -0.688824007263    -1.461071987409     0.002908182494    14.003074004430
         N            1.461546992737     1.456222012591    -0.005026817506    14.003074004430
         C           -2.744062007263     0.483837012591    -0.012843817506    12.000000000000
         C           -0.415311007263    -0.140278987409    -0.001148817506    12.000000000000
         C           -1.399881007263     0.856067012591    -0.007596817506    12.000000000000
         C            1.003592992737     0.213732012591    -0.000951817506    12.000000000000
         C           -3.032311007263    -0.887210987409    -0.007256817506    12.000000000000
         C           -3.841168007263     1.513099012591     0.014711182494    12.000000000000
         C           -1.986125007263    -1.808615987409    -0.000621817506    12.000000000000
         C            3.421932992737     0.211058012591     0.002889182494    12.000000000000
         C            2.829198992737     1.454458012591    -0.002990817506    12.000000000000
         H           -1.094680007263     1.899504012591    -0.014712817506     1.007825032230
         H           -4.062574007263    -1.236752987409    -0.014696817506     1.007825032230
         H           -4.182053007263     1.688922012591     1.040573182494     1.007825032230
         H           -3.493603007263     2.466744012591    -0.390868817506     1.007825032230
         H           -4.704148007263     1.182950012591    -0.570414817506     1.007825032230
         H           -2.189047007263    -2.878358987409    -0.000056817506     1.007825032230
         H            4.478076992737    -0.026075987409     0.005318182494     1.007825032230
         H            3.363811992737     2.398315012591    -0.005902817506     1.007825032230

  Basis Set: AUG-CC-PVTZ
    Blend: AUG-CC-PVTZ
  Basis Set: (AUG-CC-PVTZ AUX)
    Blend: AUG-CC-PVTZ-JKFIT
	 Reference Energy          =    -852.0370265414790083 [Eh]
	 Singles Energy            =      -0.0000000000000000 [Eh]
	 Same-Spin Energy          =      -0.5712989083693173 [Eh]
	 Opposite-Spin Energy      =      -1.7084473826560544 [Eh]
	 Correlation Energy        =      -2.2797462910253716 [Eh]
	 Total Energy              =    -854.3167728325043981 [Eh]

	 ================> DF-SCS-MP2 Energies <==================
	-----------------------------------------------------------
	 SCS Same-Spin Scale       =       0.3333333333333333 [-]
	 SCS Opposite-Spin Scale   =       1.2000000000000000 [-]
	 SCS Same-Spin Energy      =      -0.1904329694564391 [Eh]
	 SCS Opposite-Spin Energy  =      -2.0501368591872651 [Eh]
	 SCS Correlation Energy    =      -2.2405698286437041 [Eh]
	 SCS Total Energy          =    -854.2775963701227511 [Eh]
	-----------------------------------------------------------

  Dipole Moment: [D]
     X:    -0.9571      Y:     0.4006      Z:     0.0423     Total:     1.0384

*** Psi4 exiting successfully. Buy a developer a beer!
