                               Psi4 1.4a3.dev225

  ==> Input File <==

--------------------------------------------------------------------------
#psi4
#
memory 32 gb

molecule  {
0 1
  S        2.3127110    -1.0235480     0.0053950
  N       -0.6038690    -1.4671430     0.0025680
  N        1.5465020     1.4501510    -0.0053670
  C       -2.6591070     0.4777660    -0.0131840
  C       -0.3303560    -0.1463500    -0.0014890
  C       -1.3149260     0.8499960    -0.0079370
  C        1.0885480     0.2076610    -0.0012920
  C       -2.9473560    -0.8932820    -0.0075970
  C       -3.7562130     1.5070280     0.0143710
  C       -1.8818513    -1.8095116    -0.0009094
  C        3.5068880     0.2049870     0.0025490
  C        2.9141540     1.4483870    -0.0033310
  H       -1.0097250     1.8934330    -0.0150530
  H       -3.9776190    -1.2428240    -0.0150370
  H       -4.0970980     1.6828510     1.0402330
  H       -3.4086480     2.4606730    -0.3912090
  H       -4.6191930     1.1768790    -0.5707550
  H       -2.1040920    -2.8844300    -0.0003970
  H        4.5630320    -0.0321470     0.0049780
  H        3.4487670     2.3922440    -0.0062430
units angstrom
no_reorient  #important for SAPT in psi4, default
symmetry c1  #important for SAPT in psi4, default
}

set PROPERTIES_ORIGIN ["COM"]
properties('MP2/aug-cc-pvtz', properties = ['dipole'])
--------------------------------------------------------------------------

    Molecular point group: c1
  Charge       = 0
  Multiplicity = 1
  Basis Set: AUG-CC-PVTZ
    Blend: AUG-CC-PVTZ
  Basis Set: (AUG-CC-PVTZ AUX)
    Blend: AUG-CC-PVTZ-JKFIT

    Orbital Energies [Eh]
    ---------------------

    Doubly Occupied:

       1A    -91.993827     2A    -15.572231     3A    -15.570923
       4A    -11.311765     5A    -11.293958     6A    -11.282232
       7A    -11.271243     8A    -11.268529     9A    -11.263271
      10A    -11.244074    11A    -11.242202    12A    -11.239592
      13A     -8.993820    14A     -6.674586    15A     -6.674036
      16A     -6.673375    17A     -1.286156    18A     -1.260451
      19A     -1.114508    20A     -1.065244    21A     -1.060585
      22A     -0.983223    23A     -0.972398    24A     -0.873663
      25A     -0.842402    26A     -0.783778    27A     -0.749885
      28A     -0.697544    29A     -0.680163    30A     -0.671699
      31A     -0.632451    32A     -0.596062    33A     -0.586681
      34A     -0.573014    35A     -0.571416    36A     -0.562540
      37A     -0.547558    38A     -0.528156    39A     -0.515434
      40A     -0.500304    41A     -0.440675    42A     -0.420729
      43A     -0.393304    44A     -0.381691    45A     -0.368129
      46A     -0.303937

  @DF-RHF Final Energy:  -852.06173313894647

   => Energetics <=

    Nuclear Repulsion Energy =            720.6653324768609536
    One-Electron Energy =               -2596.3872470479745971
    Two-Electron Energy =                1023.6601814321672919
    Total Energy =                       -852.0617331389464653
  Basis Set: (AUG-CC-PVTZ AUX)
    Blend: AUG-CC-PVTZ-RI
    Molecular point group: c1

    Geometry (in Angstrom), charge = 0, multiplicity = 1:

       Center              X                  Y                   Z               Mass
    ------------   -----------------  -----------------  -----------------  -----------------
         S            2.248594980640    -0.993365150829     0.005654355093    31.972071174400
         N           -0.667985019360    -1.436960150829     0.002827355093    14.003074004430
         N            1.482385980640     1.480333849171    -0.005107644907    14.003074004430
         C           -2.723223019360     0.507948849171    -0.012924644907    12.000000000000
         C           -0.394472019360    -0.116167150829    -0.001229644907    12.000000000000
         C           -1.379042019360     0.880178849171    -0.007677644907    12.000000000000
         C            1.024431980640     0.237843849171    -0.001032644907    12.000000000000
         C           -3.011472019360    -0.863099150829    -0.007337644907    12.000000000000
         C           -3.820329019360     1.537210849171     0.014630355093    12.000000000000
         C           -1.945967319360    -1.779328750829    -0.000650044907    12.000000000000
         C            3.442771980640     0.235169849171     0.002808355093    12.000000000000
         C            2.850037980640     1.478569849171    -0.003071644907    12.000000000000
         H           -1.073841019360     1.923615849171    -0.014793644907     1.007825032230
         H           -4.041735019360    -1.212641150829    -0.014777644907     1.007825032230
         H           -4.161214019360     1.713033849171     1.040492355093     1.007825032230
         H           -3.472764019360     2.490855849171    -0.390949644907     1.007825032230
         H           -4.683309019360     1.207061849171    -0.570495644907     1.007825032230
         H           -2.168208019360    -2.854247150829    -0.000137644907     1.007825032230
         H            4.498915980640    -0.001964150829     0.005237355093     1.007825032230
         H            3.384650980640     2.422426849171    -0.005983644907     1.007825032230

  Basis Set: AUG-CC-PVTZ
    Blend: AUG-CC-PVTZ
  Basis Set: (AUG-CC-PVTZ AUX)
    Blend: AUG-CC-PVTZ-JKFIT
	 Reference Energy          =    -852.0617331389464653 [Eh]
	 Singles Energy            =      -0.0000000000000000 [Eh]
	 Same-Spin Energy          =      -0.5690247945567560 [Eh]
	 Opposite-Spin Energy      =      -1.7088866810914736 [Eh]
	 Correlation Energy        =      -2.2779114756482297 [Eh]
	 Total Energy              =    -854.3396446145947039 [Eh]

	 ================> DF-SCS-MP2 Energies <==================
	-----------------------------------------------------------
	 SCS Same-Spin Scale       =       0.3333333333333333 [-]
	 SCS Opposite-Spin Scale   =       1.2000000000000000 [-]
	 SCS Same-Spin Energy      =      -0.1896749315189187 [Eh]
	 SCS Opposite-Spin Energy  =      -2.0506640173097681 [Eh]
	 SCS Correlation Energy    =      -2.2403389488286867 [Eh]
	 SCS Total Energy          =    -854.3020720877751728 [Eh]
	-----------------------------------------------------------

  Dipole Moment: [D]
     X:    -1.2668      Y:     0.3951      Z:     0.0422     Total:     1.3276

*** Psi4 exiting successfully. Buy a developer a beer!
