                               Psi4 1.4a3.dev225

  ==> Input File <==

--------------------------------------------------------------------------
#psi4
#
memory 32 gb

molecule  {
0 1
  S        2.3127110    -1.0235480     0.0053950
  N       -0.6038690    -1.4671430     0.0025680
  N        1.5465020     1.4501510    -0.0053670
  C       -2.6591070     0.4777660    -0.0131840
  C       -0.3303560    -0.1463500    -0.0014890
  C       -1.3149260     0.8499960    -0.0079370
  C        1.0885480     0.2076610    -0.0012920
  C       -2.9473560    -0.8932820    -0.0075970
  C       -3.7562130     1.5070280     0.0143710
  C       -1.9011700    -1.8146870    -0.0009620
  C        3.5068880     0.2049870     0.0025490
  C        2.9141540     1.4483870    -0.0033310
  H       -1.0097250     1.8934330    -0.0150530
  H       -3.9776190    -1.2428240    -0.0150370
  H       -4.0970980     1.6828510     1.0402330
  H       -3.4086480     2.4606730    -0.3912090
  H       -4.6191930     1.1768790    -0.5707550
  H       -2.1134104    -2.9335540    -0.0003711
  H        4.5630320    -0.0321470     0.0049780
  H        3.4487670     2.3922440    -0.0062430
units angstrom
no_reorient  #important for SAPT in psi4, default
symmetry c1  #important for SAPT in psi4, default
}

set PROPERTIES_ORIGIN ["COM"]
properties('MP2/aug-cc-pvtz', properties = ['dipole'])
--------------------------------------------------------------------------

    Molecular point group: c1
  Charge       = 0
  Multiplicity = 1
  Basis Set: AUG-CC-PVTZ
    Blend: AUG-CC-PVTZ
  Basis Set: (AUG-CC-PVTZ AUX)
    Blend: AUG-CC-PVTZ-JKFIT

    Orbital Energies [Eh]
    ---------------------

    Doubly Occupied:

       1A    -91.993901     2A    -15.572591     3A    -15.572409
       4A    -11.311913     5A    -11.294405     6A    -11.287564
       7A    -11.271948     8A    -11.268598     9A    -11.263479
      10A    -11.243909    11A    -11.242152    12A    -11.239993
      13A     -8.993889    14A     -6.674654    15A     -6.674103
      16A     -6.673442    17A     -1.284961    18A     -1.256769
      19A     -1.114190    20A     -1.065046    21A     -1.059944
      22A     -0.984109    23A     -0.972628    24A     -0.871639
      25A     -0.840973    26A     -0.783644    27A     -0.748735
      28A     -0.697133    29A     -0.679142    30A     -0.671590
      31A     -0.627676    32A     -0.596077    33A     -0.586258
      34A     -0.572831    35A     -0.571524    36A     -0.561725
      37A     -0.546791    38A     -0.526713    39A     -0.513810
      40A     -0.500333    41A     -0.441085    42A     -0.421076
      43A     -0.393705    44A     -0.381901    45A     -0.366577
      46A     -0.305154

  @DF-RHF Final Energy:  -852.05903741025668

   => Energetics <=

    Nuclear Repulsion Energy =            720.0925006137296123
    One-Electron Energy =               -2595.2576926567662667
    Two-Electron Energy =                1023.1061546327800897
    Total Energy =                       -852.0590374102566784
  Basis Set: (AUG-CC-PVTZ AUX)
    Blend: AUG-CC-PVTZ-RI
    Molecular point group: c1

    Geometry (in Angstrom), charge = 0, multiplicity = 1:

       Center              X                  Y                   Z               Mass
    ------------   -----------------  -----------------  -----------------  -----------------
         S            2.249965206690    -0.992731131984     0.005657792349    31.972071174400
         N           -0.666614793310    -1.436326131984     0.002830792349    14.003074004430
         N            1.483756206690     1.480967868016    -0.005104207651    14.003074004430
         C           -2.721852793310     0.508582868016    -0.012921207651    12.000000000000
         C           -0.393101793310    -0.115533131984    -0.001226207651    12.000000000000
         C           -1.377671793310     0.880812868016    -0.007674207651    12.000000000000
         C            1.025802206690     0.238477868016    -0.001029207651    12.000000000000
         C           -3.010101793310    -0.862465131984    -0.007334207651    12.000000000000
         C           -3.818958793310     1.537844868016     0.014633792349    12.000000000000
         C           -1.963915793310    -1.783870131984    -0.000699207651    12.000000000000
         C            3.444142206690     0.235803868016     0.002811792349    12.000000000000
         C            2.851408206690     1.479203868016    -0.003068207651    12.000000000000
         H           -1.072470793310     1.924249868016    -0.014790207651     1.007825032230
         H           -4.040364793310    -1.212007131984    -0.014774207651     1.007825032230
         H           -4.159843793310     1.713667868016     1.040495792349     1.007825032230
         H           -3.471393793310     2.491489868016    -0.390946207651     1.007825032230
         H           -4.681938793310     1.207695868016    -0.570492207651     1.007825032230
         H           -2.176156193310    -2.902737131984    -0.000108307651     1.007825032230
         H            4.500286206690    -0.001330131984     0.005240792349     1.007825032230
         H            3.386021206690     2.423060868016    -0.005980207651     1.007825032230

  Basis Set: AUG-CC-PVTZ
    Blend: AUG-CC-PVTZ
  Basis Set: (AUG-CC-PVTZ AUX)
    Blend: AUG-CC-PVTZ-JKFIT
	 Reference Energy          =    -852.0590374102566784 [Eh]
	 Singles Energy            =      -0.0000000000000000 [Eh]
	 Same-Spin Energy          =      -0.5692852630878795 [Eh]
	 Opposite-Spin Energy      =      -1.7097360746695907 [Eh]
	 Correlation Energy        =      -2.2790213377574702 [Eh]
	 Total Energy              =    -854.3380587480141912 [Eh]

	 ================> DF-SCS-MP2 Energies <==================
	-----------------------------------------------------------
	 SCS Same-Spin Scale       =       0.3333333333333333 [-]
	 SCS Opposite-Spin Scale   =       1.2000000000000000 [-]
	 SCS Same-Spin Energy      =      -0.1897617543626265 [Eh]
	 SCS Opposite-Spin Energy  =      -2.0516832896035089 [Eh]
	 SCS Correlation Energy    =      -2.2414450439661353 [Eh]
	 SCS Total Energy          =    -854.3004824542227880 [Eh]
	-----------------------------------------------------------

  Dipole Moment: [D]
     X:    -1.2643      Y:     0.4183      Z:     0.0420     Total:     1.3323

*** Psi4 exiting successfully. Buy a developer a beer!
