                               Psi4 1.4a3.dev225

  ==> Input File <==

--------------------------------------------------------------------------
#psi4
#
memory 32 gb

molecule  {
0 1
  S        2.2689961    -1.0655205     0.0055207
  N       -0.6038690    -1.4671430     0.0025680
  N        1.5465020     1.4501510    -0.0053670
  C       -2.6591070     0.4777660    -0.0131840
  C       -0.3303560    -0.1463500    -0.0014890
  C       -1.3149260     0.8499960    -0.0079370
  C        1.0885480     0.2076610    -0.0012920
  C       -2.9473560    -0.8932820    -0.0075970
  C       -3.7562130     1.5070280     0.0143710
  C       -1.9011700    -1.8146870    -0.0009620
  C        3.5068880     0.2049870     0.0025490
  C        2.9141540     1.4483870    -0.0033310
  H       -1.0097250     1.8934330    -0.0150530
  H       -3.9776190    -1.2428240    -0.0150370
  H       -4.0970980     1.6828510     1.0402330
  H       -3.4086480     2.4606730    -0.3912090
  H       -4.6191930     1.1768790    -0.5707550
  H       -2.1040920    -2.8844300    -0.0003970
  H        4.5630320    -0.0321470     0.0049780
  H        3.4487670     2.3922440    -0.0062430
units angstrom
no_reorient  #important for SAPT in psi4, default
symmetry c1  #important for SAPT in psi4, default
}

set PROPERTIES_ORIGIN ["COM"]
properties('MP2/aug-cc-pvtz', properties = ['dipole'])
--------------------------------------------------------------------------

    Molecular point group: c1
  Charge       = 0
  Multiplicity = 1
  Basis Set: AUG-CC-PVTZ
    Blend: AUG-CC-PVTZ
  Basis Set: (AUG-CC-PVTZ AUX)
    Blend: AUG-CC-PVTZ-JKFIT

    Orbital Energies [Eh]
    ---------------------

    Doubly Occupied:

       1A    -91.994878     2A    -15.572780     3A    -15.572029
       4A    -11.313845     5A    -11.293590     6A    -11.282538
       7A    -11.272014     8A    -11.270055     9A    -11.266709
      10A    -11.244161    11A    -11.242463    12A    -11.240110
      13A     -8.993661    14A     -6.674379    15A     -6.673730
      16A     -6.673158    17A     -1.283403    18A     -1.256120
      19A     -1.114473    20A     -1.064145    21A     -1.050585
      22A     -0.985554    23A     -0.972832    24A     -0.871880
      25A     -0.844700    26A     -0.785399    27A     -0.747062
      28A     -0.694713    29A     -0.679700    30A     -0.670749
      31A     -0.633766    32A     -0.596103    33A     -0.587919
      34A     -0.571072    35A     -0.569585    36A     -0.562273
      37A     -0.546815    38A     -0.525021    39A     -0.513992
      40A     -0.496973    41A     -0.441778    42A     -0.421351
      43A     -0.388395    44A     -0.383244    45A     -0.367346
      46A     -0.306474

  @DF-RHF Final Energy:  -852.05879146279403

   => Energetics <=

    Nuclear Repulsion Energy =            719.5295448457187604
    One-Electron Energy =               -2594.1496276084349120
    Two-Electron Energy =                1022.5612912999222317
    Total Energy =                       -852.0587914627940336
  Basis Set: (AUG-CC-PVTZ AUX)
    Blend: AUG-CC-PVTZ-RI
    Molecular point group: c1

    Geometry (in Angstrom), charge = 0, multiplicity = 1:

       Center              X                  Y                   Z               Mass
    ------------   -----------------  -----------------  -----------------  -----------------
         S            2.214136344609    -1.027361929278     0.005760811321    31.972071174400
         N           -0.658728755391    -1.428984429278     0.002808111321    14.003074004430
         N            1.491642244609     1.488309570722    -0.005126888679    14.003074004430
         C           -2.713966755391     0.515924570722    -0.012943888679    12.000000000000
         C           -0.385215755391    -0.108191429278    -0.001248888679    12.000000000000
         C           -1.369785755391     0.888154570722    -0.007696888679    12.000000000000
         C            1.033688244609     0.245819570722    -0.001051888679    12.000000000000
         C           -3.002215755391    -0.855123429278    -0.007356888679    12.000000000000
         C           -3.811072755391     1.545186570722     0.014611111321    12.000000000000
         C           -1.956029755391    -1.776528429278    -0.000721888679    12.000000000000
         C            3.452028244609     0.243145570722     0.002789111321    12.000000000000
         C            2.859294244609     1.486545570722    -0.003090888679    12.000000000000
         H           -1.064584755391     1.931591570722    -0.014812888679     1.007825032230
         H           -4.032478755391    -1.204665429278    -0.014796888679     1.007825032230
         H           -4.151957755391     1.721009570722     1.040473111321     1.007825032230
         H           -3.463507755391     2.498831570722    -0.390968888679     1.007825032230
         H           -4.674052755391     1.215037570722    -0.570514888679     1.007825032230
         H           -2.158951755391    -2.846271429278    -0.000156888679     1.007825032230
         H            4.508172244609     0.006011570722     0.005218111321     1.007825032230
         H            3.393907244609     2.430402570722    -0.006002888679     1.007825032230

  Basis Set: AUG-CC-PVTZ
    Blend: AUG-CC-PVTZ
  Basis Set: (AUG-CC-PVTZ AUX)
    Blend: AUG-CC-PVTZ-JKFIT
	 Reference Energy          =    -852.0587914627940336 [Eh]
	 Singles Energy            =      -0.0000000000000000 [Eh]
	 Same-Spin Energy          =      -0.5687279804981128 [Eh]
	 Opposite-Spin Energy      =      -1.7100256365483233 [Eh]
	 Correlation Energy        =      -2.2787536170464362 [Eh]
	 Total Energy              =    -854.3375450798404245 [Eh]

	 ================> DF-SCS-MP2 Energies <==================
	-----------------------------------------------------------
	 SCS Same-Spin Scale       =       0.3333333333333333 [-]
	 SCS Opposite-Spin Scale   =       1.2000000000000000 [-]
	 SCS Same-Spin Energy      =      -0.1895759934993709 [Eh]
	 SCS Opposite-Spin Energy  =      -2.0520307638579878 [Eh]
	 SCS Correlation Energy    =      -2.2416067573573586 [Eh]
	 SCS Total Energy          =    -854.3003982201513509 [Eh]
	-----------------------------------------------------------

  Dipole Moment: [D]
     X:    -1.3718      Y:     0.4031      Z:     0.0419     Total:     1.4304

*** Psi4 exiting successfully. Buy a developer a beer!
