                               Psi4 1.4a3.dev225

  ==> Input File <==

--------------------------------------------------------------------------
#psi4
#
memory 32 gb

molecule  {
0 1
  S        2.3127110    -1.0235480     0.0053950
  N       -0.6038690    -1.4671430     0.0025680
  N        1.5465020     1.4501510    -0.0053670
  C       -2.6591070     0.4777660    -0.0131840
  C       -0.3303560    -0.1463500    -0.0014890
  C       -1.3149260     0.8499960    -0.0079370
  C        1.0885480     0.2076610    -0.0012920
  C       -2.9473560    -0.8932820    -0.0075970
  C       -3.7562130     1.5070280     0.0143710
  C       -1.9011700    -1.8146870    -0.0009620
  C        3.5068880     0.2049870     0.0025490
  C        2.9141540     1.4483870    -0.0033310
  H       -1.0097250     1.8934330    -0.0150530
  H       -4.1670110    -1.3070799    -0.0164047
  H       -4.0970980     1.6828510     1.0402330
  H       -3.4086480     2.4606730    -0.3912090
  H       -4.6191930     1.1768790    -0.5707550
  H       -2.1040920    -2.8844300    -0.0003970
  H        4.5630320    -0.0321470     0.0049780
  H        3.4487670     2.3922440    -0.0062430
units angstrom
no_reorient  #important for SAPT in psi4, default
symmetry c1  #important for SAPT in psi4, default
}

set PROPERTIES_ORIGIN ["COM"]
properties('MP2/aug-cc-pvtz', properties = ['dipole'])
--------------------------------------------------------------------------

    Molecular point group: c1
  Charge       = 0
  Multiplicity = 1
  Basis Set: AUG-CC-PVTZ
    Blend: AUG-CC-PVTZ
  Basis Set: (AUG-CC-PVTZ AUX)
    Blend: AUG-CC-PVTZ-JKFIT

    Orbital Energies [Eh]
    ---------------------

    Doubly Occupied:

       1A    -91.994430     2A    -15.573723     3A    -15.573161
       4A    -11.312463     5A    -11.295168     6A    -11.284144
       7A    -11.274107     8A    -11.269063     9A    -11.264636
      10A    -11.263980    11A    -11.243770    12A    -11.239777
      13A     -8.994419    14A     -6.675184    15A     -6.674633
      16A     -6.673972    17A     -1.285721    18A     -1.257941
      19A     -1.113735    20A     -1.065330    21A     -1.060671
      22A     -0.982100    23A     -0.972621    24A     -0.866833
      25A     -0.845113    26A     -0.784624    27A     -0.749686
      28A     -0.696383    29A     -0.679831    30A     -0.652784
      31A     -0.632361    32A     -0.596285    33A     -0.582303
      34A     -0.573246    35A     -0.571628    36A     -0.552917
      37A     -0.545974    38A     -0.527630    39A     -0.506249
      40A     -0.500849    41A     -0.441683    42A     -0.421911
      43A     -0.394404    44A     -0.382929    45A     -0.367586
      46A     -0.305882

  @DF-RHF Final Energy:  -852.03927148840705

   => Energetics <=

    Nuclear Repulsion Energy =            719.3839500952714161
    One-Electron Energy =               -2593.7987567902096089
    Two-Electron Energy =                1022.3755352065312536
    Total Energy =                       -852.0392714884070529
  Basis Set: (AUG-CC-PVTZ AUX)
    Blend: AUG-CC-PVTZ-RI
    Molecular point group: c1

    Geometry (in Angstrom), charge = 0, multiplicity = 1:

       Center              X                  Y                   Z               Mass
    ------------   -----------------  -----------------  -----------------  -----------------
         S            2.250996119193    -0.992644502601     0.005665770640    31.972071174400
         N           -0.665583880807    -1.436239502601     0.002838770640    14.003074004430
         N            1.484787119193     1.481054497399    -0.005096229360    14.003074004430
         C           -2.720821880807     0.508669497399    -0.012913229360    12.000000000000
         C           -0.392070880807    -0.115446502601    -0.001218229360    12.000000000000
         C           -1.376640880807     0.880899497399    -0.007666229360    12.000000000000
         C            1.026833119193     0.238564497399    -0.001021229360    12.000000000000
         C           -3.009070880807    -0.862378502601    -0.007326229360    12.000000000000
         C           -3.817927880807     1.537931497399     0.014641770640    12.000000000000
         C           -1.962884880807    -1.783783502601    -0.000691229360    12.000000000000
         C            3.445173119193     0.235890497399     0.002819770640    12.000000000000
         C            2.852439119193     1.479290497399    -0.003060229360    12.000000000000
         H           -1.071439880807     1.924336497399    -0.014782229360     1.007825032230
         H           -4.228725880807    -1.276176402601    -0.016133929360     1.007825032230
         H           -4.158812880807     1.713754497399     1.040503770640     1.007825032230
         H           -3.470362880807     2.491576497399    -0.390938229360     1.007825032230
         H           -4.680907880807     1.207782497399    -0.570484229360     1.007825032230
         H           -2.165806880807    -2.853526502601    -0.000126229360     1.007825032230
         H            4.501317119193    -0.001243502601     0.005248770640     1.007825032230
         H            3.387052119193     2.423147497399    -0.005972229360     1.007825032230

  Basis Set: AUG-CC-PVTZ
    Blend: AUG-CC-PVTZ
  Basis Set: (AUG-CC-PVTZ AUX)
    Blend: AUG-CC-PVTZ-JKFIT
	 Reference Energy          =    -852.0392714884070529 [Eh]
	 Singles Energy            =      -0.0000000000000000 [Eh]
	 Same-Spin Energy          =      -0.5697225471044818 [Eh]
	 Opposite-Spin Energy      =      -1.7115394417882324 [Eh]
	 Correlation Energy        =      -2.2812619888927141 [Eh]
	 Total Energy              =    -854.3205334772998185 [Eh]

	 ================> DF-SCS-MP2 Energies <==================
	-----------------------------------------------------------
	 SCS Same-Spin Scale       =       0.3333333333333333 [-]
	 SCS Opposite-Spin Scale   =       1.2000000000000000 [-]
	 SCS Same-Spin Energy      =      -0.1899075157014939 [Eh]
	 SCS Opposite-Spin Energy  =      -2.0538473301458788 [Eh]
	 SCS Correlation Energy    =      -2.2437548458473726 [Eh]
	 SCS Total Energy          =    -854.2830263342543731 [Eh]
	-----------------------------------------------------------

  Dipole Moment: [D]
     X:    -1.1753      Y:     0.4292      Z:     0.0430     Total:     1.2520

*** Psi4 exiting successfully. Buy a developer a beer!
