                               Psi4 1.4a3.dev225

  ==> Input File <==

--------------------------------------------------------------------------
#psi4
#
memory 32 gb

molecule  {
0 1
  S        2.3127110    -1.0235480     0.0053950
  N       -0.6038690    -1.4671430     0.0025680
  N        1.5465020     1.4501510    -0.0053670
  C       -2.6591070     0.4777660    -0.0131840
  C       -0.3303560    -0.1463500    -0.0014890
  C       -1.3149260     0.8499960    -0.0079370
  C        1.0885480     0.2076610    -0.0012920
  C       -2.9473560    -0.8932820    -0.0075970
  C       -3.7562130     1.5070280     0.0143710
  C       -1.7510832    -1.9468726    -0.0000101
  C        3.5068880     0.2049870     0.0025490
  C        2.9141540     1.4483870    -0.0033310
  H       -1.0097250     1.8934330    -0.0150530
  H       -3.9776190    -1.2428240    -0.0150370
  H       -4.0970980     1.6828510     1.0402330
  H       -3.4086480     2.4606730    -0.3912090
  H       -4.6191930     1.1768790    -0.5707550
  H       -2.1040920    -2.8844300    -0.0003970
  H        4.5630320    -0.0321470     0.0049780
  H        3.4487670     2.3922440    -0.0062430
units angstrom
no_reorient  #important for SAPT in psi4, default
symmetry c1  #important for SAPT in psi4, default
}

set PROPERTIES_ORIGIN ["COM"]
properties('MP2/aug-cc-pvtz', properties = ['dipole'])
--------------------------------------------------------------------------

    Molecular point group: c1
  Charge       = 0
  Multiplicity = 1
  Basis Set: AUG-CC-PVTZ
    Blend: AUG-CC-PVTZ
  Basis Set: (AUG-CC-PVTZ AUX)
    Blend: AUG-CC-PVTZ-JKFIT

    Orbital Energies [Eh]
    ---------------------

    Doubly Occupied:

       1A    -91.991741     2A    -15.568973     3A    -15.567988
       4A    -11.310972     5A    -11.291798     6A    -11.291265
       7A    -11.266950     8A    -11.265317     9A    -11.259937
      10A    -11.255544    11A    -11.247550    12A    -11.236931
      13A     -8.991775    14A     -6.672553    15A     -6.672005
      16A     -6.671338    17A     -1.292493    18A     -1.267520
      19A     -1.114386    20A     -1.062407    21A     -1.059877
      22A     -0.976612    23A     -0.958602    24A     -0.883021
      25A     -0.844492    26A     -0.783984    27A     -0.750759
      28A     -0.701128    29A     -0.692676    30A     -0.668557
      31A     -0.640391    32A     -0.593689    33A     -0.585425
      34A     -0.572918    35A     -0.569505    36A     -0.560478
      37A     -0.549359    38A     -0.531212    39A     -0.522178
      40A     -0.498268    41A     -0.433030    42A     -0.398645
      43A     -0.395845    44A     -0.383850    45A     -0.365853
      46A     -0.292110

  @DF-RHF Final Energy:  -852.02256998911230

   => Energetics <=

    Nuclear Repulsion Energy =            719.4781070834618504
    One-Electron Energy =               -2593.9775458562971835
    Two-Electron Energy =                1022.4768687837229209
    Total Energy =                       -852.0225699891122986
  Basis Set: (AUG-CC-PVTZ AUX)
    Blend: AUG-CC-PVTZ-RI
    Molecular point group: c1

    Geometry (in Angstrom), charge = 0, multiplicity = 1:

       Center              X                  Y                   Z               Mass
    ------------   -----------------  -----------------  -----------------  -----------------
         S            2.239681041219    -0.984001799731     0.005593053402    31.972071174400
         N           -0.676898958781    -1.427596799731     0.002766053402    14.003074004430
         N            1.473472041219     1.489697200269    -0.005168946598    14.003074004430
         C           -2.732136958781     0.517312200269    -0.012985946598    12.000000000000
         C           -0.403385958781    -0.106803799731    -0.001290946598    12.000000000000
         C           -1.387955958781     0.889542200269    -0.007738946598    12.000000000000
         C            1.015518041219     0.247207200269    -0.001093946598    12.000000000000
         C           -3.020385958781    -0.853735799731    -0.007398946598    12.000000000000
         C           -3.829242958781     1.546574200269     0.014569053402    12.000000000000
         C           -1.824113158781    -1.907326399731     0.000187953402    12.000000000000
         C            3.433858041219     0.244533200269     0.002747053402    12.000000000000
         C            2.841124041219     1.487933200269    -0.003132946598    12.000000000000
         H           -1.082754958781     1.932979200269    -0.014854946598     1.007825032230
         H           -4.050648958781    -1.203277799731    -0.014838946598     1.007825032230
         H           -4.170127958781     1.722397200269     1.040431053402     1.007825032230
         H           -3.481677958781     2.500219200269    -0.391010946598     1.007825032230
         H           -4.692222958781     1.216425200269    -0.570556946598     1.007825032230
         H           -2.177121958781    -2.844883799731    -0.000198946598     1.007825032230
         H            4.490002041219     0.007399200269     0.005176053402     1.007825032230
         H            3.375737041219     2.431790200269    -0.006044946598     1.007825032230

  Basis Set: AUG-CC-PVTZ
    Blend: AUG-CC-PVTZ
  Basis Set: (AUG-CC-PVTZ AUX)
    Blend: AUG-CC-PVTZ-JKFIT
	 Reference Energy          =    -852.0225699891122986 [Eh]
	 Singles Energy            =      -0.0000000000000000 [Eh]
	 Same-Spin Energy          =      -0.5683097571439024 [Eh]
	 Opposite-Spin Energy      =      -1.7099039436934271 [Eh]
	 Correlation Energy        =      -2.2782137008373295 [Eh]
	 Total Energy              =    -854.3007836899496397 [Eh]

	 ================> DF-SCS-MP2 Energies <==================
	-----------------------------------------------------------
	 SCS Same-Spin Scale       =       0.3333333333333333 [-]
	 SCS Opposite-Spin Scale   =       1.2000000000000000 [-]
	 SCS Same-Spin Energy      =      -0.1894365857146341 [Eh]
	 SCS Opposite-Spin Energy  =      -2.0518847324321126 [Eh]
	 SCS Correlation Energy    =      -2.2413213181467468 [Eh]
	 SCS Total Energy          =    -854.2638913072590867 [Eh]
	-----------------------------------------------------------

  Dipole Moment: [D]
     X:    -1.1702      Y:     0.0179      Z:     0.0420     Total:     1.1710

*** Psi4 exiting successfully. Buy a developer a beer!
