                               Psi4 1.4a3.dev225

  ==> Input File <==

--------------------------------------------------------------------------
#psi4
#
memory 32 gb

molecule  {
0 1
  S        2.3127110    -1.0235480     0.0053950
  N       -0.6038690    -1.4671430     0.0025680
  N        1.5465020     1.4501510    -0.0053670
  C       -2.6591070     0.4777660    -0.0131840
  C       -0.3303560    -0.1463500    -0.0014890
  C       -1.3149260     0.8499960    -0.0079370
  C        1.0885480     0.2076610    -0.0012920
  C       -2.9473560    -0.8932820    -0.0075970
  C       -3.7562130     1.5070280     0.0143710
  C       -1.9011700    -1.8146870    -0.0009620
  C        3.5765888     0.2766932     0.0023829
  C        2.9141540     1.4483870    -0.0033310
  H       -1.0097250     1.8934330    -0.0150530
  H       -3.9776190    -1.2428240    -0.0150370
  H       -4.0970980     1.6828510     1.0402330
  H       -3.4086480     2.4606730    -0.3912090
  H       -4.6191930     1.1768790    -0.5707550
  H       -2.1040920    -2.8844300    -0.0003970
  H        4.5630320    -0.0321470     0.0049780
  H        3.4487670     2.3922440    -0.0062430
units angstrom
no_reorient  #important for SAPT in psi4, default
symmetry c1  #important for SAPT in psi4, default
}

set PROPERTIES_ORIGIN ["COM"]
properties('MP2/aug-cc-pvtz', properties = ['dipole'])
--------------------------------------------------------------------------

    Molecular point group: c1
  Charge       = 0
  Multiplicity = 1
  Basis Set: AUG-CC-PVTZ
    Blend: AUG-CC-PVTZ
  Basis Set: (AUG-CC-PVTZ AUX)
    Blend: AUG-CC-PVTZ-JKFIT

    Orbital Energies [Eh]
    ---------------------

    Doubly Occupied:

       1A    -91.988558     2A    -15.574022     3A    -15.570947
       4A    -11.317075     5A    -11.295063     6A    -11.283020
       7A    -11.272931     8A    -11.268104     9A    -11.262438
      10A    -11.245817    11A    -11.244439    12A    -11.240844
      13A     -8.987365    14A     -6.668089    15A     -6.667466
      16A     -6.666904    17A     -1.283799    18A     -1.256975
      19A     -1.115431    20A     -1.066700    21A     -1.046680
      22A     -0.989492    23A     -0.974345    24A     -0.874083
      25A     -0.847391    26A     -0.789730    27A     -0.749041
      28A     -0.702360    29A     -0.680927    30A     -0.674732
      31A     -0.634658    32A     -0.596818    33A     -0.588770
      34A     -0.576770    35A     -0.571197    36A     -0.563328
      37A     -0.551075    38A     -0.526002    39A     -0.516196
      40A     -0.479775    41A     -0.441753    42A     -0.419441
      43A     -0.389412    44A     -0.380974    45A     -0.367508
      46A     -0.313079

  @DF-RHF Final Energy:  -852.05610562255094

   => Energetics <=

    Nuclear Repulsion Energy =            718.5074942022024516
    One-Electron Energy =               -2592.0841546494443719
    Two-Electron Energy =                1021.5205548246909757
    Total Energy =                       -852.0561056225509446
  Basis Set: (AUG-CC-PVTZ AUX)
    Blend: AUG-CC-PVTZ-RI
    Molecular point group: c1

    Geometry (in Angstrom), charge = 0, multiplicity = 1:

       Center              X                  Y                   Z               Mass
    ------------   -----------------  -----------------  -----------------  -----------------
         S            2.245160633981    -0.997900289909     0.005669262999    31.972071174400
         N           -0.671419366019    -1.441495289909     0.002842262999    14.003074004430
         N            1.478951633981     1.475798710091    -0.005092737001    14.003074004430
         C           -2.726657366019     0.503413710091    -0.012909737001    12.000000000000
         C           -0.397906366019    -0.120702289909    -0.001214737001    12.000000000000
         C           -1.382476366019     0.875643710091    -0.007662737001    12.000000000000
         C            1.020997633981     0.233308710091    -0.001017737001    12.000000000000
         C           -3.014906366019    -0.867634289909    -0.007322737001    12.000000000000
         C           -3.823763366019     1.532675710091     0.014645262999    12.000000000000
         C           -1.968720366019    -1.789039289909    -0.000687737001    12.000000000000
         C            3.509038433981     0.302340910091     0.002657162999    12.000000000000
         C            2.846603633981     1.474034710091    -0.003056737001    12.000000000000
         H           -1.077275366019     1.919080710091    -0.014778737001     1.007825032230
         H           -4.045169366019    -1.217176289909    -0.014762737001     1.007825032230
         H           -4.164648366019     1.708498710091     1.040507262999     1.007825032230
         H           -3.476198366019     2.486320710091    -0.390934737001     1.007825032230
         H           -4.686743366019     1.202526710091    -0.570480737001     1.007825032230
         H           -2.171642366019    -2.858782289909    -0.000122737001     1.007825032230
         H            4.495481633981    -0.006499289909     0.005252262999     1.007825032230
         H            3.381216633981     2.417891710091    -0.005968737001     1.007825032230

  Basis Set: AUG-CC-PVTZ
    Blend: AUG-CC-PVTZ
  Basis Set: (AUG-CC-PVTZ AUX)
    Blend: AUG-CC-PVTZ-JKFIT
	 Reference Energy          =    -852.0561056225509446 [Eh]
	 Singles Energy            =      -0.0000000000000000 [Eh]
	 Same-Spin Energy          =      -0.5675184156437677 [Eh]
	 Opposite-Spin Energy      =      -1.7084279148553145 [Eh]
	 Correlation Energy        =      -2.2759463304990821 [Eh]
	 Total Energy              =    -854.3320519530500405 [Eh]

	 ================> DF-SCS-MP2 Energies <==================
	-----------------------------------------------------------
	 SCS Same-Spin Scale       =       0.3333333333333333 [-]
	 SCS Opposite-Spin Scale   =       1.2000000000000000 [-]
	 SCS Same-Spin Energy      =      -0.1891728052145892 [Eh]
	 SCS Opposite-Spin Energy  =      -2.0501134978263775 [Eh]
	 SCS Correlation Energy    =      -2.2392863030409669 [Eh]
	 SCS Total Energy          =    -854.2953919255919573 [Eh]
	-----------------------------------------------------------

  Dipole Moment: [D]
     X:    -1.4019      Y:     0.4657      Z:     0.0417     Total:     1.4778

*** Psi4 exiting successfully. Buy a developer a beer!
