                               Psi4 1.4a3.dev225

  ==> Input File <==

--------------------------------------------------------------------------
#psi4
#
memory 32 gb

molecule  {
0 1
  S        2.3127110    -1.0235480     0.0053950
  N       -0.6038690    -1.4671430     0.0025680
  N        1.5465020     1.4501510    -0.0053670
  C       -2.6591070     0.4777660    -0.0131840
  C       -0.3303560    -0.1463500    -0.0014890
  C       -1.3149260     0.8499960    -0.0079370
  C        1.0885480     0.2076610    -0.0012920
  C       -2.9473560    -0.8932820    -0.0075970
  C       -3.7562130     1.5070280     0.0143710
  C       -1.9011700    -1.8146870    -0.0009620
  C        3.4929478     0.1906458     0.0025822
  C        2.9141540     1.4483870    -0.0033310
  H       -1.0097250     1.8934330    -0.0150530
  H       -3.9776190    -1.2428240    -0.0150370
  H       -4.0970980     1.6828510     1.0402330
  H       -3.4086480     2.4606730    -0.3912090
  H       -4.6191930     1.1768790    -0.5707550
  H       -2.1040920    -2.8844300    -0.0003970
  H        4.5630320    -0.0321470     0.0049780
  H        3.4487670     2.3922440    -0.0062430
units angstrom
no_reorient  #important for SAPT in psi4, default
symmetry c1  #important for SAPT in psi4, default
}

set PROPERTIES_ORIGIN ["COM"]
properties('MP2/aug-cc-pvtz', properties = ['dipole'])
--------------------------------------------------------------------------

    Molecular point group: c1
  Charge       = 0
  Multiplicity = 1
  Basis Set: AUG-CC-PVTZ
    Blend: AUG-CC-PVTZ
  Basis Set: (AUG-CC-PVTZ AUX)
    Blend: AUG-CC-PVTZ-JKFIT

    Orbital Energies [Eh]
    ---------------------

    Doubly Occupied:

       1A    -91.994650     2A    -15.572788     3A    -15.571401
       4A    -11.310548     5A    -11.293718     6A    -11.281641
       7A    -11.271309     8A    -11.268779     9A    -11.263835
      10A    -11.242885    11A    -11.241432    12A    -11.239551
      13A     -8.994978    14A     -6.675772    15A     -6.675194
      16A     -6.674524    17A     -1.285055    18A     -1.256489
      19A     -1.113548    20A     -1.067293    21A     -1.061510
      22A     -0.983235    23A     -0.971910    24A     -0.871536
      25A     -0.843098    26A     -0.782938    27A     -0.749919
      28A     -0.696949    29A     -0.678648    30A     -0.670544
      31A     -0.633864    32A     -0.595662    33A     -0.587281
      34A     -0.573033    35A     -0.570484    36A     -0.561403
      37A     -0.545916    38A     -0.526550    39A     -0.515351
      40A     -0.503253    41A     -0.441177    42A     -0.421440
      43A     -0.395207    44A     -0.381310    45A     -0.366000
      46A     -0.303263

  @DF-RHF Final Energy:  -852.06049463311638

   => Energetics <=

    Nuclear Repulsion Energy =            720.7466014367290654
    One-Electron Energy =               -2596.5604535056736495
    Two-Electron Energy =                1023.7533574358280930
    Total Energy =                       -852.0604946331163774
  Basis Set: (AUG-CC-PVTZ AUX)
    Blend: AUG-CC-PVTZ-RI
    Molecular point group: c1

    Geometry (in Angstrom), charge = 0, multiplicity = 1:

       Center              X                  Y                   Z               Mass
    ------------   -----------------  -----------------  -----------------  -----------------
         S            2.250862107101    -0.992034782107     0.005655677514    31.972071174400
         N           -0.665717892899    -1.435629782107     0.002828677514    14.003074004430
         N            1.484653107101     1.481664217893    -0.005106322486    14.003074004430
         C           -2.720955892899     0.509279217893    -0.012923322486    12.000000000000
         C           -0.392204892899    -0.114836782107    -0.001228322486    12.000000000000
         C           -1.376774892899     0.881509217893    -0.007676322486    12.000000000000
         C            1.026699107101     0.239174217893    -0.001031322486    12.000000000000
         C           -3.009204892899    -0.861768782107    -0.007336322486    12.000000000000
         C           -3.818061892899     1.538541217893     0.014631677514    12.000000000000
         C           -1.963018892899    -1.783173782107    -0.000701322486    12.000000000000
         C            3.431098907101     0.222159017893     0.002842877514    12.000000000000
         C            2.852305107101     1.479900217893    -0.003070322486    12.000000000000
         H           -1.071573892899     1.924946217893    -0.014792322486     1.007825032230
         H           -4.039467892899    -1.211310782107    -0.014776322486     1.007825032230
         H           -4.158946892899     1.714364217893     1.040493677514     1.007825032230
         H           -3.470496892899     2.492186217893    -0.390948322486     1.007825032230
         H           -4.681041892899     1.208392217893    -0.570494322486     1.007825032230
         H           -2.165940892899    -2.852916782107    -0.000136322486     1.007825032230
         H            4.501183107101    -0.000633782107     0.005238677514     1.007825032230
         H            3.386918107101     2.423757217893    -0.005982322486     1.007825032230

  Basis Set: AUG-CC-PVTZ
    Blend: AUG-CC-PVTZ
  Basis Set: (AUG-CC-PVTZ AUX)
    Blend: AUG-CC-PVTZ-JKFIT
	 Reference Energy          =    -852.0604946331163774 [Eh]
	 Singles Energy            =      -0.0000000000000000 [Eh]
	 Same-Spin Energy          =      -0.5695605267025905 [Eh]
	 Opposite-Spin Energy      =      -1.7095589587254019 [Eh]
	 Correlation Energy        =      -2.2791194854279926 [Eh]
	 Total Energy              =    -854.3396141185443184 [Eh]

	 ================> DF-SCS-MP2 Energies <==================
	-----------------------------------------------------------
	 SCS Same-Spin Scale       =       0.3333333333333333 [-]
	 SCS Opposite-Spin Scale   =       1.2000000000000000 [-]
	 SCS Same-Spin Energy      =      -0.1898535089008635 [Eh]
	 SCS Opposite-Spin Energy  =      -2.0514707504704823 [Eh]
	 SCS Correlation Energy    =      -2.2413242593713458 [Eh]
	 SCS Total Energy          =    -854.3018188924877450 [Eh]
	-----------------------------------------------------------

  Dipole Moment: [D]
     X:    -1.2518      Y:     0.3823      Z:     0.0421     Total:     1.3096

*** Psi4 exiting successfully. Buy a developer a beer!
