                               Psi4 1.4a3.dev225

  ==> Input File <==

--------------------------------------------------------------------------
#psi4
#
memory 32 gb

molecule  {
0 1
  S        2.3127110    -1.0235480     0.0053950
  N       -0.6038690    -1.4671430     0.0025680
  N        1.5465020     1.4501510    -0.0053670
  C       -2.6591070     0.4777660    -0.0131840
  C       -0.3303560    -0.1463500    -0.0014890
  C       -1.3149260     0.8499960    -0.0079370
  C        1.0885480     0.2076610    -0.0012920
  C       -2.9473560    -0.8932820    -0.0075970
  C       -3.7562130     1.5070280     0.0143710
  C       -1.9011700    -1.8146870    -0.0009620
  C        3.5068880     0.2049870     0.0025490
  C        2.9141540     1.4483870    -0.0033310
  H       -1.0097250     1.8934330    -0.0150530
  H       -3.9586798    -1.2363984    -0.0149002
  H       -4.0970980     1.6828510     1.0402330
  H       -3.4086480     2.4606730    -0.3912090
  H       -4.6191930     1.1768790    -0.5707550
  H       -2.1040920    -2.8844300    -0.0003970
  H        4.5630320    -0.0321470     0.0049780
  H        3.4487670     2.3922440    -0.0062430
units angstrom
no_reorient  #important for SAPT in psi4, default
symmetry c1  #important for SAPT in psi4, default
}

set PROPERTIES_ORIGIN ["COM"]
properties('MP2/aug-cc-pvtz', properties = ['dipole'])
--------------------------------------------------------------------------

    Molecular point group: c1
  Charge       = 0
  Multiplicity = 1
  Basis Set: AUG-CC-PVTZ
    Blend: AUG-CC-PVTZ
  Basis Set: (AUG-CC-PVTZ AUX)
    Blend: AUG-CC-PVTZ-JKFIT

    Orbital Energies [Eh]
    ---------------------

    Doubly Occupied:

       1A    -91.993722     2A    -15.572386     3A    -15.571757
       4A    -11.311693     5A    -11.293902     6A    -11.281745
       7A    -11.271429     8A    -11.268441     9A    -11.263306
      10A    -11.241843    11A    -11.241104    12A    -11.239807
      13A     -8.993710    14A     -6.674476    15A     -6.673925
      16A     -6.673264    17A     -1.284716    18A     -1.256513
      19A     -1.114033    20A     -1.065379    21A     -1.060289
      22A     -0.984814    23A     -0.972410    24A     -0.872830
      25A     -0.843797    26A     -0.783927    27A     -0.749694
      28A     -0.697876    29A     -0.679286    30A     -0.673573
      31A     -0.634144    32A     -0.595852    33A     -0.588183
      34A     -0.572610    35A     -0.571427    36A     -0.562525
      37A     -0.546961    38A     -0.526347    39A     -0.515588
      40A     -0.500423    41A     -0.441231    42A     -0.421192
      43A     -0.393490    44A     -0.381572    45A     -0.366274
      46A     -0.304933

  @DF-RHF Final Energy:  -852.06170238833590

   => Energetics <=

    Nuclear Repulsion Energy =            720.4688726009263746
    One-Electron Energy =               -2596.0043484730040291
    Two-Electron Energy =                1023.4737734837418657
    Total Energy =                       -852.0617023883359025
  Basis Set: (AUG-CC-PVTZ AUX)
    Blend: AUG-CC-PVTZ-RI
    Molecular point group: c1

    Geometry (in Angstrom), charge = 0, multiplicity = 1:

       Center              X                  Y                   Z               Mass
    ------------   -----------------  -----------------  -----------------  -----------------
         S            2.249803433320    -0.993049150712     0.005657157452    31.972071174400
         N           -0.666776566680    -1.436644150712     0.002830157452    14.003074004430
         N            1.483594433320     1.480649849288    -0.005104842548    14.003074004430
         C           -2.722014566680     0.508264849288    -0.012921842548    12.000000000000
         C           -0.393263566680    -0.115851150712    -0.001226842548    12.000000000000
         C           -1.377833566680     0.880494849288    -0.007674842548    12.000000000000
         C            1.025640433320     0.238159849288    -0.001029842548    12.000000000000
         C           -3.010263566680    -0.862783150712    -0.007334842548    12.000000000000
         C           -3.819120566680     1.537526849288     0.014633157452    12.000000000000
         C           -1.964077566680    -1.784188150712    -0.000699842548    12.000000000000
         C            3.443980433320     0.235485849288     0.002811157452    12.000000000000
         C            2.851246433320     1.478885849288    -0.003068842548    12.000000000000
         H           -1.072632566680     1.923931849288    -0.014790842548     1.007825032230
         H           -4.021587366680    -1.205899550712    -0.014638042548     1.007825032230
         H           -4.160005566680     1.713349849288     1.040495157452     1.007825032230
         H           -3.471555566680     2.491171849288    -0.390946842548     1.007825032230
         H           -4.682100566680     1.207377849288    -0.570492842548     1.007825032230
         H           -2.166999566680    -2.853931150712    -0.000134842548     1.007825032230
         H            4.500124433320    -0.001648150712     0.005240157452     1.007825032230
         H            3.385859433320     2.422742849288    -0.005980842548     1.007825032230

  Basis Set: AUG-CC-PVTZ
    Blend: AUG-CC-PVTZ
  Basis Set: (AUG-CC-PVTZ AUX)
    Blend: AUG-CC-PVTZ-JKFIT
	 Reference Energy          =    -852.0617023883359025 [Eh]
	 Singles Energy            =      -0.0000000000000000 [Eh]
	 Same-Spin Energy          =      -0.5691023631649859 [Eh]
	 Opposite-Spin Energy      =      -1.7091209891509400 [Eh]
	 Correlation Energy        =      -2.2782233523159259 [Eh]
	 Total Energy              =    -854.3399257406517791 [Eh]

	 ================> DF-SCS-MP2 Energies <==================
	-----------------------------------------------------------
	 SCS Same-Spin Scale       =       0.3333333333333333 [-]
	 SCS Opposite-Spin Scale   =       1.2000000000000000 [-]
	 SCS Same-Spin Energy      =      -0.1897007877216619 [Eh]
	 SCS Opposite-Spin Energy  =      -2.0509451869811279 [Eh]
	 SCS Correlation Energy    =      -2.2406459747027898 [Eh]
	 SCS Total Energy          =    -854.3023483630387318 [Eh]
	-----------------------------------------------------------

  Dipole Moment: [D]
     X:    -1.2870      Y:     0.3929      Z:     0.0420     Total:     1.3463

*** Psi4 exiting successfully. Buy a developer a beer!
