                               Psi4 1.4a3.dev225

  ==> Input File <==

--------------------------------------------------------------------------
#psi4
#
memory 32 gb

molecule  {
0 1
  S        2.3127110    -1.0235480     0.0053950
  N       -0.6038690    -1.4671430     0.0025680
  N        1.5465020     1.4501510    -0.0053670
  C       -2.6591070     0.4777660    -0.0131840
  C       -0.3303560    -0.1463500    -0.0014890
  C       -1.3149260     0.8499960    -0.0079370
  C        1.0885480     0.2076610    -0.0012920
  C       -2.9473560    -0.8932820    -0.0075970
  C       -3.7562130     1.5070280     0.0143710
  C       -2.0512568    -1.6825014    -0.0019139
  C        3.5068880     0.2049870     0.0025490
  C        2.9141540     1.4483870    -0.0033310
  H       -1.0097250     1.8934330    -0.0150530
  H       -3.9776190    -1.2428240    -0.0150370
  H       -4.0970980     1.6828510     1.0402330
  H       -3.4086480     2.4606730    -0.3912090
  H       -4.6191930     1.1768790    -0.5707550
  H       -2.1040920    -2.8844300    -0.0003970
  H        4.5630320    -0.0321470     0.0049780
  H        3.4487670     2.3922440    -0.0062430
units angstrom
no_reorient  #important for SAPT in psi4, default
symmetry c1  #important for SAPT in psi4, default
}

set PROPERTIES_ORIGIN ["COM"]
properties('MP2/aug-cc-pvtz', properties = ['dipole'])
--------------------------------------------------------------------------

    Molecular point group: c1
  Charge       = 0
  Multiplicity = 1
  Basis Set: AUG-CC-PVTZ
    Blend: AUG-CC-PVTZ
  Basis Set: (AUG-CC-PVTZ AUX)
    Blend: AUG-CC-PVTZ-JKFIT

    Orbital Energies [Eh]
    ---------------------

    Doubly Occupied:

       1A    -91.995442     2A    -15.576164     3A    -15.575378
       4A    -11.312379     5A    -11.296055     6A    -11.276298
       7A    -11.269844     8A    -11.266272     9A    -11.265850
      10A    -11.241945    11A    -11.238796    12A    -11.218669
      13A     -8.995422    14A     -6.676181    15A     -6.675628
      16A     -6.674968    17A     -1.284429    18A     -1.245682
      19A     -1.125799    20A     -1.072370    21A     -1.062524
      22A     -1.002621    23A     -0.974308    24A     -0.866194
      25A     -0.838361    26A     -0.787525    27A     -0.742506
      28A     -0.701868    29A     -0.683059    30A     -0.679300
      31A     -0.612905    32A     -0.599258    33A     -0.591813
      34A     -0.573257    35A     -0.573041    36A     -0.559118
      37A     -0.539865    38A     -0.529180    39A     -0.503677
      40A     -0.475735    41A     -0.450385    42A     -0.428713
      43A     -0.413723    44A     -0.386752    45A     -0.354214
      46A     -0.317593

  @DF-RHF Final Energy:  -851.99644262639799

   => Energetics <=

    Nuclear Repulsion Energy =            721.7752124903985305
    One-Electron Energy =               -2598.4811791748643373
    Two-Electron Energy =                1024.7095240580677000
    Total Energy =                       -851.9964426263979931
  Basis Set: (AUG-CC-PVTZ AUX)
    Blend: AUG-CC-PVTZ-RI
    Molecular point group: c1

    Geometry (in Angstrom), charge = 0, multiplicity = 1:

       Center              X                  Y                   Z               Mass
    ------------   -----------------  -----------------  -----------------  -----------------
         S            2.260142677398    -1.002022929206     0.005722827849    31.972071174400
         N           -0.656437322602    -1.445617929206     0.002895827849    14.003074004430
         N            1.493933677398     1.471676070794    -0.005039172151    14.003074004430
         C           -2.711675322602     0.499291070794    -0.012856172151    12.000000000000
         C           -0.382924322602    -0.124824929206    -0.001161172151    12.000000000000
         C           -1.367494322602     0.871521070794    -0.007609172151    12.000000000000
         C            1.035979677398     0.229186070794    -0.000964172151    12.000000000000
         C           -2.999924322602    -0.871756929206    -0.007269172151    12.000000000000
         C           -3.808781322602     1.528553070794     0.014698827849    12.000000000000
         C           -2.103825122602    -1.660976329206    -0.001586072151    12.000000000000
         C            3.454319677398     0.226512070794     0.002876827849    12.000000000000
         C            2.861585677398     1.469912070794    -0.003003172151    12.000000000000
         H           -1.062293322602     1.914958070794    -0.014725172151     1.007825032230
         H           -4.030187322602    -1.221298929206    -0.014709172151     1.007825032230
         H           -4.149666322602     1.704376070794     1.040560827849     1.007825032230
         H           -3.461216322602     2.482198070794    -0.390881172151     1.007825032230
         H           -4.671761322602     1.198404070794    -0.570427172151     1.007825032230
         H           -2.156660322602    -2.862904929206    -0.000069172151     1.007825032230
         H            4.510463677398    -0.010621929206     0.005305827849     1.007825032230
         H            3.396198677398     2.413769070794    -0.005915172151     1.007825032230

  Basis Set: AUG-CC-PVTZ
    Blend: AUG-CC-PVTZ
  Basis Set: (AUG-CC-PVTZ AUX)
    Blend: AUG-CC-PVTZ-JKFIT
	 Reference Energy          =    -851.9964426263979931 [Eh]
	 Singles Energy            =      -0.0000000000000000 [Eh]
	 Same-Spin Energy          =      -0.5689975244413106 [Eh]
	 Opposite-Spin Energy      =      -1.7127099668256593 [Eh]
	 Correlation Energy        =      -2.2817074912669701 [Eh]
	 Total Energy              =    -854.2781501176649499 [Eh]

	 ================> DF-SCS-MP2 Energies <==================
	-----------------------------------------------------------
	 SCS Same-Spin Scale       =       0.3333333333333333 [-]
	 SCS Opposite-Spin Scale   =       1.2000000000000000 [-]
	 SCS Same-Spin Energy      =      -0.1896658414804369 [Eh]
	 SCS Opposite-Spin Energy  =      -2.0552519601907910 [Eh]
	 SCS Correlation Energy    =      -2.2449178016712277 [Eh]
	 SCS Total Energy          =    -854.2413604280692425 [Eh]
	-----------------------------------------------------------

  Dipole Moment: [D]
     X:    -1.1446      Y:     0.7024      Z:     0.0432     Total:     1.3436

*** Psi4 exiting successfully. Buy a developer a beer!
