                               Psi4 1.4a3.dev225

  ==> Input File <==

--------------------------------------------------------------------------
#psi4
#
memory 32 gb

molecule  {
0 1
  S        2.3127110    -1.0235480     0.0053950
  N       -0.6038690    -1.4671430     0.0025680
  N        1.5465020     1.4501510    -0.0053670
  C       -2.6591070     0.4777660    -0.0131840
  C       -0.3202170    -0.0973890    -0.0016394
  C       -1.3149260     0.8499960    -0.0079370
  C        1.0885480     0.2076610    -0.0012920
  C       -2.9473560    -0.8932820    -0.0075970
  C       -3.7562130     1.5070280     0.0143710
  C       -1.9011700    -1.8146870    -0.0009620
  C        3.5068880     0.2049870     0.0025490
  C        2.9141540     1.4483870    -0.0033310
  H       -1.0097250     1.8934330    -0.0150530
  H       -3.9776190    -1.2428240    -0.0150370
  H       -4.0970980     1.6828510     1.0402330
  H       -3.4086480     2.4606730    -0.3912090
  H       -4.6191930     1.1768790    -0.5707550
  H       -2.1040920    -2.8844300    -0.0003970
  H        4.5630320    -0.0321470     0.0049780
  H        3.4487670     2.3922440    -0.0062430
units angstrom
no_reorient  #important for SAPT in psi4, default
symmetry c1  #important for SAPT in psi4, default
}

set PROPERTIES_ORIGIN ["COM"]
properties('MP2/aug-cc-pvtz', properties = ['dipole'])
--------------------------------------------------------------------------

    Molecular point group: c1
  Charge       = 0
  Multiplicity = 1
  Basis Set: AUG-CC-PVTZ
    Blend: AUG-CC-PVTZ
  Basis Set: (AUG-CC-PVTZ AUX)
    Blend: AUG-CC-PVTZ-JKFIT

    Orbital Energies [Eh]
    ---------------------

    Doubly Occupied:

       1A    -91.995182     2A    -15.573305     3A    -15.572059
       4A    -11.310938     5A    -11.292123     6A    -11.281521
       7A    -11.272669     8A    -11.268566     9A    -11.263851
      10A    -11.243017    11A    -11.240249    12A    -11.240197
      13A     -8.995013    14A     -6.675766    15A     -6.675237
      16A     -6.674557    17A     -1.283409    18A     -1.246421
      19A     -1.111889    20A     -1.069369    21A     -1.061101
      22A     -0.984603    23A     -0.973393    24A     -0.871277
      25A     -0.843526    26A     -0.784579    27A     -0.751195
      28A     -0.697552    29A     -0.675498    30A     -0.671159
      31A     -0.633738    32A     -0.595700    33A     -0.589262
      34A     -0.572595    35A     -0.572106    36A     -0.559096
      37A     -0.546770    38A     -0.522404    39A     -0.516339
      40A     -0.500350    41A     -0.439710    42A     -0.422187
      43A     -0.395784    44A     -0.378414    45A     -0.368844
      46A     -0.303715

  @DF-RHF Final Energy:  -852.05650461317430

   => Energetics <=

    Nuclear Repulsion Energy =            720.2332351929767356
    One-Electron Energy =               -2595.5470137885640725
    Two-Electron Energy =                1023.2572739824130394
    Total Energy =                       -852.0565046131742974
  Basis Set: (AUG-CC-PVTZ AUX)
    Blend: AUG-CC-PVTZ-RI
    Molecular point group: c1

    Geometry (in Angstrom), charge = 0, multiplicity = 1:

       Center              X                  Y                   Z               Mass
    ------------   -----------------  -----------------  -----------------  -----------------
         S            2.249220724148    -0.996349840412     0.005668192793    31.972071174400
         N           -0.667359275852    -1.439944840412     0.002841192793    14.003074004430
         N            1.483011724148     1.477349159588    -0.005093807207    14.003074004430
         C           -2.722597275852     0.504964159588    -0.012910807207    12.000000000000
         C           -0.383707275852    -0.070190840412    -0.001366207207    12.000000000000
         C           -1.378416275852     0.877194159588    -0.007663807207    12.000000000000
         C            1.025057724148     0.234859159588    -0.001018807207    12.000000000000
         C           -3.010846275852    -0.866083840412    -0.007323807207    12.000000000000
         C           -3.819703275852     1.534226159588     0.014644192793    12.000000000000
         C           -1.964660275852    -1.787488840412    -0.000688807207    12.000000000000
         C            3.443397724148     0.232185159588     0.002822192793    12.000000000000
         C            2.850663724148     1.475585159588    -0.003057807207    12.000000000000
         H           -1.073215275852     1.920631159588    -0.014779807207     1.007825032230
         H           -4.041109275852    -1.215625840412    -0.014763807207     1.007825032230
         H           -4.160588275852     1.710049159588     1.040506192793     1.007825032230
         H           -3.472138275852     2.487871159588    -0.390935807207     1.007825032230
         H           -4.682683275852     1.204077159588    -0.570481807207     1.007825032230
         H           -2.167582275852    -2.857231840412    -0.000123807207     1.007825032230
         H            4.499541724148    -0.004948840412     0.005251192793     1.007825032230
         H            3.385276724148     2.419442159588    -0.005969807207     1.007825032230

  Basis Set: AUG-CC-PVTZ
    Blend: AUG-CC-PVTZ
  Basis Set: (AUG-CC-PVTZ AUX)
    Blend: AUG-CC-PVTZ-JKFIT
	 Reference Energy          =    -852.0565046131742974 [Eh]
	 Singles Energy            =      -0.0000000000000000 [Eh]
	 Same-Spin Energy          =      -0.5697173648501299 [Eh]
	 Opposite-Spin Energy      =      -1.7107287344738953 [Eh]
	 Correlation Energy        =      -2.2804460993240250 [Eh]
	 Total Energy              =    -854.3369507124983784 [Eh]

	 ================> DF-SCS-MP2 Energies <==================
	-----------------------------------------------------------
	 SCS Same-Spin Scale       =       0.3333333333333333 [-]
	 SCS Opposite-Spin Scale   =       1.2000000000000000 [-]
	 SCS Same-Spin Energy      =      -0.1899057882833766 [Eh]
	 SCS Opposite-Spin Energy  =      -2.0528744813686743 [Eh]
	 SCS Correlation Energy    =      -2.2427802696520511 [Eh]
	 SCS Total Energy          =    -854.2992848828263277 [Eh]
	-----------------------------------------------------------

  Dipole Moment: [D]
     X:    -1.2228      Y:     0.4048      Z:     0.0419     Total:     1.2887

*** Psi4 exiting successfully. Buy a developer a beer!
