                               Psi4 1.4a3.dev225

  ==> Input File <==

--------------------------------------------------------------------------
#psi4
#
memory 32 gb

molecule  {
0 1
  S        2.3127110    -1.0235480     0.0053950
  N       -0.6038690    -1.4671430     0.0025680
  N        1.5465020     1.4501510    -0.0053670
  C       -2.6591070     0.4777660    -0.0131840
  C       -0.3303560    -0.1463500    -0.0014890
  C       -1.3149260     0.8499960    -0.0079370
  C        1.0885480     0.2076610    -0.0012920
  C       -2.9473560    -0.8932820    -0.0075970
  C       -3.7562130     1.5070280     0.0143710
  C       -1.9011700    -1.8146870    -0.0009620
  C        3.5068880     0.2049870     0.0025490
  C        2.9141540     1.4483870    -0.0033310
  H       -1.0097250     1.8934330    -0.0150530
  H       -3.9776190    -1.2428240    -0.0150370
  H       -4.0970980     1.6828510     1.0402330
  H       -3.4086480     2.4606730    -0.3912090
  H       -4.6191930     1.1768790    -0.5707550
  H       -2.1040920    -2.8844300    -0.0003970
  H        4.5630320    -0.0321470     0.0049780
  H        3.3994826     2.3052326    -0.0059746
units angstrom
no_reorient  #important for SAPT in psi4, default
symmetry c1  #important for SAPT in psi4, default
}

set PROPERTIES_ORIGIN ["COM"]
properties('MP2/aug-cc-pvtz', properties = ['dipole'])
--------------------------------------------------------------------------

    Molecular point group: c1
  Charge       = 0
  Multiplicity = 1
  Basis Set: AUG-CC-PVTZ
    Blend: AUG-CC-PVTZ
  Basis Set: (AUG-CC-PVTZ AUX)
    Blend: AUG-CC-PVTZ-JKFIT

    Orbital Energies [Eh]
    ---------------------

    Doubly Occupied:

       1A    -91.993385     2A    -15.571683     3A    -15.571674
       4A    -11.311118     5A    -11.293715     6A    -11.281736
       7A    -11.271459     8A    -11.263181     9A    -11.256817
      10A    -11.243255    11A    -11.241789    12A    -11.239688
      13A     -8.993387    14A     -6.674154    15A     -6.673603
      16A     -6.672948    17A     -1.284480    18A     -1.256437
      19A     -1.113735    20A     -1.065632    21A     -1.060254
      22A     -0.988161    23A     -0.972583    24A     -0.874158
      25A     -0.843700    26A     -0.791695    27A     -0.752171
      28A     -0.699648    29A     -0.681851    30A     -0.673076
      31A     -0.638341    32A     -0.595722    33A     -0.592178
      34A     -0.572304    35A     -0.571866    36A     -0.561838
      37A     -0.546773    38A     -0.526174    39A     -0.514931
      40A     -0.503734    41A     -0.441274    42A     -0.420930
      43A     -0.393213    44A     -0.381462    45A     -0.366182
      46A     -0.304826

  @DF-RHF Final Energy:  -852.05560562501159

   => Energetics <=

    Nuclear Repulsion Energy =            720.9462820614136263
    One-Electron Energy =               -2596.9179434078364466
    Two-Electron Energy =                1023.9160557214113396
    Total Energy =                       -852.0556056250115944
  Basis Set: (AUG-CC-PVTZ AUX)
    Blend: AUG-CC-PVTZ-RI
    Molecular point group: c1

    Geometry (in Angstrom), charge = 0, multiplicity = 1:

       Center              X                  Y                   Z               Mass
    ------------   -----------------  -----------------  -----------------  -----------------
         S            2.250194010074    -0.992514228483     0.005656404048    31.972071174400
         N           -0.666385989926    -1.436109228483     0.002829404048    14.003074004430
         N            1.483985010074     1.481184771517    -0.005105595952    14.003074004430
         C           -2.721623989926     0.508799771517    -0.012922595952    12.000000000000
         C           -0.392872989926    -0.115316228483    -0.001227595952    12.000000000000
         C           -1.377442989926     0.881029771517    -0.007675595952    12.000000000000
         C            1.026031010074     0.238694771517    -0.001030595952    12.000000000000
         C           -3.009872989926    -0.862248228483    -0.007335595952    12.000000000000
         C           -3.818729989926     1.538061771517     0.014632404048    12.000000000000
         C           -1.963686989926    -1.783653228483    -0.000700595952    12.000000000000
         C            3.444371010074     0.236020771517     0.002810404048    12.000000000000
         C            2.851637010074     1.479420771517    -0.003069595952    12.000000000000
         H           -1.072241989926     1.924466771517    -0.014791595952     1.007825032230
         H           -4.040135989926    -1.211790228483    -0.014775595952     1.007825032230
         H           -4.159614989926     1.713884771517     1.040494404048     1.007825032230
         H           -3.471164989926     2.491706771517    -0.390947595952     1.007825032230
         H           -4.681709989926     1.207912771517    -0.570493595952     1.007825032230
         H           -2.166608989926    -2.853396228483    -0.000135595952     1.007825032230
         H            4.500515010074    -0.001113228483     0.005239404048     1.007825032230
         H            3.336965610074     2.336266371517    -0.005713195952     1.007825032230

  Basis Set: AUG-CC-PVTZ
    Blend: AUG-CC-PVTZ
  Basis Set: (AUG-CC-PVTZ AUX)
    Blend: AUG-CC-PVTZ-JKFIT
	 Reference Energy          =    -852.0556056250115944 [Eh]
	 Singles Energy            =      -0.0000000000000000 [Eh]
	 Same-Spin Energy          =      -0.5689591126852233 [Eh]
	 Opposite-Spin Energy      =      -1.7088388566812414 [Eh]
	 Correlation Energy        =      -2.2777979693664645 [Eh]
	 Total Energy              =    -854.3334035943780691 [Eh]

	 ================> DF-SCS-MP2 Energies <==================
	-----------------------------------------------------------
	 SCS Same-Spin Scale       =       0.3333333333333333 [-]
	 SCS Opposite-Spin Scale   =       1.2000000000000000 [-]
	 SCS Same-Spin Energy      =      -0.1896530375617411 [Eh]
	 SCS Opposite-Spin Energy  =      -2.0506066280174897 [Eh]
	 SCS Correlation Energy    =      -2.2402596655792308 [Eh]
	 SCS Total Energy          =    -854.2958652905908821 [Eh]
	-----------------------------------------------------------

  Dipole Moment: [D]
     X:    -1.2578      Y:     0.3987      Z:     0.0421     Total:     1.3201

*** Psi4 exiting successfully. Buy a developer a beer!
