                               Psi4 1.4a3.dev225

  ==> Input File <==

--------------------------------------------------------------------------
#psi4
#
memory 32 gb

molecule  {
0 1
  S        2.3127110    -1.0235480     0.0053950
  N       -0.6038690    -1.4671430     0.0025680
  N        1.5465020     1.4501510    -0.0053670
  C       -2.6591070     0.4777660    -0.0131840
  C       -0.3303560    -0.1463500    -0.0014890
  C       -1.3149260     0.8499960    -0.0079370
  C        1.0885480     0.2076610    -0.0012920
  C       -2.9473560    -0.8932820    -0.0075970
  C       -3.7562130     1.5070280     0.0143710
  C       -1.9011700    -1.8146870    -0.0009620
  C        3.5068880     0.2049870     0.0025490
  C        2.9141540     1.4483870    -0.0033310
  H       -1.0097250     1.8934330    -0.0150530
  H       -3.9776190    -1.2428240    -0.0150370
  H       -4.0970980     1.6828510     1.0402330
  H       -3.4086480     2.4606730    -0.3912090
  H       -4.6191930     1.1768790    -0.5707550
  H       -2.1078194    -2.9040796    -0.0003866
  H        4.5630320    -0.0321470     0.0049780
  H        3.4487670     2.3922440    -0.0062430
units angstrom
no_reorient  #important for SAPT in psi4, default
symmetry c1  #important for SAPT in psi4, default
}

set PROPERTIES_ORIGIN ["COM"]
properties('MP2/aug-cc-pvtz', properties = ['dipole'])
--------------------------------------------------------------------------

    Molecular point group: c1
  Charge       = 0
  Multiplicity = 1
  Basis Set: AUG-CC-PVTZ
    Blend: AUG-CC-PVTZ
  Basis Set: (AUG-CC-PVTZ AUX)
    Blend: AUG-CC-PVTZ-JKFIT

    Orbital Energies [Eh]
    ---------------------

    Doubly Occupied:

       1A    -91.993819     2A    -15.572495     3A    -15.572097
       4A    -11.311810     5A    -11.294145     6A    -11.284198
       7A    -11.271746     8A    -11.268526     9A    -11.263398
      10A    -11.243613    11A    -11.242049    12A    -11.239872
      13A     -8.993807    14A     -6.674572    15A     -6.674021
      16A     -6.673360    17A     -1.284850    18A     -1.256663
      19A     -1.114010    20A     -1.065178    21A     -1.060141
      22A     -0.984264    23A     -0.972493    24A     -0.871834
      25A     -0.842663    26A     -0.783826    27A     -0.749243
      28A     -0.697314    29A     -0.679081    30A     -0.671453
      31A     -0.631425    32A     -0.595951    33A     -0.587060
      34A     -0.572720    35A     -0.571466    36A     -0.561762
      37A     -0.546923    38A     -0.526542    39A     -0.514611
      40A     -0.500421    41A     -0.441199    42A     -0.421183
      43A     -0.393607    44A     -0.381752    45A     -0.366447
      46A     -0.305051

  @DF-RHF Final Energy:  -852.06088631612977

   => Energetics <=

    Nuclear Repulsion Energy =            720.2510008084387891
    One-Electron Energy =               -2595.5744514245002392
    Two-Electron Energy =                1023.2625642999317961
    Total Energy =                       -852.0608863161297677
  Basis Set: (AUG-CC-PVTZ AUX)
    Blend: AUG-CC-PVTZ-RI
    Molecular point group: c1

    Geometry (in Angstrom), charge = 0, multiplicity = 1:

       Center              X                  Y                   Z               Mass
    ------------   -----------------  -----------------  -----------------  -----------------
         S            2.249933198490    -0.992899871475     0.005657881086    31.972071174400
         N           -0.666646801510    -1.436494871475     0.002830881086    14.003074004430
         N            1.483724198490     1.480799128525    -0.005104118914    14.003074004430
         C           -2.721884801510     0.508414128525    -0.012921118914    12.000000000000
         C           -0.393133801510    -0.115701871475    -0.001226118914    12.000000000000
         C           -1.377703801510     0.880644128525    -0.007674118914    12.000000000000
         C            1.025770198490     0.238309128525    -0.001029118914    12.000000000000
         C           -3.010133801510    -0.862633871475    -0.007334118914    12.000000000000
         C           -3.818990801510     1.537676128525     0.014633881086    12.000000000000
         C           -1.963947801510    -1.784038871475    -0.000699118914    12.000000000000
         C            3.444110198490     0.235635128525     0.002811881086    12.000000000000
         C            2.851376198490     1.479035128525    -0.003068118914    12.000000000000
         H           -1.072502801510     1.924081128525    -0.014790118914     1.007825032230
         H           -4.040396801510    -1.212175871475    -0.014774118914     1.007825032230
         H           -4.159875801510     1.713499128525     1.040495881086     1.007825032230
         H           -3.471425801510     2.491321128525    -0.390946118914     1.007825032230
         H           -4.681970801510     1.207527128525    -0.570492118914     1.007825032230
         H           -2.170597201510    -2.873431471475    -0.000123718914     1.007825032230
         H            4.500254198490    -0.001498871475     0.005240881086     1.007825032230
         H            3.385989198490     2.422892128525    -0.005980118914     1.007825032230

  Basis Set: AUG-CC-PVTZ
    Blend: AUG-CC-PVTZ
  Basis Set: (AUG-CC-PVTZ AUX)
    Blend: AUG-CC-PVTZ-JKFIT
	 Reference Energy          =    -852.0608863161297677 [Eh]
	 Singles Energy            =      -0.0000000000000000 [Eh]
	 Same-Spin Energy          =      -0.5691999409787257 [Eh]
	 Opposite-Spin Energy      =      -1.7094431958037297 [Eh]
	 Correlation Energy        =      -2.2786431367824553 [Eh]
	 Total Energy              =    -854.3395294529121884 [Eh]

	 ================> DF-SCS-MP2 Energies <==================
	-----------------------------------------------------------
	 SCS Same-Spin Scale       =       0.3333333333333333 [-]
	 SCS Opposite-Spin Scale   =       1.2000000000000000 [-]
	 SCS Same-Spin Energy      =      -0.1897333136595752 [Eh]
	 SCS Opposite-Spin Energy  =      -2.0513318349644756 [Eh]
	 SCS Correlation Energy    =      -2.2410651486240507 [Eh]
	 SCS Total Energy          =    -854.3019514647538699 [Eh]
	-----------------------------------------------------------

  Dipole Moment: [D]
     X:    -1.2740      Y:     0.4037      Z:     0.0420     Total:     1.3371

*** Psi4 exiting successfully. Buy a developer a beer!
