                               Psi4 1.4a3.dev225

  ==> Input File <==

--------------------------------------------------------------------------
#psi4
#
memory 32 gb

molecule  {
0 1
  S        2.2910367    -1.0447250     0.0054589
  N       -0.6038690    -1.4671430     0.0025680
  N        1.5465020     1.4501510    -0.0053670
  C       -2.6591070     0.4777660    -0.0131840
  C       -0.3303560    -0.1463500    -0.0014890
  C       -1.3149260     0.8499960    -0.0079370
  C        1.0885480     0.2076610    -0.0012920
  C       -2.9473560    -0.8932820    -0.0075970
  C       -3.7562130     1.5070280     0.0143710
  C       -1.9011700    -1.8146870    -0.0009620
  C        3.5068880     0.2049870     0.0025490
  C        2.9141540     1.4483870    -0.0033310
  H       -1.0097250     1.8934330    -0.0150530
  H       -3.9776190    -1.2428240    -0.0150370
  H       -4.0970980     1.6828510     1.0402330
  H       -3.4086480     2.4606730    -0.3912090
  H       -4.6191930     1.1768790    -0.5707550
  H       -2.1040920    -2.8844300    -0.0003970
  H        4.5630320    -0.0321470     0.0049780
  H        3.4487670     2.3922440    -0.0062430
units angstrom
no_reorient  #important for SAPT in psi4, default
symmetry c1  #important for SAPT in psi4, default
}

set PROPERTIES_ORIGIN ["COM"]
properties('MP2/aug-cc-pvtz', properties = ['dipole'])
--------------------------------------------------------------------------

    Molecular point group: c1
  Charge       = 0
  Multiplicity = 1
  Basis Set: AUG-CC-PVTZ
    Blend: AUG-CC-PVTZ
  Basis Set: (AUG-CC-PVTZ AUX)
    Blend: AUG-CC-PVTZ-JKFIT

    Orbital Energies [Eh]
    ---------------------

    Doubly Occupied:

       1A    -91.994367     2A    -15.572353     3A    -15.572227
       4A    -11.312826     5A    -11.293792     6A    -11.282230
       7A    -11.271824     8A    -11.269262     9A    -11.265059
      10A    -11.243808    11A    -11.242238    12A    -11.239959
      13A     -8.993718    14A     -6.674455    15A     -6.673864
      16A     -6.673248    17A     -1.284024    18A     -1.256368
      19A     -1.114190    20A     -1.063878    21A     -1.056089
      22A     -0.984984    23A     -0.972631    24A     -0.871970
      25A     -0.844298    26A     -0.784665    27A     -0.748309
      28A     -0.696042    29A     -0.679387    30A     -0.671070
      31A     -0.633879    32A     -0.595987    33A     -0.587674
      34A     -0.571803    35A     -0.570437    36A     -0.562035
      37A     -0.546834    38A     -0.525714    39A     -0.514477
      40A     -0.499110    41A     -0.441542    42A     -0.421335
      43A     -0.390896    44A     -0.382447    45A     -0.366872
      46A     -0.305769

  @DF-RHF Final Energy:  -852.06066644682733

   => Energetics <=

    Nuclear Repulsion Energy =            719.9250789255011114
    One-Electron Energy =               -2594.9316015812710248
    Two-Electron Energy =                1022.9458562089425868
    Total Energy =                       -852.0606664468273266
  Basis Set: (AUG-CC-PVTZ AUX)
    Blend: AUG-CC-PVTZ-RI
    Molecular point group: c1

    Geometry (in Angstrom), charge = 0, multiplicity = 1:

       Center              X                  Y                   Z               Mass
    ------------   -----------------  -----------------  -----------------  -----------------
         S            2.232173988737    -1.010343253359     0.005710235275    31.972071174400
         N           -0.662731711263    -1.432761253359     0.002819335275    14.003074004430
         N            1.487639288737     1.484532746641    -0.005115664725    14.003074004430
         C           -2.717969711263     0.512147746641    -0.012932664725    12.000000000000
         C           -0.389218711263    -0.111968253359    -0.001237664725    12.000000000000
         C           -1.373788711263     0.884377746641    -0.007685664725    12.000000000000
         C            1.029685288737     0.242042746641    -0.001040664725    12.000000000000
         C           -3.006218711263    -0.858900253359    -0.007345664725    12.000000000000
         C           -3.815075711263     1.541409746641     0.014622335275    12.000000000000
         C           -1.960032711263    -1.780305253359    -0.000710664725    12.000000000000
         C            3.448025288737     0.239368746641     0.002800335275    12.000000000000
         C            2.855291288737     1.482768746641    -0.003079664725    12.000000000000
         H           -1.068587711263     1.927814746641    -0.014801664725     1.007825032230
         H           -4.036481711263    -1.208442253359    -0.014785664725     1.007825032230
         H           -4.155960711263     1.717232746641     1.040484335275     1.007825032230
         H           -3.467510711263     2.495054746641    -0.390957664725     1.007825032230
         H           -4.678055711263     1.211260746641    -0.570503664725     1.007825032230
         H           -2.162954711263    -2.850048253359    -0.000145664725     1.007825032230
         H            4.504169288737     0.002234746641     0.005229335275     1.007825032230
         H            3.389904288737     2.426625746641    -0.005991664725     1.007825032230

  Basis Set: AUG-CC-PVTZ
    Blend: AUG-CC-PVTZ
  Basis Set: (AUG-CC-PVTZ AUX)
    Blend: AUG-CC-PVTZ-JKFIT
	 Reference Energy          =    -852.0606664468273266 [Eh]
	 Singles Energy            =      -0.0000000000000000 [Eh]
	 Same-Spin Energy          =      -0.5689173796355715 [Eh]
	 Opposite-Spin Energy      =      -1.7096180503875187 [Eh]
	 Correlation Energy        =      -2.2785354300230902 [Eh]
	 Total Energy              =    -854.3392018768504386 [Eh]

	 ================> DF-SCS-MP2 Energies <==================
	-----------------------------------------------------------
	 SCS Same-Spin Scale       =       0.3333333333333333 [-]
	 SCS Opposite-Spin Scale   =       1.2000000000000000 [-]
	 SCS Same-Spin Energy      =      -0.1896391265451905 [Eh]
	 SCS Opposite-Spin Energy  =      -2.0515416604650225 [Eh]
	 SCS Correlation Energy    =      -2.2411807870102129 [Eh]
	 SCS Total Energy          =    -854.3018472338375204 [Eh]
	-----------------------------------------------------------

  Dipole Moment: [D]
     X:    -1.3266      Y:     0.3987      Z:     0.0420     Total:     1.3858

*** Psi4 exiting successfully. Buy a developer a beer!
