                               Psi4 1.4a3.dev225

  ==> Input File <==

--------------------------------------------------------------------------
#psi4
#
memory 32 gb

molecule  {
0 1
  S        2.3127110    -1.0235480     0.0053950
  N       -0.6038690    -1.4671430     0.0025680
  N        1.5465020     1.4501510    -0.0053670
  C       -2.6591070     0.4777660    -0.0131840
  C       -0.3303560    -0.1463500    -0.0014890
  C       -1.3149260     0.8499960    -0.0079370
  C        1.0885480     0.2076610    -0.0012920
  C       -2.9473560    -0.8932820    -0.0075970
  C       -3.7562130     1.5070280     0.0143710
  C       -1.8636483    -1.8477334    -0.0007240
  C        3.5068880     0.2049870     0.0025490
  C        2.9141540     1.4483870    -0.0033310
  H       -1.0097250     1.8934330    -0.0150530
  H       -3.9776190    -1.2428240    -0.0150370
  H       -4.0970980     1.6828510     1.0402330
  H       -3.4086480     2.4606730    -0.3912090
  H       -4.6191930     1.1768790    -0.5707550
  H       -2.1040920    -2.8844300    -0.0003970
  H        4.5630320    -0.0321470     0.0049780
  H        3.4487670     2.3922440    -0.0062430
units angstrom
no_reorient  #important for SAPT in psi4, default
symmetry c1  #important for SAPT in psi4, default
}

set PROPERTIES_ORIGIN ["COM"]
properties('MP2/aug-cc-pvtz', properties = ['dipole'])
--------------------------------------------------------------------------

    Molecular point group: c1
  Charge       = 0
  Multiplicity = 1
  Basis Set: AUG-CC-PVTZ
    Blend: AUG-CC-PVTZ
  Basis Set: (AUG-CC-PVTZ AUX)
    Blend: AUG-CC-PVTZ-JKFIT

    Orbital Energies [Eh]
    ---------------------

    Doubly Occupied:

       1A    -91.993268     2A    -15.571341     3A    -15.570976
       4A    -11.311542     5A    -11.293399     6A    -11.284584
       7A    -11.270245     8A    -11.268094     9A    -11.262503
      10A    -11.247819    11A    -11.243189    12A    -11.239183
      13A     -8.993264    14A     -6.674031    15A     -6.673481
      16A     -6.672819    17A     -1.285607    18A     -1.260016
      19A     -1.113441    20A     -1.064233    21A     -1.060083
      22A     -0.980568    23A     -0.970276    24A     -0.874889
      25A     -0.843863    26A     -0.783403    27A     -0.750400
      28A     -0.696458    29A     -0.680212    30A     -0.669381
      31A     -0.640084    32A     -0.595248    33A     -0.586917
      34A     -0.572614    35A     -0.570919    36A     -0.562451
      37A     -0.548165    38A     -0.527114    39A     -0.518414
      40A     -0.500043    41A     -0.438823    42A     -0.417511
      43A     -0.392268    44A     -0.380964    45A     -0.368297
      46A     -0.301499

  @DF-RHF Final Energy:  -852.05917046681031

   => Energetics <=

    Nuclear Repulsion Energy =            720.1063031139343593
    One-Electron Energy =               -2595.2831449231662191
    Two-Electron Energy =                1023.1176713424216587
    Total Energy =                       -852.0591704668103148
  Basis Set: (AUG-CC-PVTZ AUX)
    Blend: AUG-CC-PVTZ-RI
    Molecular point group: c1

    Geometry (in Angstrom), charge = 0, multiplicity = 1:

       Center              X                  Y                   Z               Mass
    ------------   -----------------  -----------------  -----------------  -----------------
         S            2.247354154786    -0.990759723284     0.005641717115    31.972071174400
         N           -0.669225845214    -1.434354723284     0.002814717115    14.003074004430
         N            1.481145154786     1.482939276716    -0.005120282885    14.003074004430
         C           -2.724463845214     0.510554276716    -0.012937282885    12.000000000000
         C           -0.395712845214    -0.113561723284    -0.001242282885    12.000000000000
         C           -1.380282845214     0.882784276716    -0.007690282885    12.000000000000
         C            1.023191154786     0.240449276716    -0.001045282885    12.000000000000
         C           -3.012712845214    -0.860493723284    -0.007350282885    12.000000000000
         C           -3.821569845214     1.539816276716     0.014617717115    12.000000000000
         C           -1.929005145214    -1.814945123284    -0.000477282885    12.000000000000
         C            3.441531154786     0.237775276716     0.002795717115    12.000000000000
         C            2.848797154786     1.481175276716    -0.003084282885    12.000000000000
         H           -1.075081845214     1.926221276716    -0.014806282885     1.007825032230
         H           -4.042975845214    -1.210035723284    -0.014790282885     1.007825032230
         H           -4.162454845214     1.715639276716     1.040479717115     1.007825032230
         H           -3.474004845214     2.493461276716    -0.390962282885     1.007825032230
         H           -4.684549845214     1.209667276716    -0.570508282885     1.007825032230
         H           -2.169448845214    -2.851641723284    -0.000150282885     1.007825032230
         H            4.497675154786     0.000641276716     0.005224717115     1.007825032230
         H            3.383410154786     2.425032276716    -0.005996282885     1.007825032230

  Basis Set: AUG-CC-PVTZ
    Blend: AUG-CC-PVTZ
  Basis Set: (AUG-CC-PVTZ AUX)
    Blend: AUG-CC-PVTZ-JKFIT
	 Reference Energy          =    -852.0591704668103148 [Eh]
	 Singles Energy            =      -0.0000000000000000 [Eh]
	 Same-Spin Energy          =      -0.5689913430374147 [Eh]
	 Opposite-Spin Energy      =      -1.7090365695751775 [Eh]
	 Correlation Energy        =      -2.2780279126125924 [Eh]
	 Total Energy              =    -854.3371983794229436 [Eh]

	 ================> DF-SCS-MP2 Energies <==================
	-----------------------------------------------------------
	 SCS Same-Spin Scale       =       0.3333333333333333 [-]
	 SCS Opposite-Spin Scale   =       1.2000000000000000 [-]
	 SCS Same-Spin Energy      =      -0.1896637810124716 [Eh]
	 SCS Opposite-Spin Energy  =      -2.0508438834902130 [Eh]
	 SCS Correlation Energy    =      -2.2405076645026845 [Eh]
	 SCS Total Energy          =    -854.2996781313130441 [Eh]
	-----------------------------------------------------------

  Dipole Moment: [D]
     X:    -1.2831      Y:     0.3106      Z:     0.0419     Total:     1.3208

*** Psi4 exiting successfully. Buy a developer a beer!
