                               Psi4 1.4a3.dev225

  ==> Input File <==

--------------------------------------------------------------------------
#psi4
#
memory 32 gb

molecule  {
0 1
  S        2.3127110    -1.0235480     0.0053950
  N       -0.6038690    -1.4671430     0.0025680
  N        1.5465020     1.4501510    -0.0053670
  C       -2.6591070     0.4777660    -0.0131840
  C       -0.3303560    -0.1463500    -0.0014890
  C       -1.3149260     0.8499960    -0.0079370
  C        1.1231313     0.3014901    -0.0015997
  C       -2.9473560    -0.8932820    -0.0075970
  C       -3.7562130     1.5070280     0.0143710
  C       -1.9011700    -1.8146870    -0.0009620
  C        3.5068880     0.2049870     0.0025490
  C        2.9141540     1.4483870    -0.0033310
  H       -1.0097250     1.8934330    -0.0150530
  H       -3.9776190    -1.2428240    -0.0150370
  H       -4.0970980     1.6828510     1.0402330
  H       -3.4086480     2.4606730    -0.3912090
  H       -4.6191930     1.1768790    -0.5707550
  H       -2.1040920    -2.8844300    -0.0003970
  H        4.5630320    -0.0321470     0.0049780
  H        3.4487670     2.3922440    -0.0062430
units angstrom
no_reorient  #important for SAPT in psi4, default
symmetry c1  #important for SAPT in psi4, default
}

set PROPERTIES_ORIGIN ["COM"]
properties('MP2/aug-cc-pvtz', properties = ['dipole'])
--------------------------------------------------------------------------

    Molecular point group: c1
  Charge       = 0
  Multiplicity = 1
  Basis Set: AUG-CC-PVTZ
    Blend: AUG-CC-PVTZ
  Basis Set: (AUG-CC-PVTZ AUX)
    Blend: AUG-CC-PVTZ-JKFIT

    Orbital Energies [Eh]
    ---------------------

    Doubly Occupied:

       1A    -91.984653     2A    -15.573230     3A    -15.567700
       4A    -11.308852     5A    -11.296880     6A    -11.282598
       7A    -11.271381     8A    -11.268245     9A    -11.264890
      10A    -11.243243    11A    -11.240842    12A    -11.239772
      13A     -8.984841    14A     -6.665632    15A     -6.664920
      16A     -6.664245    17A     -1.313357    18A     -1.260457
      19A     -1.113367    20A     -1.070454    21A     -1.054089
      22A     -0.982507    23A     -0.972149    24A     -0.866302
      25A     -0.842324    26A     -0.795738    27A     -0.743049
      28A     -0.700335    29A     -0.679146    30A     -0.671415
      31A     -0.634562    32A     -0.596778    33A     -0.593080
      34A     -0.580967    35A     -0.569095    36A     -0.562579
      37A     -0.545970    38A     -0.529665    39A     -0.513440
      40A     -0.498407    41A     -0.442573    42A     -0.413435
      43A     -0.402882    44A     -0.378904    45A     -0.363418
      46A     -0.310704

  @DF-RHF Final Energy:  -852.05552548653179

   => Energetics <=

    Nuclear Repulsion Energy =            720.3554500253025026
    One-Electron Energy =               -2595.7758042030141041
    Two-Electron Energy =                1023.3648286911796959
    Total Energy =                       -852.0555254865317920
  Basis Set: (AUG-CC-PVTZ AUX)
    Blend: AUG-CC-PVTZ-RI
    Molecular point group: c1

    Geometry (in Angstrom), charge = 0, multiplicity = 1:

       Center              X                  Y                   Z               Mass
    ------------   -----------------  -----------------  -----------------  -----------------
         S            2.247554453786    -0.999408319699     0.005678915306    31.972071174400
         N           -0.669025546214    -1.443003319699     0.002851915306    14.003074004430
         N            1.481345453786     1.474290680301    -0.005083084694    14.003074004430
         C           -2.724263546214     0.501905680301    -0.012900084694    12.000000000000
         C           -0.395512546214    -0.122210319699    -0.001205084694    12.000000000000
         C           -1.380082546214     0.874135680301    -0.007653084694    12.000000000000
         C            1.057974753786     0.325629780301    -0.001315784694    12.000000000000
         C           -3.012512546214    -0.869142319699    -0.007313084694    12.000000000000
         C           -3.821369546214     1.531167680301     0.014654915306    12.000000000000
         C           -1.966326546214    -1.790547319699    -0.000678084694    12.000000000000
         C            3.441731453786     0.229126680301     0.002832915306    12.000000000000
         C            2.848997453786     1.472526680301    -0.003047084694    12.000000000000
         H           -1.074881546214     1.917572680301    -0.014769084694     1.007825032230
         H           -4.042775546214    -1.218684319699    -0.014753084694     1.007825032230
         H           -4.162254546214     1.706990680301     1.040516915306     1.007825032230
         H           -3.473804546214     2.484812680301    -0.390925084694     1.007825032230
         H           -4.684349546214     1.201018680301    -0.570471084694     1.007825032230
         H           -2.169248546214    -2.860290319699    -0.000113084694     1.007825032230
         H            4.497875453786    -0.008007319699     0.005261915306     1.007825032230
         H            3.383610453786     2.416383680301    -0.005959084694     1.007825032230

  Basis Set: AUG-CC-PVTZ
    Blend: AUG-CC-PVTZ
  Basis Set: (AUG-CC-PVTZ AUX)
    Blend: AUG-CC-PVTZ-JKFIT
	 Reference Energy          =    -852.0555254865317920 [Eh]
	 Singles Energy            =      -0.0000000000000000 [Eh]
	 Same-Spin Energy          =      -0.5663074832296734 [Eh]
	 Opposite-Spin Energy      =      -1.7055529605460851 [Eh]
	 Correlation Energy        =      -2.2718604437757586 [Eh]
	 Total Energy              =    -854.3273859303075142 [Eh]

	 ================> DF-SCS-MP2 Energies <==================
	-----------------------------------------------------------
	 SCS Same-Spin Scale       =       0.3333333333333333 [-]
	 SCS Opposite-Spin Scale   =       1.2000000000000000 [-]
	 SCS Same-Spin Energy      =      -0.1887691610765578 [Eh]
	 SCS Opposite-Spin Energy  =      -2.0466635526553021 [Eh]
	 SCS Correlation Energy    =      -2.2354327137318597 [Eh]
	 SCS Total Energy          =    -854.2909582002636171 [Eh]
	-----------------------------------------------------------

  Dipole Moment: [D]
     X:    -1.5320      Y:     0.5993      Z:     0.0411     Total:     1.6456

*** Psi4 exiting successfully. Buy a developer a beer!
