                               Psi4 1.4a3.dev225

  ==> Input File <==

--------------------------------------------------------------------------
#psi4
#
memory 32 gb

molecule  {
0 1
  S        2.3127110    -1.0235480     0.0053950
  N       -0.6038690    -1.4671430     0.0025680
  N        1.5465020     1.4501510    -0.0053670
  C       -2.6591070     0.4777660    -0.0131840
  C       -0.3303560    -0.1463500    -0.0014890
  C       -1.3149260     0.8499960    -0.0079370
  C        1.0885480     0.2076610    -0.0012920
  C       -2.9473560    -0.8932820    -0.0075970
  C       -3.7562130     1.5070280     0.0143710
  C       -1.9011700    -1.8146870    -0.0009620
  C        3.5068880     0.2049870     0.0025490
  C        2.9141540     1.4483870    -0.0033310
  H       -1.0097250     1.8934330    -0.0150530
  H       -3.9776190    -1.2428240    -0.0150370
  H       -4.0970980     1.6828510     1.0402330
  H       -3.4086480     2.4606730    -0.3912090
  H       -4.6191930     1.1768790    -0.5707550
  H       -2.1413658    -3.0809259    -0.0002932
  H        4.5630320    -0.0321470     0.0049780
  H        3.4487670     2.3922440    -0.0062430
units angstrom
no_reorient  #important for SAPT in psi4, default
symmetry c1  #important for SAPT in psi4, default
}

set PROPERTIES_ORIGIN ["COM"]
properties('MP2/aug-cc-pvtz', properties = ['dipole'])
--------------------------------------------------------------------------

    Molecular point group: c1
  Charge       = 0
  Multiplicity = 1
  Basis Set: AUG-CC-PVTZ
    Blend: AUG-CC-PVTZ
  Basis Set: (AUG-CC-PVTZ AUX)
    Blend: AUG-CC-PVTZ-JKFIT

    Orbital Energies [Eh]
    ---------------------

    Doubly Occupied:

       1A    -91.994424     2A    -15.574405     3A    -15.573201
       4A    -11.312557     5A    -11.303127     6A    -11.295990
       7A    -11.273213     8A    -11.269058     9A    -11.263989
      10A    -11.245781    11A    -11.242926    12A    -11.240761
      13A     -8.994407    14A     -6.675171    15A     -6.674620
      16A     -6.673960    17A     -1.285725    18A     -1.257711
      19A     -1.115337    20A     -1.065048    21A     -1.059442
      22A     -0.983907    23A     -0.973494    24A     -0.871616
      25A     -0.835058    26A     -0.783182    27A     -0.747008
      28A     -0.696787    29A     -0.679867    30A     -0.672445
      31A     -0.613602    32A     -0.596892    33A     -0.580829
      34A     -0.573531    35A     -0.571765    36A     -0.561356
      37A     -0.545779    38A     -0.527805    39A     -0.509007
      40A     -0.498893    41A     -0.440316    42A     -0.420209
      43A     -0.394354    44A     -0.382829    45A     -0.367477
      46A     -0.305833

  @DF-RHF Final Energy:  -852.03924502723976

   => Energetics <=

    Nuclear Repulsion Energy =            719.3689217554377819
    One-Electron Energy =               -2593.7669402575252207
    Two-Electron Energy =                1022.3587734748475668
    Total Energy =                       -852.0392450272397582
  Basis Set: (AUG-CC-PVTZ AUX)
    Blend: AUG-CC-PVTZ-RI
    Molecular point group: c1

    Geometry (in Angstrom), charge = 0, multiplicity = 1:

       Center              X                  Y                   Z               Mass
    ------------   -----------------  -----------------  -----------------  -----------------
         S            2.250125249980    -0.991887435106     0.005657346375    31.972071174400
         N           -0.666454750020    -1.435482435106     0.002830346375    14.003074004430
         N            1.483916249980     1.481811564894    -0.005104653625    14.003074004430
         C           -2.721692750020     0.509426564894    -0.012921653625    12.000000000000
         C           -0.392941750020    -0.114689435106    -0.001226653625    12.000000000000
         C           -1.377511750020     0.881656564894    -0.007674653625    12.000000000000
         C            1.025962249980     0.239321564894    -0.001029653625    12.000000000000
         C           -3.009941750020    -0.861621435106    -0.007334653625    12.000000000000
         C           -3.818798750020     1.538688564894     0.014633346375    12.000000000000
         C           -1.963755750020    -1.783026435106    -0.000699653625    12.000000000000
         C            3.444302249980     0.236647564894     0.002811346375    12.000000000000
         C            2.851568249980     1.480047564894    -0.003068653625    12.000000000000
         H           -1.072310750020     1.925093564894    -0.014790653625     1.007825032230
         H           -4.040204750020    -1.211163435106    -0.014774653625     1.007825032230
         H           -4.159683750020     1.714511564894     1.040495346375     1.007825032230
         H           -3.471233750020     2.492333564894    -0.390946653625     1.007825032230
         H           -4.681778750020     1.208539564894    -0.570492653625     1.007825032230
         H           -2.203951550020    -3.049265335106    -0.000030853625     1.007825032230
         H            4.500446249980    -0.000486435106     0.005240346375     1.007825032230
         H            3.386181249980     2.423904564894    -0.005980653625     1.007825032230

  Basis Set: AUG-CC-PVTZ
    Blend: AUG-CC-PVTZ
  Basis Set: (AUG-CC-PVTZ AUX)
    Blend: AUG-CC-PVTZ-JKFIT
	 Reference Energy          =    -852.0392450272397582 [Eh]
	 Singles Energy            =      -0.0000000000000000 [Eh]
	 Same-Spin Energy          =      -0.5698078100034230 [Eh]
	 Opposite-Spin Energy      =      -1.7116572161558570 [Eh]
	 Correlation Energy        =      -2.2814650261592799 [Eh]
	 Total Energy              =    -854.3207100533990115 [Eh]

	 ================> DF-SCS-MP2 Energies <==================
	-----------------------------------------------------------
	 SCS Same-Spin Scale       =       0.3333333333333333 [-]
	 SCS Opposite-Spin Scale   =       1.2000000000000000 [-]
	 SCS Same-Spin Energy      =      -0.1899359366678076 [Eh]
	 SCS Opposite-Spin Energy  =      -2.0539886593870285 [Eh]
	 SCS Correlation Energy    =      -2.2439245960548360 [Eh]
	 SCS Total Energy          =    -854.2831696232946115 [Eh]
	-----------------------------------------------------------

  Dipole Moment: [D]
     X:    -1.2036      Y:     0.5219      Z:     0.0419     Total:     1.3126

*** Psi4 exiting successfully. Buy a developer a beer!
