                               Psi4 1.4a3.dev225

  ==> Input File <==

--------------------------------------------------------------------------
#psi4
#
memory 32 gb

molecule  {
0 1
  S        2.3127110    -1.0235480     0.0053950
  N       -0.6038690    -1.4671430     0.0025680
  N        1.5465020     1.4501510    -0.0053670
  C       -2.6591070     0.4777660    -0.0131840
  C       -0.3303560    -0.1463500    -0.0014890
  C       -1.3149260     0.8499960    -0.0079370
  C        1.0885480     0.2076610    -0.0012920
  C       -2.9473560    -0.8932820    -0.0075970
  C       -3.7562130     1.5070280     0.0143710
  C       -1.9011700    -1.8146870    -0.0009620
  C        3.5068880     0.2049870     0.0025490
  C        2.9141540     1.4483870    -0.0033310
  H       -1.0097250     1.8934330    -0.0150530
  H       -3.9776190    -1.2428240    -0.0150370
  H       -4.0970980     1.6828510     1.0402330
  H       -3.4150076     2.4432236    -0.3837879
  H       -4.6191930     1.1768790    -0.5707550
  H       -2.1040920    -2.8844300    -0.0003970
  H        4.5630320    -0.0321470     0.0049780
  H        3.4487670     2.3922440    -0.0062430
units angstrom
no_reorient  #important for SAPT in psi4, default
symmetry c1  #important for SAPT in psi4, default
}

set PROPERTIES_ORIGIN ["COM"]
properties('MP2/aug-cc-pvtz', properties = ['dipole'])
--------------------------------------------------------------------------

    Molecular point group: c1
  Charge       = 0
  Multiplicity = 1
  Basis Set: AUG-CC-PVTZ
    Blend: AUG-CC-PVTZ
  Basis Set: (AUG-CC-PVTZ AUX)
    Blend: AUG-CC-PVTZ-JKFIT

    Orbital Energies [Eh]
    ---------------------

    Doubly Occupied:

       1A    -91.993751     2A    -15.572420     3A    -15.571850
       4A    -11.311730     5A    -11.293958     6A    -11.281835
       7A    -11.271459     8A    -11.268469     9A    -11.263333
      10A    -11.243298    11A    -11.241965    12A    -11.237412
      13A     -8.993739    14A     -6.674505    15A     -6.673954
      16A     -6.673293    17A     -1.284760    18A     -1.256567
      19A     -1.114062    20A     -1.065274    21A     -1.060269
      22A     -0.984495    23A     -0.973721    24A     -0.871973
      25A     -0.844287    26A     -0.784025    27A     -0.749703
      28A     -0.697569    29A     -0.679197    30A     -0.671458
      31A     -0.634187    32A     -0.596180    33A     -0.587495
      34A     -0.572768    35A     -0.571417    36A     -0.564210
      37A     -0.547108    38A     -0.526454    39A     -0.515492
      40A     -0.500463    41A     -0.441243    42A     -0.421201
      43A     -0.393519    44A     -0.381618    45A     -0.366354
      46A     -0.304959

  @DF-RHF Final Energy:  -852.06160507640175

   => Energetics <=

    Nuclear Repulsion Energy =            720.4440476425696716
    One-Electron Energy =               -2595.9533140026751425
    Two-Electron Energy =                1023.4476612837036100
    Total Energy =                       -852.0616050764017473
  Basis Set: (AUG-CC-PVTZ AUX)
    Blend: AUG-CC-PVTZ-RI
    Molecular point group: c1

    Geometry (in Angstrom), charge = 0, multiplicity = 1:

       Center              X                  Y                   Z               Mass
    ------------   -----------------  -----------------  -----------------  -----------------
         S            2.249948267706    -0.992912467511     0.005615455193    31.972071174400
         N           -0.666631732294    -1.436507467511     0.002788455193    14.003074004430
         N            1.483739267706     1.480786532489    -0.005146544807    14.003074004430
         C           -2.721869732294     0.508401532489    -0.012963544807    12.000000000000
         C           -0.393118732294    -0.115714467511    -0.001268544807    12.000000000000
         C           -1.377688732294     0.880631532489    -0.007716544807    12.000000000000
         C            1.025785267706     0.238296532489    -0.001071544807    12.000000000000
         C           -3.010118732294    -0.862646467511    -0.007376544807    12.000000000000
         C           -3.818975732294     1.537663532489     0.014591455193    12.000000000000
         C           -1.963932732294    -1.784051467511    -0.000741544807    12.000000000000
         C            3.444125267706     0.235622532489     0.002769455193    12.000000000000
         C            2.851391267706     1.479022532489    -0.003110544807    12.000000000000
         H           -1.072487732294     1.924068532489    -0.014832544807     1.007825032230
         H           -4.040381732294    -1.212188467511    -0.014816544807     1.007825032230
         H           -4.159860732294     1.713486532489     1.040453455193     1.007825032230
         H           -3.477770332294     2.473859132489    -0.383567444807     1.007825032230
         H           -4.681955732294     1.207514532489    -0.570534544807     1.007825032230
         H           -2.166854732294    -2.853794467511    -0.000176544807     1.007825032230
         H            4.500269267706    -0.001511467511     0.005198455193     1.007825032230
         H            3.386004267706     2.422879532489    -0.006022544807     1.007825032230

  Basis Set: AUG-CC-PVTZ
    Blend: AUG-CC-PVTZ
  Basis Set: (AUG-CC-PVTZ AUX)
    Blend: AUG-CC-PVTZ-JKFIT
	 Reference Energy          =    -852.0616050764017473 [Eh]
	 Singles Energy            =      -0.0000000000000000 [Eh]
	 Same-Spin Energy          =      -0.5691416444268664 [Eh]
	 Opposite-Spin Energy      =      -1.7091401423040709 [Eh]
	 Correlation Energy        =      -2.2782817867309371 [Eh]
	 Total Energy              =    -854.3398868631327332 [Eh]

	 ================> DF-SCS-MP2 Energies <==================
	-----------------------------------------------------------
	 SCS Same-Spin Scale       =       0.3333333333333333 [-]
	 SCS Opposite-Spin Scale   =       1.2000000000000000 [-]
	 SCS Same-Spin Energy      =      -0.1897138814756221 [Eh]
	 SCS Opposite-Spin Energy  =      -2.0509681707648850 [Eh]
	 SCS Correlation Energy    =      -2.2406820522405071 [Eh]
	 SCS Total Energy          =    -854.3022871286422060 [Eh]
	-----------------------------------------------------------

  Dipole Moment: [D]
     X:    -1.2826      Y:     0.4037      Z:     0.0398     Total:     1.3452

*** Psi4 exiting successfully. Buy a developer a beer!
