                               Psi4 1.4a3.dev225

  ==> Input File <==

--------------------------------------------------------------------------
#psi4
#
memory 32 gb

molecule  {
0 1
  S        2.3127110    -1.0235480     0.0053950
  N       -0.6038690    -1.4671430     0.0025680
  N        1.5465020     1.4501510    -0.0053670
  C       -2.6591070     0.4777660    -0.0131840
  C       -0.3303560    -0.1463500    -0.0014890
  C       -1.5076708     0.7966212    -0.0086894
  C        1.0885480     0.2076610    -0.0012920
  C       -2.9473560    -0.8932820    -0.0075970
  C       -3.7562130     1.5070280     0.0143710
  C       -1.9011700    -1.8146870    -0.0009620
  C        3.5068880     0.2049870     0.0025490
  C        2.9141540     1.4483870    -0.0033310
  H       -1.0097250     1.8934330    -0.0150530
  H       -3.9776190    -1.2428240    -0.0150370
  H       -4.0970980     1.6828510     1.0402330
  H       -3.4086480     2.4606730    -0.3912090
  H       -4.6191930     1.1768790    -0.5707550
  H       -2.1040920    -2.8844300    -0.0003970
  H        4.5630320    -0.0321470     0.0049780
  H        3.4487670     2.3922440    -0.0062430
units angstrom
no_reorient  #important for SAPT in psi4, default
symmetry c1  #important for SAPT in psi4, default
}

set PROPERTIES_ORIGIN ["COM"]
properties('MP2/aug-cc-pvtz', properties = ['dipole'])
--------------------------------------------------------------------------

    Molecular point group: c1
  Charge       = 0
  Multiplicity = 1
  Basis Set: AUG-CC-PVTZ
    Blend: AUG-CC-PVTZ
  Basis Set: (AUG-CC-PVTZ AUX)
    Blend: AUG-CC-PVTZ-JKFIT

    Orbital Energies [Eh]
    ---------------------

    Doubly Occupied:

       1A    -91.999544     2A    -15.579371     3A    -15.574529
       4A    -11.319197     5A    -11.307867     6A    -11.274002
       7A    -11.272866     8A    -11.269499     9A    -11.243005
      10A    -11.237938    11A    -11.234353    12A    -11.233844
      13A     -8.999405    14A     -6.680148    15A     -6.679614
      16A     -6.678928    17A     -1.288728    18A     -1.260628
      19A     -1.146360    20A     -1.067832    21A     -1.054778
      22A     -0.986853    23A     -0.967116    24A     -0.886683
      25A     -0.833156    26A     -0.785404    27A     -0.758180
      28A     -0.699828    29A     -0.681708    30A     -0.669048
      31A     -0.622435    32A     -0.599557    33A     -0.582974
      34A     -0.574484    35A     -0.573905    36A     -0.558257
      37A     -0.539188    38A     -0.527946    39A     -0.520657
      40A     -0.498566    41A     -0.444115    42A     -0.409371
      43A     -0.407295    44A     -0.394724    45A     -0.369154
      46A     -0.302283

  @DF-RHF Final Energy:  -851.99692417023618

   => Energetics <=

    Nuclear Repulsion Energy =            721.1473580774472794
    One-Electron Energy =               -2597.0979160389629214
    Two-Electron Energy =                1023.9536337912794579
    Total Energy =                       -851.9969241702361842
  Basis Set: (AUG-CC-PVTZ AUX)
    Blend: AUG-CC-PVTZ-RI
    Molecular point group: c1

    Geometry (in Angstrom), charge = 0, multiplicity = 1:

       Center              X                  Y                   Z               Mass
    ------------   -----------------  -----------------  -----------------  -----------------
         S            2.263050502990    -0.989374017396     0.005709228730    31.972071174400
         N           -0.653529497010    -1.432969017396     0.002882228730    14.003074004430
         N            1.496841502990     1.484324982604    -0.005052771270    14.003074004430
         C           -2.708767497010     0.511939982604    -0.012869771270    12.000000000000
         C           -0.380016497010    -0.112176017396    -0.001174771270    12.000000000000
         C           -1.557331297010     0.830795182604    -0.008375171270    12.000000000000
         C            1.038887502990     0.241834982604    -0.000977771270    12.000000000000
         C           -2.997016497010    -0.859108017396    -0.007282771270    12.000000000000
         C           -3.805873497010     1.541201982604     0.014685228730    12.000000000000
         C           -1.950830497010    -1.780513017396    -0.000647771270    12.000000000000
         C            3.457227502990     0.239160982604     0.002863228730    12.000000000000
         C            2.864493502990     1.482560982604    -0.003016771270    12.000000000000
         H           -1.059385497010     1.927606982604    -0.014738771270     1.007825032230
         H           -4.027279497010    -1.208650017396    -0.014722771270     1.007825032230
         H           -4.146758497010     1.717024982604     1.040547228730     1.007825032230
         H           -3.458308497010     2.494846982604    -0.390894771270     1.007825032230
         H           -4.668853497010     1.211052982604    -0.570440771270     1.007825032230
         H           -2.153752497010    -2.850256017396    -0.000082771270     1.007825032230
         H            4.513371502990     0.002026982604     0.005292228730     1.007825032230
         H            3.399106502990     2.426417982604    -0.005928771270     1.007825032230

  Basis Set: AUG-CC-PVTZ
    Blend: AUG-CC-PVTZ
  Basis Set: (AUG-CC-PVTZ AUX)
    Blend: AUG-CC-PVTZ-JKFIT
	 Reference Energy          =    -851.9969241702361842 [Eh]
	 Singles Energy            =      -0.0000000000000000 [Eh]
	 Same-Spin Energy          =      -0.5692338943237707 [Eh]
	 Opposite-Spin Energy      =      -1.7112219491952143 [Eh]
	 Correlation Energy        =      -2.2804558435189852 [Eh]
	 Total Energy              =    -854.2773800137551916 [Eh]

	 ================> DF-SCS-MP2 Energies <==================
	-----------------------------------------------------------
	 SCS Same-Spin Scale       =       0.3333333333333333 [-]
	 SCS Opposite-Spin Scale   =       1.2000000000000000 [-]
	 SCS Same-Spin Energy      =      -0.1897446314412569 [Eh]
	 SCS Opposite-Spin Energy  =      -2.0534663390342569 [Eh]
	 SCS Correlation Energy    =      -2.2432109704755137 [Eh]
	 SCS Total Energy          =    -854.2401351407116863 [Eh]
	-----------------------------------------------------------

  Dipole Moment: [D]
     X:    -0.7957      Y:     0.3030      Z:     0.0363     Total:     0.8522

*** Psi4 exiting successfully. Buy a developer a beer!
