                               Psi4 1.4a3.dev225

  ==> Input File <==

--------------------------------------------------------------------------
#psi4
#
memory 32 gb

molecule  {
0 1
  S        2.3127110    -1.0235480     0.0053950
  N       -0.6038690    -1.4671430     0.0025680
  N        1.5465020     1.4501510    -0.0053670
  C       -2.6591070     0.4777660    -0.0131840
  C       -0.3303560    -0.1463500    -0.0014890
  C       -1.3149260     0.8499960    -0.0079370
  C        1.0744466     0.2218436    -0.0013690
  C       -2.9473560    -0.8932820    -0.0075970
  C       -3.7562130     1.5070280     0.0143710
  C       -1.9011700    -1.8146870    -0.0009620
  C        3.5068880     0.2049870     0.0025490
  C        2.9141540     1.4483870    -0.0033310
  H       -1.0097250     1.8934330    -0.0150530
  H       -3.9776190    -1.2428240    -0.0150370
  H       -4.0970980     1.6828510     1.0402330
  H       -3.4086480     2.4606730    -0.3912090
  H       -4.6191930     1.1768790    -0.5707550
  H       -2.1040920    -2.8844300    -0.0003970
  H        4.5630320    -0.0321470     0.0049780
  H        3.4487670     2.3922440    -0.0062430
units angstrom
no_reorient  #important for SAPT in psi4, default
symmetry c1  #important for SAPT in psi4, default
}

set PROPERTIES_ORIGIN ["COM"]
properties('MP2/aug-cc-pvtz', properties = ['dipole'])
--------------------------------------------------------------------------

    Molecular point group: c1
  Charge       = 0
  Multiplicity = 1
  Basis Set: AUG-CC-PVTZ
    Blend: AUG-CC-PVTZ
  Basis Set: (AUG-CC-PVTZ AUX)
    Blend: AUG-CC-PVTZ-JKFIT

    Orbital Energies [Eh]
    ---------------------

    Doubly Occupied:

       1A    -91.991965     2A    -15.572686     3A    -15.572569
       4A    -11.312073     5A    -11.293665     6A    -11.282399
       7A    -11.271891     8A    -11.268365     9A    -11.264060
      10A    -11.243934    11A    -11.242346    12A    -11.240034
      13A     -8.991703    14A     -6.672466    15A     -6.671891
      16A     -6.671254    17A     -1.285904    18A     -1.257328
      19A     -1.114228    20A     -1.066962    21A     -1.058826
      22A     -0.983808    23A     -0.972613    24A     -0.873130
      25A     -0.845154    26A     -0.784672    27A     -0.749487
      28A     -0.697222    29A     -0.679744    30A     -0.671657
      31A     -0.634934    32A     -0.596268    33A     -0.590436
      34A     -0.572968    35A     -0.570750    36A     -0.562509
      37A     -0.546401    38A     -0.526451    39A     -0.516088
      40A     -0.499194    41A     -0.440148    42A     -0.419865
      43A     -0.395182    44A     -0.381413    45A     -0.366284
      46A     -0.304375

  @DF-RHF Final Energy:  -852.06143677048055

   => Energetics <=

    Nuclear Repulsion Energy =            720.2772195043191914
    One-Electron Energy =               -2595.6227068439411596
    Two-Electron Energy =                1023.2840505691414137
    Total Energy =                       -852.0614367704805545
  Basis Set: (AUG-CC-PVTZ AUX)
    Blend: AUG-CC-PVTZ-RI
    Molecular point group: c1

    Geometry (in Angstrom), charge = 0, multiplicity = 1:

       Center              X                  Y                   Z               Mass
    ------------   -----------------  -----------------  -----------------  -----------------
         S            2.250873095461    -0.993979135701     0.005663189408    31.972071174400
         N           -0.665706904539    -1.437574135701     0.002836189408    14.003074004430
         N            1.484664095461     1.479719864299    -0.005098810592    14.003074004430
         C           -2.720944904539     0.507334864299    -0.012915810592    12.000000000000
         C           -0.392193904539    -0.116781135701    -0.001220810592    12.000000000000
         C           -1.376763904539     0.879564864299    -0.007668810592    12.000000000000
         C            1.012608695461     0.251412464299    -0.001100810592    12.000000000000
         C           -3.009193904539    -0.863713135701    -0.007328810592    12.000000000000
         C           -3.818050904539     1.536596864299     0.014639189408    12.000000000000
         C           -1.963007904539    -1.785118135701    -0.000693810592    12.000000000000
         C            3.445050095461     0.234555864299     0.002817189408    12.000000000000
         C            2.852316095461     1.477955864299    -0.003062810592    12.000000000000
         H           -1.071562904539     1.923001864299    -0.014784810592     1.007825032230
         H           -4.039456904539    -1.213255135701    -0.014768810592     1.007825032230
         H           -4.158935904539     1.712419864299     1.040501189408     1.007825032230
         H           -3.470485904539     2.490241864299    -0.390940810592     1.007825032230
         H           -4.681030904539     1.206447864299    -0.570486810592     1.007825032230
         H           -2.165929904539    -2.854861135701    -0.000128810592     1.007825032230
         H            4.501194095461    -0.002578135701     0.005246189408     1.007825032230
         H            3.386929095461     2.421812864299    -0.005974810592     1.007825032230

  Basis Set: AUG-CC-PVTZ
    Blend: AUG-CC-PVTZ
  Basis Set: (AUG-CC-PVTZ AUX)
    Blend: AUG-CC-PVTZ-JKFIT
	 Reference Energy          =    -852.0614367704805545 [Eh]
	 Singles Energy            =      -0.0000000000000000 [Eh]
	 Same-Spin Energy          =      -0.5690799714824457 [Eh]
	 Opposite-Spin Energy      =      -1.7092386929847261 [Eh]
	 Correlation Energy        =      -2.2783186644671716 [Eh]
	 Total Energy              =    -854.3397554349477332 [Eh]

	 ================> DF-SCS-MP2 Energies <==================
	-----------------------------------------------------------
	 SCS Same-Spin Scale       =       0.3333333333333333 [-]
	 SCS Opposite-Spin Scale   =       1.2000000000000000 [-]
	 SCS Same-Spin Energy      =      -0.1896933238274819 [Eh]
	 SCS Opposite-Spin Energy  =      -2.0510864315816710 [Eh]
	 SCS Correlation Energy    =      -2.2407797554091529 [Eh]
	 SCS Total Energy          =    -854.3022165258896621 [Eh]
	-----------------------------------------------------------

  Dipole Moment: [D]
     X:    -1.3467      Y:     0.4412      Z:     0.0418     Total:     1.4177

*** Psi4 exiting successfully. Buy a developer a beer!
