                               Psi4 1.4a3.dev225

  ==> Input File <==

--------------------------------------------------------------------------
#psi4
#
memory 32 gb

molecule  {
0 1
  S        2.3127110    -1.0235480     0.0053950
  N       -0.6038690    -1.4671430     0.0025680
  N        1.5465020     1.4501510    -0.0053670
  C       -2.6591070     0.4777660    -0.0131840
  C       -0.3303560    -0.1463500    -0.0014890
  C       -1.3149260     0.8499960    -0.0079370
  C        1.0885480     0.2076610    -0.0012920
  C       -2.9473560    -0.8932820    -0.0075970
  C       -3.7562130     1.5070280     0.0143710
  C       -1.9011700    -1.8146870    -0.0009620
  C        3.5068880     0.2049870     0.0025490
  C        2.9359448     1.4585423    -0.0033421
  H       -1.0097250     1.8934330    -0.0150530
  H       -3.9776190    -1.2428240    -0.0150370
  H       -4.0970980     1.6828510     1.0402330
  H       -3.4086480     2.4606730    -0.3912090
  H       -4.6191930     1.1768790    -0.5707550
  H       -2.1040920    -2.8844300    -0.0003970
  H        4.5630320    -0.0321470     0.0049780
  H        3.4487670     2.3922440    -0.0062430
units angstrom
no_reorient  #important for SAPT in psi4, default
symmetry c1  #important for SAPT in psi4, default
}

set PROPERTIES_ORIGIN ["COM"]
properties('MP2/aug-cc-pvtz', properties = ['dipole'])
--------------------------------------------------------------------------

    Molecular point group: c1
  Charge       = 0
  Multiplicity = 1
  Basis Set: AUG-CC-PVTZ
    Blend: AUG-CC-PVTZ
  Basis Set: (AUG-CC-PVTZ AUX)
    Blend: AUG-CC-PVTZ-JKFIT

    Orbital Energies [Eh]
    ---------------------

    Doubly Occupied:

       1A    -91.993365     2A    -15.573170     3A    -15.572059
       4A    -11.311568     5A    -11.294029     6A    -11.281900
       7A    -11.271576     8A    -11.268656     9A    -11.264401
      10A    -11.243496    11A    -11.241960    12A    -11.239768
      13A     -8.993405    14A     -6.674192    15A     -6.673610
      16A     -6.672939    17A     -1.281114    18A     -1.254338
      19A     -1.113874    20A     -1.065264    21A     -1.058079
      22A     -0.985065    23A     -0.972521    24A     -0.872707
      25A     -0.843339    26A     -0.784229    27A     -0.749708
      28A     -0.696284    29A     -0.679661    30A     -0.671515
      31A     -0.634602    32A     -0.595700    33A     -0.588462
      34A     -0.571002    35A     -0.570303    36A     -0.561568
      37A     -0.546295    38A     -0.525397    39A     -0.515114
      40A     -0.504373    41A     -0.440106    42A     -0.420302
      43A     -0.393416    44A     -0.380716    45A     -0.365549
      46A     -0.306353

  @DF-RHF Final Energy:  -852.06080888895201

   => Energetics <=

    Nuclear Repulsion Energy =            719.8121008717221230
    One-Electron Energy =               -2594.7117184782418917
    Two-Electron Energy =                1022.8388087175677583
    Total Energy =                       -852.0608088889520104
  Basis Set: (AUG-CC-PVTZ AUX)
    Blend: AUG-CC-PVTZ-RI
    Molecular point group: c1

    Geometry (in Angstrom), charge = 0, multiplicity = 1:

       Center              X                  Y                   Z               Mass
    ------------   -----------------  -----------------  -----------------  -----------------
         S            2.248426467450    -0.993704610735     0.005658697268    31.972071174400
         N           -0.668153532550    -1.437299610735     0.002831697268    14.003074004430
         N            1.482217467450     1.479994389265    -0.005103302732    14.003074004430
         C           -2.723391532550     0.507609389265    -0.012920302732    12.000000000000
         C           -0.394640532550    -0.116506610735    -0.001225302732    12.000000000000
         C           -1.379210532550     0.879839389265    -0.007673302732    12.000000000000
         C            1.024263467450     0.237504389265    -0.001028302732    12.000000000000
         C           -3.011640532550    -0.863438610735    -0.007333302732    12.000000000000
         C           -3.820497532550     1.536871389265     0.014634697268    12.000000000000
         C           -1.965454532550    -1.784843610735    -0.000698302732    12.000000000000
         C            3.442603467450     0.234830389265     0.002812697268    12.000000000000
         C            2.871660267450     1.488385689265    -0.003078402732    12.000000000000
         H           -1.074009532550     1.923276389265    -0.014789302732     1.007825032230
         H           -4.041903532550    -1.212980610735    -0.014773302732     1.007825032230
         H           -4.161382532550     1.712694389265     1.040496697268     1.007825032230
         H           -3.472932532550     2.490516389265    -0.390945302732     1.007825032230
         H           -4.683477532550     1.206722389265    -0.570491302732     1.007825032230
         H           -2.168376532550    -2.854586610735    -0.000133302732     1.007825032230
         H            4.498747467450    -0.002303610735     0.005241697268     1.007825032230
         H            3.384482467450     2.422087389265    -0.005979302732     1.007825032230

  Basis Set: AUG-CC-PVTZ
    Blend: AUG-CC-PVTZ
  Basis Set: (AUG-CC-PVTZ AUX)
    Blend: AUG-CC-PVTZ-JKFIT
	 Reference Energy          =    -852.0608088889520104 [Eh]
	 Singles Energy            =      -0.0000000000000000 [Eh]
	 Same-Spin Energy          =      -0.5688330891451518 [Eh]
	 Opposite-Spin Energy      =      -1.7093935810027285 [Eh]
	 Correlation Energy        =      -2.2782266701478804 [Eh]
	 Total Energy              =    -854.3390355590998979 [Eh]

	 ================> DF-SCS-MP2 Energies <==================
	-----------------------------------------------------------
	 SCS Same-Spin Scale       =       0.3333333333333333 [-]
	 SCS Opposite-Spin Scale   =       1.2000000000000000 [-]
	 SCS Same-Spin Energy      =      -0.1896110297150506 [Eh]
	 SCS Opposite-Spin Energy  =      -2.0512722972032740 [Eh]
	 SCS Correlation Energy    =      -2.2408833269183246 [Eh]
	 SCS Total Energy          =    -854.3016922158703892 [Eh]
	-----------------------------------------------------------

  Dipole Moment: [D]
     X:    -1.2978      Y:     0.4102      Z:     0.0420     Total:     1.3617

*** Psi4 exiting successfully. Buy a developer a beer!
