                               Psi4 1.4a3.dev225

  ==> Input File <==

--------------------------------------------------------------------------
#psi4
#
memory 32 gb

molecule  {
0 1
  S        2.3127110    -1.0235480     0.0053950
  N       -0.6038690    -1.4671430     0.0025680
  N        1.5465020     1.4501510    -0.0053670
  C       -2.6591070     0.4777660    -0.0131840
  C       -0.3303560    -0.1463500    -0.0014890
  C       -1.3149260     0.8499960    -0.0079370
  C        1.0885480     0.2076610    -0.0012920
  C       -2.9473560    -0.8932820    -0.0075970
  C       -3.7562130     1.5070280     0.0143710
  C       -1.9011700    -1.8146870    -0.0009620
  C        3.5068880     0.2049870     0.0025490
  C        3.0473731     1.5035334    -0.0033706
  H       -1.0097250     1.8934330    -0.0150530
  H       -3.9776190    -1.2428240    -0.0150370
  H       -4.0970980     1.6828510     1.0402330
  H       -3.4086480     2.4606730    -0.3912090
  H       -4.6191930     1.1768790    -0.5707550
  H       -2.1040920    -2.8844300    -0.0003970
  H        4.5630320    -0.0321470     0.0049780
  H        3.4487670     2.3922440    -0.0062430
units angstrom
no_reorient  #important for SAPT in psi4, default
symmetry c1  #important for SAPT in psi4, default
}

set PROPERTIES_ORIGIN ["COM"]
properties('MP2/aug-cc-pvtz', properties = ['dipole'])
--------------------------------------------------------------------------

    Molecular point group: c1
  Charge       = 0
  Multiplicity = 1
  Basis Set: AUG-CC-PVTZ
    Blend: AUG-CC-PVTZ
  Basis Set: (AUG-CC-PVTZ AUX)
    Blend: AUG-CC-PVTZ-JKFIT

    Orbital Energies [Eh]
    ---------------------

    Doubly Occupied:

       1A    -91.992249     2A    -15.575779     3A    -15.572816
       4A    -11.310824     5A    -11.294339     6A    -11.281907
       7A    -11.271650     8A    -11.271432     9A    -11.270124
      10A    -11.243828    11A    -11.241876    12A    -11.239668
      13A     -8.992503    14A     -6.673385    15A     -6.672656
      16A     -6.671935    17A     -1.272760    18A     -1.238614
      19A     -1.113831    20A     -1.065700    21A     -1.048729
      22A     -0.989095    23A     -0.972864    24A     -0.876296
      25A     -0.841227    26A     -0.793738    27A     -0.747477
      28A     -0.694997    29A     -0.682144    30A     -0.672056
      31A     -0.634613    32A     -0.595213    33A     -0.590956
      34A     -0.567193    35A     -0.565073    36A     -0.560476
      37A     -0.540162    38A     -0.520494    39A     -0.519981
      40A     -0.514485    41A     -0.435467    42A     -0.412369
      43A     -0.394681    44A     -0.377226    45A     -0.360205
      46A     -0.313232

  @DF-RHF Final Energy:  -852.03621073944680

   => Energetics <=

    Nuclear Repulsion Energy =            717.2550930536011720
    One-Electron Energy =               -2589.6059557452276749
    Two-Electron Energy =                1020.3146519521795881
    Total Energy =                       -852.0362107394468012
  Basis Set: (AUG-CC-PVTZ AUX)
    Blend: AUG-CC-PVTZ-RI
    Molecular point group: c1

    Geometry (in Angstrom), charge = 0, multiplicity = 1:

       Center              X                  Y                   Z               Mass
    ------------   -----------------  -----------------  -----------------  -----------------
         S            2.240830845001    -0.996771474441     0.005660639999    31.972071174400
         N           -0.675749154999    -1.440366474441     0.002833639999    14.003074004430
         N            1.474621845001     1.476927525559    -0.005101360001    14.003074004430
         C           -2.730987154999     0.504542525559    -0.012918360001    12.000000000000
         C           -0.402236154999    -0.119573474441    -0.001223360001    12.000000000000
         C           -1.386806154999     0.876772525559    -0.007671360001    12.000000000000
         C            1.016667845001     0.234437525559    -0.001026360001    12.000000000000
         C           -3.019236154999    -0.866505474441    -0.007331360001    12.000000000000
         C           -3.828093154999     1.533804525559     0.014636639999    12.000000000000
         C           -1.973050154999    -1.787910474441    -0.000696360001    12.000000000000
         C            3.435007845001     0.231763525559     0.002814639999    12.000000000000
         C            2.975492945001     1.530309925559    -0.003104960001    12.000000000000
         H           -1.081605154999     1.920209525559    -0.014787360001     1.007825032230
         H           -4.049499154999    -1.216047474441    -0.014771360001     1.007825032230
         H           -4.168978154999     1.709627525559     1.040498639999     1.007825032230
         H           -3.480528154999     2.487449525559    -0.390943360001     1.007825032230
         H           -4.691073154999     1.203655525559    -0.570489360001     1.007825032230
         H           -2.175972154999    -2.857653474441    -0.000131360001     1.007825032230
         H            4.491151845001    -0.005370474441     0.005243639999     1.007825032230
         H            3.376886845001     2.419020525559    -0.005977360001     1.007825032230

  Basis Set: AUG-CC-PVTZ
    Blend: AUG-CC-PVTZ
  Basis Set: (AUG-CC-PVTZ AUX)
    Blend: AUG-CC-PVTZ-JKFIT
	 Reference Energy          =    -852.0362107394468012 [Eh]
	 Singles Energy            =      -0.0000000000000000 [Eh]
	 Same-Spin Energy          =      -0.5677388684227637 [Eh]
	 Opposite-Spin Energy      =      -1.7113051566307400 [Eh]
	 Correlation Energy        =      -2.2790440250535036 [Eh]
	 Total Energy              =    -854.3152547645003096 [Eh]

	 ================> DF-SCS-MP2 Energies <==================
	-----------------------------------------------------------
	 SCS Same-Spin Scale       =       0.3333333333333333 [-]
	 SCS Opposite-Spin Scale   =       1.2000000000000000 [-]
	 SCS Same-Spin Energy      =      -0.1892462894742545 [Eh]
	 SCS Opposite-Spin Energy  =      -2.0535661879568878 [Eh]
	 SCS Correlation Energy    =      -2.2428124774311424 [Eh]
	 SCS Total Energy          =    -854.2790232168779312 [Eh]
	-----------------------------------------------------------

  Dipole Moment: [D]
     X:    -1.4125      Y:     0.4565      Z:     0.0416     Total:     1.4850

*** Psi4 exiting successfully. Buy a developer a beer!
