                               Psi4 1.4a3.dev225

  ==> Input File <==

--------------------------------------------------------------------------
#psi4
#
memory 32 gb

molecule  {
0 1
  S        2.3127110    -1.0235480     0.0053950
  N       -0.6038690    -1.4671430     0.0025680
  N        1.5465020     1.4501510    -0.0053670
  C       -2.6591070     0.4777660    -0.0131840
  C       -0.3303560    -0.1463500    -0.0014890
  C       -1.3149260     0.8499960    -0.0079370
  C        1.0885480     0.2076610    -0.0012920
  C       -2.9473560    -0.8932820    -0.0075970
  C       -3.7562130     1.5070280     0.0143710
  C       -1.8045765    -1.7888098    -0.0006992
  C        3.5068880     0.2049870     0.0025490
  C        2.9141540     1.4483870    -0.0033310
  H       -1.0097250     1.8934330    -0.0150530
  H       -3.9776190    -1.2428240    -0.0150370
  H       -4.0970980     1.6828510     1.0402330
  H       -3.4086480     2.4606730    -0.3912090
  H       -4.6191930     1.1768790    -0.5707550
  H       -2.1040920    -2.8844300    -0.0003970
  H        4.5630320    -0.0321470     0.0049780
  H        3.4487670     2.3922440    -0.0062430
units angstrom
no_reorient  #important for SAPT in psi4, default
symmetry c1  #important for SAPT in psi4, default
}

set PROPERTIES_ORIGIN ["COM"]
properties('MP2/aug-cc-pvtz', properties = ['dipole'])
--------------------------------------------------------------------------

    Molecular point group: c1
  Charge       = 0
  Multiplicity = 1
  Basis Set: AUG-CC-PVTZ
    Blend: AUG-CC-PVTZ
  Basis Set: (AUG-CC-PVTZ AUX)
    Blend: AUG-CC-PVTZ-JKFIT

    Orbital Energies [Eh]
    ---------------------

    Doubly Occupied:

       1A    -91.994132     2A    -15.571412     3A    -15.566173
       4A    -11.311954     5A    -11.293990     6A    -11.282706
       7A    -11.269556     8A    -11.268792     9A    -11.262993
      10A    -11.246605    11A    -11.243572    12A    -11.238718
      13A     -8.994146    14A     -6.674916    15A     -6.674370
      16A     -6.673707    17A     -1.299962    18A     -1.271618
      19A     -1.117625    20A     -1.065305    21A     -1.061828
      22A     -0.979152    23A     -0.971201    24A     -0.880531
      25A     -0.836278    26A     -0.782591    27A     -0.751681
      28A     -0.698432    29A     -0.684989    30A     -0.672802
      31A     -0.626816    32A     -0.597618    33A     -0.582765
      34A     -0.575038    35A     -0.571586    36A     -0.565525
      37A     -0.550084    38A     -0.536144    39A     -0.516579
      40A     -0.499730    41A     -0.437384    42A     -0.415591
      43A     -0.394847    44A     -0.384627    45A     -0.371550
      46A     -0.299836

  @DF-RHF Final Energy:  -852.05126700926405

   => Energetics <=

    Nuclear Repulsion Energy =            721.9765771163492900
    One-Electron Energy =               -2598.9207797859371567
    Two-Electron Energy =                1024.8929356603239285
    Total Energy =                       -852.0512670092639382
  Basis Set: (AUG-CC-PVTZ AUX)
    Blend: AUG-CC-PVTZ-RI
    Molecular point group: c1

    Geometry (in Angstrom), charge = 0, multiplicity = 1:

       Center              X                  Y                   Z               Mass
    ------------   -----------------  -----------------  -----------------  -----------------
         S            2.243327465963    -0.994776309904     0.005640026598    31.972071174400
         N           -0.673252534037    -1.438371309904     0.002813026598    14.003074004430
         N            1.477118465963     1.478922690096    -0.005121973402    14.003074004430
         C           -2.728490534037     0.506537690096    -0.012938973402    12.000000000000
         C           -0.399739534037    -0.117578309904    -0.001243973402    12.000000000000
         C           -1.384309534037     0.878767690096    -0.007691973402    12.000000000000
         C            1.019164465963     0.236432690096    -0.001046973402    12.000000000000
         C           -3.016739534037    -0.864510309904    -0.007351973402    12.000000000000
         C           -3.825596534037     1.535799690096     0.014616026598    12.000000000000
         C           -1.873960034037    -1.760038109904    -0.000454173402    12.000000000000
         C            3.437504465963     0.233758690096     0.002794026598    12.000000000000
         C            2.844770465963     1.477158690096    -0.003085973402    12.000000000000
         H           -1.079108534037     1.922204690096    -0.014807973402     1.007825032230
         H           -4.047002534037    -1.214052309904    -0.014791973402     1.007825032230
         H           -4.166481534037     1.711622690096     1.040478026598     1.007825032230
         H           -3.478031534037     2.489444690096    -0.390963973402     1.007825032230
         H           -4.688576534037     1.205650690096    -0.570509973402     1.007825032230
         H           -2.173475534037    -2.855658309904    -0.000151973402     1.007825032230
         H            4.493648465963    -0.003375309904     0.005223026598     1.007825032230
         H            3.379383465963     2.421015690096    -0.005997973402     1.007825032230

  Basis Set: AUG-CC-PVTZ
    Blend: AUG-CC-PVTZ
  Basis Set: (AUG-CC-PVTZ AUX)
    Blend: AUG-CC-PVTZ-JKFIT
	 Reference Energy          =    -852.0512670092640519 [Eh]
	 Singles Energy            =      -0.0000000000000000 [Eh]
	 Same-Spin Energy          =      -0.5683187629179067 [Eh]
	 Opposite-Spin Energy      =      -1.7077391511506277 [Eh]
	 Correlation Energy        =      -2.2760579140685344 [Eh]
	 Total Energy              =    -854.3273249233326396 [Eh]

	 ================> DF-SCS-MP2 Energies <==================
	-----------------------------------------------------------
	 SCS Same-Spin Scale       =       0.3333333333333333 [-]
	 SCS Opposite-Spin Scale   =       1.2000000000000000 [-]
	 SCS Same-Spin Energy      =      -0.1894395876393022 [Eh]
	 SCS Opposite-Spin Energy  =      -2.0492869813807530 [Eh]
	 SCS Correlation Energy    =      -2.2387265690200553 [Eh]
	 SCS Total Energy          =    -854.2899935782841112 [Eh]
	-----------------------------------------------------------

  Dipole Moment: [D]
     X:    -1.1790      Y:     0.4037      Z:     0.0429     Total:     1.2470

*** Psi4 exiting successfully. Buy a developer a beer!
