                               Psi4 1.4a3.dev225

  ==> Input File <==

--------------------------------------------------------------------------
#psi4
#
memory 32 gb

molecule  {
0 1
  S        2.3127110    -1.0235480     0.0053950
  N       -0.6038690    -1.4671430     0.0025680
  N        1.5465020     1.4501510    -0.0053670
  C       -2.6591070     0.4777660    -0.0131840
  C       -0.3303560    -0.1463500    -0.0014890
  C       -1.3149260     0.8499960    -0.0079370
  C        1.0885480     0.2076610    -0.0012920
  C       -2.9473560    -0.8932820    -0.0075970
  C       -3.7562130     1.5070280     0.0143710
  C       -1.9011700    -1.8146870    -0.0009620
  C        3.5068880     0.2049870     0.0025490
  C        2.9341540     1.4483612    -0.0033012
  H       -1.0097250     1.8934330    -0.0150530
  H       -3.9776190    -1.2428240    -0.0150370
  H       -4.0970980     1.6828510     1.0402330
  H       -3.4086480     2.4606730    -0.3912090
  H       -4.6191930     1.1768790    -0.5707550
  H       -2.1040920    -2.8844300    -0.0003970
  H        4.5630320    -0.0321470     0.0049780
  H        3.4487670     2.3922440    -0.0062430
units angstrom
no_reorient  #important for SAPT in psi4, default
symmetry c1  #important for SAPT in psi4, default
}

set PROPERTIES_ORIGIN ["COM"]
properties('MP2/aug-cc-pvtz', properties = ['dipole'])
--------------------------------------------------------------------------

    Molecular point group: c1
  Charge       = 0
  Multiplicity = 1
  Basis Set: AUG-CC-PVTZ
    Blend: AUG-CC-PVTZ
  Basis Set: (AUG-CC-PVTZ AUX)
    Blend: AUG-CC-PVTZ-JKFIT

    Orbital Energies [Eh]
    ---------------------

    Doubly Occupied:

       1A    -91.992907     2A    -15.572968     3A    -15.572178
       4A    -11.311783     5A    -11.294054     6A    -11.281977
       7A    -11.271680     8A    -11.267999     9A    -11.263074
      10A    -11.243649    11A    -11.242133    12A    -11.239846
      13A     -8.992999    14A     -6.673787    15A     -6.673211
      16A     -6.672529    17A     -1.281836    18A     -1.254899
      19A     -1.113987    20A     -1.066079    21A     -1.058258
      22A     -0.985285    23A     -0.972680    24A     -0.872785
      25A     -0.843656    26A     -0.783290    27A     -0.749719
      28A     -0.696938    29A     -0.679364    30A     -0.671712
      31A     -0.633946    32A     -0.595813    33A     -0.587392
      34A     -0.571450    35A     -0.570238    36A     -0.561568
      37A     -0.546679    38A     -0.525820    39A     -0.515194
      40A     -0.503527    41A     -0.440735    42A     -0.420551
      43A     -0.393709    44A     -0.380846    45A     -0.365713
      46A     -0.307125

  @DF-RHF Final Energy:  -852.06153127010043

   => Energetics <=

    Nuclear Repulsion Energy =            720.0343642306340826
    One-Electron Energy =               -2595.1566609857450203
    Two-Electron Energy =                1023.0607654850105064
    Total Energy =                       -852.0615312701004314
  Basis Set: (AUG-CC-PVTZ AUX)
    Blend: AUG-CC-PVTZ-RI
    Molecular point group: c1

    Geometry (in Angstrom), charge = 0, multiplicity = 1:

       Center              X                  Y                   Z               Mass
    ------------   -----------------  -----------------  -----------------  -----------------
         S            2.248548539138    -0.993010605785     0.005655909278    31.972071174400
         N           -0.668031460862    -1.436605605785     0.002828909278    14.003074004430
         N            1.482339539138     1.480688394215    -0.005106090722    14.003074004430
         C           -2.723269460862     0.508303394215    -0.012923090722    12.000000000000
         C           -0.394518460862    -0.115812605785    -0.001228090722    12.000000000000
         C           -1.379088460862     0.880533394215    -0.007676090722    12.000000000000
         C            1.024385539138     0.238198394215    -0.001031090722    12.000000000000
         C           -3.011518460862    -0.862744605785    -0.007336090722    12.000000000000
         C           -3.820375460862     1.537565394215     0.014631909278    12.000000000000
         C           -1.965332460862    -1.784149605785    -0.000701090722    12.000000000000
         C            3.442725539138     0.235524394215     0.002809909278    12.000000000000
         C            2.869991539138     1.478898594215    -0.003040290722    12.000000000000
         H           -1.073887460862     1.923970394215    -0.014792090722     1.007825032230
         H           -4.041781460862    -1.212286605785    -0.014776090722     1.007825032230
         H           -4.161260460862     1.713388394215     1.040493909278     1.007825032230
         H           -3.472810460862     2.491210394215    -0.390948090722     1.007825032230
         H           -4.683355460862     1.207416394215    -0.570494090722     1.007825032230
         H           -2.168254460862    -2.853892605785    -0.000136090722     1.007825032230
         H            4.498869539138    -0.001609605785     0.005238909278     1.007825032230
         H            3.384604539138     2.422781394215    -0.005982090722     1.007825032230

  Basis Set: AUG-CC-PVTZ
    Blend: AUG-CC-PVTZ
  Basis Set: (AUG-CC-PVTZ AUX)
    Blend: AUG-CC-PVTZ-JKFIT
	 Reference Energy          =    -852.0615312701004314 [Eh]
	 Singles Energy            =      -0.0000000000000000 [Eh]
	 Same-Spin Energy          =      -0.5686948512855605 [Eh]
	 Opposite-Spin Energy      =      -1.7091165901873815 [Eh]
	 Correlation Energy        =      -2.2778114414729420 [Eh]
	 Total Energy              =    -854.3393427115734085 [Eh]

	 ================> DF-SCS-MP2 Energies <==================
	-----------------------------------------------------------
	 SCS Same-Spin Scale       =       0.3333333333333333 [-]
	 SCS Opposite-Spin Scale   =       1.2000000000000000 [-]
	 SCS Same-Spin Energy      =      -0.1895649504285202 [Eh]
	 SCS Opposite-Spin Energy  =      -2.0509399082248576 [Eh]
	 SCS Correlation Energy    =      -2.2405048586533778 [Eh]
	 SCS Total Energy          =    -854.3020361287537980 [Eh]
	-----------------------------------------------------------

  Dipole Moment: [D]
     X:    -1.3059      Y:     0.4023      Z:     0.0420     Total:     1.3671

*** Psi4 exiting successfully. Buy a developer a beer!
