                               Psi4 1.4a3.dev225

  ==> Input File <==

--------------------------------------------------------------------------
#psi4
#
memory 32 gb

molecule  {
0 1
  S        2.3127110    -1.0235480     0.0053950
  N       -0.6038690    -1.4671430     0.0025680
  N        1.5465020     1.4501510    -0.0053670
  C       -2.6591070     0.4777660    -0.0131840
  C       -0.3303560    -0.1463500    -0.0014890
  C       -1.3149260     0.8499960    -0.0079370
  C        1.0885480     0.2076610    -0.0012920
  C       -2.9473560    -0.8932820    -0.0075970
  C       -3.7562130     1.5070280     0.0143710
  C       -1.9011700    -1.8146870    -0.0009620
  C        3.4371872     0.1332808     0.0027151
  C        2.9141540     1.4483870    -0.0033310
  H       -1.0097250     1.8934330    -0.0150530
  H       -3.9776190    -1.2428240    -0.0150370
  H       -4.0970980     1.6828510     1.0402330
  H       -3.4086480     2.4606730    -0.3912090
  H       -4.6191930     1.1768790    -0.5707550
  H       -2.1040920    -2.8844300    -0.0003970
  H        4.5630320    -0.0321470     0.0049780
  H        3.4487670     2.3922440    -0.0062430
units angstrom
no_reorient  #important for SAPT in psi4, default
symmetry c1  #important for SAPT in psi4, default
}

set PROPERTIES_ORIGIN ["COM"]
properties('MP2/aug-cc-pvtz', properties = ['dipole'])
--------------------------------------------------------------------------

    Molecular point group: c1
  Charge       = 0
  Multiplicity = 1
  Basis Set: AUG-CC-PVTZ
    Blend: AUG-CC-PVTZ
  Basis Set: (AUG-CC-PVTZ AUX)
    Blend: AUG-CC-PVTZ-JKFIT

    Orbital Energies [Eh]
    ---------------------

    Doubly Occupied:

       1A    -91.997726     2A    -15.574417     3A    -15.569107
       4A    -11.305271     5A    -11.292507     6A    -11.280381
       7A    -11.270492     8A    -11.269894     9A    -11.266519
      10A    -11.240447    11A    -11.238958    12A    -11.238440
      13A     -8.999836    14A     -6.680858    15A     -6.679929
      16A     -6.679295    17A     -1.286523    18A     -1.255809
      19A     -1.112075    20A     -1.084094    21A     -1.059953
      22A     -0.978599    23A     -0.969344    24A     -0.869361
      25A     -0.839595    26A     -0.779144    27A     -0.751444
      28A     -0.696289    29A     -0.676942    30A     -0.667242
      31A     -0.633026    32A     -0.594779    33A     -0.586135
      34A     -0.575027    35A     -0.568301    36A     -0.559752
      37A     -0.542338    38A     -0.527077    39A     -0.519553
      40A     -0.505020    41A     -0.440920    42A     -0.421747
      43A     -0.403329    44A     -0.379462    45A     -0.364261
      46A     -0.296060

  @DF-RHF Final Energy:  -852.04766469423998

   => Energetics <=

    Nuclear Repulsion Energy =            722.3640678483205875
    One-Electron Energy =               -2599.7689078579601301
    Two-Electron Energy =                1025.3571753153994450
    Total Energy =                       -852.0476646942399839
  Basis Set: (AUG-CC-PVTZ AUX)
    Blend: AUG-CC-PVTZ-RI
    Molecular point group: c1

    Geometry (in Angstrom), charge = 0, multiplicity = 1:

       Center              X                  Y                   Z               Mass
    ------------   -----------------  -----------------  -----------------  -----------------
         S            2.254663084636    -0.988124439027     0.005646618251    31.972071174400
         N           -0.661916915364    -1.431719439027     0.002819618251    14.003074004430
         N            1.488454084636     1.485574560973    -0.005115381749    14.003074004430
         C           -2.717154915364     0.513189560973    -0.012932381749    12.000000000000
         C           -0.388403915364    -0.110926439027    -0.001237381749    12.000000000000
         C           -1.372973915364     0.885419560973    -0.007685381749    12.000000000000
         C            1.030500084636     0.243084560973    -0.001040381749    12.000000000000
         C           -3.005403915364    -0.857858439027    -0.007345381749    12.000000000000
         C           -3.814260915364     1.542451560973     0.014622618251    12.000000000000
         C           -1.959217915364    -1.779263439027    -0.000710381749    12.000000000000
         C            3.379139284636     0.168704360973     0.002966718251    12.000000000000
         C            2.856106084636     1.483810560973    -0.003079381749    12.000000000000
         H           -1.067772915364     1.928856560973    -0.014801381749     1.007825032230
         H           -4.035666915364    -1.207400439027    -0.014785381749     1.007825032230
         H           -4.155145915364     1.718274560973     1.040484618251     1.007825032230
         H           -3.466695915364     2.496096560973    -0.390957381749     1.007825032230
         H           -4.677240915364     1.212302560973    -0.570503381749     1.007825032230
         H           -2.162139915364    -2.849006439027    -0.000145381749     1.007825032230
         H            4.504984084636     0.003276560973     0.005229618251     1.007825032230
         H            3.390719084636     2.427667560973    -0.005991381749     1.007825032230

  Basis Set: AUG-CC-PVTZ
    Blend: AUG-CC-PVTZ
  Basis Set: (AUG-CC-PVTZ AUX)
    Blend: AUG-CC-PVTZ-JKFIT
	 Reference Energy          =    -852.0476646942399839 [Eh]
	 Singles Energy            =      -0.0000000000000000 [Eh]
	 Same-Spin Energy          =      -0.5714747791344980 [Eh]
	 Opposite-Spin Energy      =      -1.7111421364983670 [Eh]
	 Correlation Energy        =      -2.2826169156328651 [Eh]
	 Total Energy              =    -854.3302816098728272 [Eh]

	 ================> DF-SCS-MP2 Energies <==================
	-----------------------------------------------------------
	 SCS Same-Spin Scale       =       0.3333333333333333 [-]
	 SCS Opposite-Spin Scale   =       1.2000000000000000 [-]
	 SCS Same-Spin Energy      =      -0.1904915930448327 [Eh]
	 SCS Opposite-Spin Energy  =      -2.0533705637980404 [Eh]
	 SCS Correlation Energy    =      -2.2438621568428729 [Eh]
	 SCS Total Energy          =    -854.2915268510828355 [Eh]
	-----------------------------------------------------------

  Dipole Moment: [D]
     X:    -1.1289      Y:     0.3365      Z:     0.0424     Total:     1.1787

*** Psi4 exiting successfully. Buy a developer a beer!
