                               Psi4 1.4a3.dev225

  ==> Input File <==

--------------------------------------------------------------------------
#psi4
#
memory 32 gb

molecule  {
0 1
  S        2.3127110    -1.0235480     0.0053950
  N       -0.6038690    -1.4671430     0.0025680
  N        1.5465020     1.4501510    -0.0053670
  C       -2.6591070     0.4777660    -0.0131840
  C       -0.3303560    -0.1463500    -0.0014890
  C       -1.3149260     0.8499960    -0.0079370
  C        1.0885480     0.2076610    -0.0012920
  C       -2.9473560    -0.8932820    -0.0075970
  C       -3.7562130     1.5070280     0.0143710
  C       -1.9011700    -1.8146870    -0.0009620
  C        3.5068880     0.2049870     0.0025490
  C        2.8925437     1.4378529    -0.0033181
  H       -1.0097250     1.8934330    -0.0150530
  H       -3.9776190    -1.2428240    -0.0150370
  H       -4.0970980     1.6828510     1.0402330
  H       -3.4086480     2.4606730    -0.3912090
  H       -4.6191930     1.1768790    -0.5707550
  H       -2.1040920    -2.8844300    -0.0003970
  H        4.5630320    -0.0321470     0.0049780
  H        3.4487670     2.3922440    -0.0062430
units angstrom
no_reorient  #important for SAPT in psi4, default
symmetry c1  #important for SAPT in psi4, default
}

set PROPERTIES_ORIGIN ["COM"]
properties('MP2/aug-cc-pvtz', properties = ['dipole'])
--------------------------------------------------------------------------

    Molecular point group: c1
  Charge       = 0
  Multiplicity = 1
  Basis Set: AUG-CC-PVTZ
    Blend: AUG-CC-PVTZ
  Basis Set: (AUG-CC-PVTZ AUX)
    Blend: AUG-CC-PVTZ-JKFIT

    Orbital Energies [Eh]
    ---------------------

    Doubly Occupied:

       1A    -91.994235     2A    -15.571760     3A    -15.571657
       4A    -11.311953     5A    -11.293949     6A    -11.281937
       7A    -11.271675     8A    -11.268389     9A    -11.262382
      10A    -11.243377    11A    -11.242032    12A    -11.239834
      13A     -8.994171    14A     -6.674913    15A     -6.674394
      16A     -6.673743    17A     -1.289341    18A     -1.258416
      19A     -1.113935    20A     -1.065495    21A     -1.062499
      22A     -0.983767    23A     -0.972286    24A     -0.871353
      25A     -0.844497    26A     -0.784194    27A     -0.749332
      28A     -0.698849    29A     -0.678549    30A     -0.671234
      31A     -0.633316    32A     -0.596099    33A     -0.586510
      34A     -0.574490    35A     -0.572701    36A     -0.561983
      37A     -0.547530    38A     -0.527485    39A     -0.515126
      40A     -0.496308    41A     -0.442396    42A     -0.422027
      43A     -0.393911    44A     -0.382607    45A     -0.367094
      46A     -0.303646

  @DF-RHF Final Energy:  -852.06078135020164

   => Energetics <=

    Nuclear Repulsion Energy =            720.9194439873907641
    One-Electron Energy =               -2596.8856988883721897
    Two-Electron Energy =                1023.9054735507796750
    Total Energy =                       -852.0607813502016370
  Basis Set: (AUG-CC-PVTZ AUX)
    Blend: AUG-CC-PVTZ-RI
    Molecular point group: c1

    Geometry (in Angstrom), charge = 0, multiplicity = 1:

       Center              X                  Y                   Z               Mass
    ------------   -----------------  -----------------  -----------------  -----------------
         S            2.251384947203    -0.992294296918     0.005657061284    31.972071174400
         N           -0.665195052797    -1.435889296918     0.002830061284    14.003074004430
         N            1.485175947203     1.481404703082    -0.005104938716    14.003074004430
         C           -2.720433052797     0.509019703082    -0.012921938716    12.000000000000
         C           -0.391682052797    -0.115096296918    -0.001226938716    12.000000000000
         C           -1.376252052797     0.881249703082    -0.007674938716    12.000000000000
         C            1.027221947203     0.238914703082    -0.001029938716    12.000000000000
         C           -3.008682052797    -0.862028296918    -0.007334938716    12.000000000000
         C           -3.817539052797     1.538281703082     0.014633061284    12.000000000000
         C           -1.962496052797    -1.783433296918    -0.000699938716    12.000000000000
         C            3.445561947203     0.236240703082     0.002811061284    12.000000000000
         C            2.831217647203     1.469106603082    -0.003056038716    12.000000000000
         H           -1.071051052797     1.924686703082    -0.014790938716     1.007825032230
         H           -4.038945052797    -1.211570296918    -0.014774938716     1.007825032230
         H           -4.158424052797     1.714104703082     1.040495061284     1.007825032230
         H           -3.469974052797     2.491926703082    -0.390946938716     1.007825032230
         H           -4.680519052797     1.208132703082    -0.570492938716     1.007825032230
         H           -2.165418052797    -2.853176296918    -0.000134938716     1.007825032230
         H            4.501705947203    -0.000893296918     0.005240061284     1.007825032230
         H            3.387440947203     2.423497703082    -0.005980938716     1.007825032230

  Basis Set: AUG-CC-PVTZ
    Blend: AUG-CC-PVTZ
  Basis Set: (AUG-CC-PVTZ AUX)
    Blend: AUG-CC-PVTZ-JKFIT
	 Reference Energy          =    -852.0607813502016370 [Eh]
	 Singles Energy            =      -0.0000000000000000 [Eh]
	 Same-Spin Energy          =      -0.5694882506528312 [Eh]
	 Opposite-Spin Energy      =      -1.7092316647913044 [Eh]
	 Correlation Energy        =      -2.2787199154441353 [Eh]
	 Total Energy              =    -854.3395012656458221 [Eh]

	 ================> DF-SCS-MP2 Energies <==================
	-----------------------------------------------------------
	 SCS Same-Spin Scale       =       0.3333333333333333 [-]
	 SCS Opposite-Spin Scale   =       1.2000000000000000 [-]
	 SCS Same-Spin Energy      =      -0.1898294168842770 [Eh]
	 SCS Opposite-Spin Energy  =      -2.0510779977495650 [Eh]
	 SCS Correlation Energy    =      -2.2409074146338419 [Eh]
	 SCS Total Energy          =    -854.3016887648354896 [Eh]
	-----------------------------------------------------------

  Dipole Moment: [D]
     X:    -1.2652      Y:     0.3773      Z:     0.0421     Total:     1.3209

*** Psi4 exiting successfully. Buy a developer a beer!
