                               Psi4 1.3.2 release

  ==> Input File <==

--------------------------------------------------------------------------
#psi4
#
memory 32 gb

molecule  {
0 1
  O       -1.7956590    -0.0045330     0.2925540
  C        0.5176150     0.0064930    -0.4337930
  C        1.5574320     0.8851440     0.2677470
  C        0.5838050    -1.4460010     0.0098110
  C       -0.6715027     0.5161425    -0.2374477
  H        0.7003720     0.0729440    -1.5172860
  H        1.4879930     1.9288570    -0.0538080
  H        2.5672940     0.5309070     0.0461510
  H        1.4157060     0.8510730     1.3520620
  H        1.5722370    -1.8650000    -0.1966570
  H       -0.1668510    -2.0488350    -0.5051420
  H        0.3905920    -1.5243500     1.0824380
  H       -0.9679480     1.6539330    -0.5206060
units angstrom
no_reorient  #important for SAPT in psi4, default
symmetry c1  #important for SAPT in psi4, default
}

set PROPERTIES_ORIGIN ["COM"]
properties('MP2/aug-cc-pvtz', properties = ['dipole'])
--------------------------------------------------------------------------

    Molecular point group: c1
  Charge       = 0
  Multiplicity = 1
  Basis Set: AUG-CC-PVTZ
    Blend: AUG-CC-PVTZ
  Basis Set: (AUG-CC-PVTZ AUX)
    Blend: AUG-CC-PVTZ-JKFIT

    Orbital Energies [Eh]
    ---------------------

    Doubly Occupied:

       1A    -20.545842     2A    -11.343657     3A    -11.250448
       4A    -11.249842     5A    -11.227539     6A     -1.309014
       7A     -1.142523     8A     -0.958426     9A     -0.928181
      10A     -0.745068    11A     -0.691778    12A     -0.636470
      13A     -0.622566    14A     -0.565225    15A     -0.552356
      16A     -0.536633    17A     -0.519119    18A     -0.496230
      19A     -0.444483    20A     -0.420966

  @DF-RHF Final Energy:  -231.00005210671409

   => Energetics <=

    Nuclear Repulsion Energy =            178.5308448184343604
    One-Electron Energy =                -666.6890624788583182
    Two-Electron Energy =                 257.1581655537098641
    Total Energy =                       -231.0000521067140653
  Basis Set: (AUG-CC-PVTZ AUX)
    Blend: AUG-CC-PVTZ-RI
    Molecular point group: c1

    Geometry (in Angstrom), charge = 0, multiplicity = 1:

       Center              X                  Y                   Z               Mass
    ------------   -----------------  -----------------  -----------------  -----------------
         O           -1.825925721026     0.008439521298     0.297551566106    15.994914619570
         C            0.487348278974     0.019465521298    -0.428795433894    12.000000000000
         C            1.527165278974     0.898116521298     0.272744566106    12.000000000000
         C            0.553538278974    -1.433028478702     0.014808566106    12.000000000000
         C           -0.701769421026     0.529115021298    -0.232450133894    12.000000000000
         H            0.670105278974     0.085916521298    -1.512288433894     1.007825032230
         H            1.457726278974     1.941829521298    -0.048810433894     1.007825032230
         H            2.537027278974     0.543879521298     0.051148566106     1.007825032230
         H            1.385439278974     0.864045521298     1.357059566106     1.007825032230
         H            1.541970278974    -1.852027478702    -0.191659433894     1.007825032230
         H           -0.197117721026    -2.035862478702    -0.500144433894     1.007825032230
         H            0.360325278974    -1.511377478702     1.087435566106     1.007825032230
         H           -0.998214721026     1.666905521298    -0.515608433894     1.007825032230

  Basis Set: AUG-CC-PVTZ
    Blend: AUG-CC-PVTZ
  Basis Set: (AUG-CC-PVTZ AUX)
    Blend: AUG-CC-PVTZ-JKFIT
	 Reference Energy          =    -231.0000521067140937 [Eh]
	 Singles Energy            =      -0.0000000000000000 [Eh]
	 Same-Spin Energy          =      -0.2374459741097997 [Eh]
	 Opposite-Spin Energy      =      -0.8066499517403712 [Eh]
	 Correlation Energy        =      -1.0440959258501710 [Eh]
	 Total Energy              =    -232.0441480325642658 [Eh]

	 ================> DF-SCS-MP2 Energies <==================
	-----------------------------------------------------------
	 SCS Same-Spin Scale       =       0.3333333333333333 [-]
	 SCS Opposite-Spin Scale   =       1.2000000000000000 [-]
	 SCS Same-Spin Energy      =      -0.0791486580365999 [Eh]
	 SCS Opposite-Spin Energy  =      -0.9679799420884454 [Eh]
	 SCS Correlation Energy    =      -1.0471286001250453 [Eh]
	 SCS Total Energy          =    -232.0471807068391286 [Eh]
	-----------------------------------------------------------

  Dipole Moment: [D]
     X:     3.3483      Y:     0.6158      Z:    -1.1198     Total:     3.5839

*** Psi4 exiting successfully. Buy a developer a beer!
