                               Psi4 1.3.2 release

  ==> Input File <==

--------------------------------------------------------------------------
#psi4
#
memory 32 gb

molecule  {
0 1
  O       -1.7956590    -0.0045330     0.2925540
  C        0.5176150     0.0064930    -0.4337930
  C        1.5574320     0.8851440     0.2677470
  C        0.5838050    -1.4460010     0.0098110
  C       -0.8507421     0.5893620    -0.1816493
  H        0.7175903     0.0648194    -1.5147097
  H        1.4879930     1.9288570    -0.0538080
  H        2.5672940     0.5309070     0.0461510
  H        1.4157060     0.8510730     1.3520620
  H        1.5722370    -1.8650000    -0.1966570
  H       -0.1668510    -2.0488350    -0.5051420
  H        0.3905920    -1.5243500     1.0824380
  H       -0.9679480     1.6539330    -0.5206060
units angstrom
no_reorient  #important for SAPT in psi4, default
symmetry c1  #important for SAPT in psi4, default
}

set PROPERTIES_ORIGIN ["COM"]
properties('MP2/aug-cc-pvtz', properties = ['dipole'])
--------------------------------------------------------------------------

    Molecular point group: c1
  Charge       = 0
  Multiplicity = 1
  Basis Set: AUG-CC-PVTZ
    Blend: AUG-CC-PVTZ
  Basis Set: (AUG-CC-PVTZ AUX)
    Blend: AUG-CC-PVTZ-JKFIT

    Orbital Energies [Eh]
    ---------------------

    Doubly Occupied:

       1A    -20.558995     2A    -11.331801     3A    -11.249067
       4A    -11.235009     5A    -11.218729     6A     -1.390970
       7A     -1.095403     8A     -0.945779     9A     -0.886739
      10A     -0.759045    11A     -0.683117    12A     -0.642687
      13A     -0.624794    14A     -0.567767    15A     -0.551519
      16A     -0.533179    17A     -0.521433    18A     -0.494997
      19A     -0.483064    20A     -0.417019

  @DF-RHF Final Energy:  -231.07167600447218

   => Energetics <=

    Nuclear Repulsion Energy =            177.4446084441198366
    One-Electron Energy =                -664.6503481782646077
    Two-Electron Energy =                 256.1340637296726186
    Total Energy =                       -231.0716760044721809
  Basis Set: (AUG-CC-PVTZ AUX)
    Blend: AUG-CC-PVTZ-RI
    Molecular point group: c1

    Geometry (in Angstrom), charge = 0, multiplicity = 1:

       Center              X                  Y                   Z               Mass
    ------------   -----------------  -----------------  -----------------  -----------------
         O           -1.796317153899    -0.003640354426     0.288223222480    15.994914619570
         C            0.516956846101     0.007385645574    -0.438123777520    12.000000000000
         C            1.556773846101     0.886036645574     0.263416222480    12.000000000000
         C            0.583146846101    -1.445108354426     0.005480222480    12.000000000000
         C           -0.851400253899     0.590254645574    -0.185980077520    12.000000000000
         H            0.716932146101     0.065712045574    -1.519040477520     1.007825032230
         H            1.487334846101     1.929749645574    -0.058138777520     1.007825032230
         H            2.566635846101     0.531799645574     0.041820222480     1.007825032230
         H            1.415047846101     0.851965645574     1.347731222480     1.007825032230
         H            1.571578846101    -1.864107354426    -0.200987777520     1.007825032230
         H           -0.167509153899    -2.047942354426    -0.509472777520     1.007825032230
         H            0.389933846101    -1.523457354426     1.078107222480     1.007825032230
         H           -0.968606153899     1.654825645574    -0.524936777520     1.007825032230

  Basis Set: AUG-CC-PVTZ
    Blend: AUG-CC-PVTZ
  Basis Set: (AUG-CC-PVTZ AUX)
    Blend: AUG-CC-PVTZ-JKFIT
	 Reference Energy          =    -231.0716760044721809 [Eh]
	 Singles Energy            =      -0.0000000000000000 [Eh]
	 Same-Spin Energy          =      -0.2303930837215694 [Eh]
	 Opposite-Spin Energy      =      -0.7941260731747106 [Eh]
	 Correlation Energy        =      -1.0245191568962801 [Eh]
	 Total Energy              =    -232.0961951613684562 [Eh]

	 ================> DF-SCS-MP2 Energies <==================
	-----------------------------------------------------------
	 SCS Same-Spin Scale       =       0.3333333333333333 [-]
	 SCS Opposite-Spin Scale   =       1.2000000000000000 [-]
	 SCS Same-Spin Energy      =      -0.0767976945738565 [Eh]
	 SCS Opposite-Spin Energy  =      -0.9529512878096527 [Eh]
	 SCS Correlation Energy    =      -1.0297489823835091 [Eh]
	 SCS Total Energy          =    -232.1014249868556760 [Eh]
	-----------------------------------------------------------

  Dipole Moment: [D]
     X:     2.4253      Y:     0.8070      Z:    -0.9721     Total:     2.7347

*** Psi4 exiting successfully. Buy a developer a beer!
