                               Psi4 1.3.2 release

  ==> Input File <==

--------------------------------------------------------------------------
#psi4
#
memory 32 gb

molecule  {
0 1
  O       -1.8192940     0.0307924     0.2884726
  C        0.5176150     0.0064930    -0.4337930
  C        1.5574320     0.8851440     0.2677470
  C        0.5838050    -1.4460010     0.0098110
  C       -0.8532490     0.5940380    -0.2074380
  H        0.7003720     0.0729440    -1.5172860
  H        1.4879930     1.9288570    -0.0538080
  H        2.5672940     0.5309070     0.0461510
  H        1.4157060     0.8510730     1.3520620
  H        1.5722370    -1.8650000    -0.1966570
  H       -0.1668510    -2.0488350    -0.5051420
  H        0.3905920    -1.5243500     1.0824380
  H       -1.0047562     1.6528363    -0.5084349
units angstrom
no_reorient  #important for SAPT in psi4, default
symmetry c1  #important for SAPT in psi4, default
}

set PROPERTIES_ORIGIN ["COM"]
properties('MP2/aug-cc-pvtz', properties = ['dipole'])
--------------------------------------------------------------------------

    Molecular point group: c1
  Charge       = 0
  Multiplicity = 1
  Basis Set: AUG-CC-PVTZ
    Blend: AUG-CC-PVTZ
  Basis Set: (AUG-CC-PVTZ AUX)
    Blend: AUG-CC-PVTZ-JKFIT

    Orbital Energies [Eh]
    ---------------------

    Doubly Occupied:

       1A    -20.556944     2A    -11.331045     3A    -11.251870
       4A    -11.236219     5A    -11.220402     6A     -1.382650
       7A     -1.096464     8A     -0.946833     9A     -0.888369
      10A     -0.761315    11A     -0.681752    12A     -0.637800
      13A     -0.626126    14A     -0.567669    15A     -0.551692
      16A     -0.534295    17A     -0.519357    18A     -0.496289
      19A     -0.482290    20A     -0.417920

  @DF-RHF Final Energy:  -231.07085571264179

   => Energetics <=

    Nuclear Repulsion Energy =            176.9371427837387216
    One-Electron Energy =                -663.6413958688316370
    Two-Electron Energy =                 255.6333973724510997
    Total Energy =                       -231.0708557126417872
  Basis Set: (AUG-CC-PVTZ AUX)
    Blend: AUG-CC-PVTZ-RI
    Molecular point group: c1

    Geometry (in Angstrom), charge = 0, multiplicity = 1:

       Center              X                  Y                   Z               Mass
    ------------   -----------------  -----------------  -----------------  -----------------
         O           -1.813532672642     0.022966709235     0.289208277596    15.994914619570
         C            0.523376327358    -0.001332690765    -0.433057322404    12.000000000000
         C            1.563193327358     0.877318309235     0.268482677596    12.000000000000
         C            0.589566327358    -1.453826690765     0.010546677596    12.000000000000
         C           -0.847487672642     0.586212309235    -0.206702322404    12.000000000000
         H            0.706133327358     0.065118309235    -1.516550322404     1.007825032230
         H            1.493754327358     1.921031309235    -0.053072322404     1.007825032230
         H            2.573055327358     0.523081309235     0.046886677596     1.007825032230
         H            1.421467327358     0.843247309235     1.352797677596     1.007825032230
         H            1.577998327358    -1.872825690765    -0.195921322404     1.007825032230
         H           -0.161089672642    -2.056660690765    -0.504406322404     1.007825032230
         H            0.396353327358    -1.532175690765     1.083173677596     1.007825032230
         H           -0.998994872642     1.645010609235    -0.507699222404     1.007825032230

  Basis Set: AUG-CC-PVTZ
    Blend: AUG-CC-PVTZ
  Basis Set: (AUG-CC-PVTZ AUX)
    Blend: AUG-CC-PVTZ-JKFIT
	 Reference Energy          =    -231.0708557126417872 [Eh]
	 Singles Energy            =      -0.0000000000000000 [Eh]
	 Same-Spin Energy          =      -0.2304801969461880 [Eh]
	 Opposite-Spin Energy      =      -0.7945118457065332 [Eh]
	 Correlation Energy        =      -1.0249920426527213 [Eh]
	 Total Energy              =    -232.0958477552944998 [Eh]

	 ================> DF-SCS-MP2 Energies <==================
	-----------------------------------------------------------
	 SCS Same-Spin Scale       =       0.3333333333333333 [-]
	 SCS Opposite-Spin Scale   =       1.2000000000000000 [-]
	 SCS Same-Spin Energy      =      -0.0768267323153960 [Eh]
	 SCS Opposite-Spin Energy  =      -0.9534142148478398 [Eh]
	 SCS Correlation Energy    =      -1.0302409471632359 [Eh]
	 SCS Total Energy          =    -232.1010966598050231 [Eh]
	-----------------------------------------------------------

  Dipole Moment: [D]
     X:     2.5186      Y:     0.7739      Z:    -0.9904     Total:     2.8148

*** Psi4 exiting successfully. Buy a developer a beer!
