                               Psi4 1.3.2 release

  ==> Input File <==

--------------------------------------------------------------------------
#psi4
#
memory 32 gb

molecule  {
0 1
  O       -1.8017203     0.0041851     0.2914523
  C        0.5215977     0.0179254    -0.4389644
  C        1.5574320     0.8851440     0.2677470
  C        0.5838050    -1.4460010     0.0098110
  C       -0.8532490     0.5940380    -0.2074380
  H        0.7003720     0.0729440    -1.5172860
  H        1.4879930     1.9288570    -0.0538080
  H        2.5672940     0.5309070     0.0461510
  H        1.4157060     0.8510730     1.3520620
  H        1.5722370    -1.8650000    -0.1966570
  H       -0.1668510    -2.0488350    -0.5051420
  H        0.3905920    -1.5243500     1.0824380
  H       -0.9679480     1.6539330    -0.5206060
units angstrom
no_reorient  #important for SAPT in psi4, default
symmetry c1  #important for SAPT in psi4, default
}

set PROPERTIES_ORIGIN ["COM"]
properties('MP2/aug-cc-pvtz', properties = ['dipole'])
--------------------------------------------------------------------------

    Molecular point group: c1
  Charge       = 0
  Multiplicity = 1
  Basis Set: AUG-CC-PVTZ
    Blend: AUG-CC-PVTZ
  Basis Set: (AUG-CC-PVTZ AUX)
    Blend: AUG-CC-PVTZ-JKFIT

    Orbital Energies [Eh]
    ---------------------

    Doubly Occupied:

       1A    -20.558523     2A    -11.332129     3A    -11.249639
       4A    -11.235479     5A    -11.219585     6A     -1.383384
       7A     -1.095457     8A     -0.945194     9A     -0.889668
      10A     -0.761438    11A     -0.681317    12A     -0.639817
      13A     -0.624939    14A     -0.568059    15A     -0.551380
      16A     -0.532221    17A     -0.519477    18A     -0.492903
      19A     -0.484606    20A     -0.418328

  @DF-RHF Final Energy:  -231.07110913322680

   => Energetics <=

    Nuclear Repulsion Energy =            177.1148145159538672
    One-Electron Energy =                -664.0047657834322763
    Two-Electron Energy =                 255.8188421342516108
    Total Energy =                       -231.0711091332267983
  Basis Set: (AUG-CC-PVTZ AUX)
    Blend: AUG-CC-PVTZ-RI
    Molecular point group: c1

    Geometry (in Angstrom), charge = 0, multiplicity = 1:

       Center              X                  Y                   Z               Mass
    ------------   -----------------  -----------------  -----------------  -----------------
         O           -1.801037949582     0.000346327331     0.292558002738    15.994914619570
         C            0.522280050418     0.014086627331    -0.437858697262    12.000000000000
         C            1.558114350418     0.881305227331     0.268852702738    12.000000000000
         C            0.584487350418    -1.449839772669     0.010916702738    12.000000000000
         C           -0.852566649582     0.590199227331    -0.206332297262    12.000000000000
         H            0.701054350418     0.069105227331    -1.516180297262     1.007825032230
         H            1.488675350418     1.925018227331    -0.052702297262     1.007825032230
         H            2.567976350418     0.527068227331     0.047256702738     1.007825032230
         H            1.416388350418     0.847234227331     1.353167702738     1.007825032230
         H            1.572919350418    -1.868838772669    -0.195551297262     1.007825032230
         H           -0.166168649582    -2.052673772669    -0.504036297262     1.007825032230
         H            0.391274350418    -1.528188772669     1.083543702738     1.007825032230
         H           -0.967265649582     1.650094227331    -0.519500297262     1.007825032230

  Basis Set: AUG-CC-PVTZ
    Blend: AUG-CC-PVTZ
  Basis Set: (AUG-CC-PVTZ AUX)
    Blend: AUG-CC-PVTZ-JKFIT
	 Reference Energy          =    -231.0711091332267983 [Eh]
	 Singles Energy            =      -0.0000000000000000 [Eh]
	 Same-Spin Energy          =      -0.2305403930751697 [Eh]
	 Opposite-Spin Energy      =      -0.7946282514842289 [Eh]
	 Correlation Energy        =      -1.0251686445593986 [Eh]
	 Total Energy              =    -232.0962777777861845 [Eh]

	 ================> DF-SCS-MP2 Energies <==================
	-----------------------------------------------------------
	 SCS Same-Spin Scale       =       0.3333333333333333 [-]
	 SCS Opposite-Spin Scale   =       1.2000000000000000 [-]
	 SCS Same-Spin Energy      =      -0.0768467976917232 [Eh]
	 SCS Opposite-Spin Energy  =      -0.9535539017810746 [Eh]
	 SCS Correlation Energy    =      -1.0304006994727979 [Eh]
	 SCS Total Energy          =    -232.1015098326996053 [Eh]
	-----------------------------------------------------------

  Dipole Moment: [D]
     X:     2.4618      Y:     0.8353      Z:    -0.9969     Total:     2.7842

*** Psi4 exiting successfully. Buy a developer a beer!
