                               Psi4 1.3.2 release

  ==> Input File <==

--------------------------------------------------------------------------
#psi4
#
memory 32 gb

molecule  {
0 1
  O       -1.7956590    -0.0045330     0.2925540
  C        0.5176150     0.0064930    -0.4337930
  C        1.5378251     0.9012832     0.2760853
  C        0.5838050    -1.4460010     0.0098110
  C       -0.8423563     0.6134410    -0.1933641
  H        0.7003720     0.0729440    -1.5172860
  H        1.4879930     1.9288570    -0.0538080
  H        2.5672940     0.5309070     0.0461510
  H        1.4157060     0.8510730     1.3520620
  H        1.5722370    -1.8650000    -0.1966570
  H       -0.1668510    -2.0488350    -0.5051420
  H        0.3905920    -1.5243500     1.0824380
  H       -0.9679480     1.6539330    -0.5206060
units angstrom
no_reorient  #important for SAPT in psi4, default
symmetry c1  #important for SAPT in psi4, default
}

set PROPERTIES_ORIGIN ["COM"]
properties('MP2/aug-cc-pvtz', properties = ['dipole'])
--------------------------------------------------------------------------

    Molecular point group: c1
  Charge       = 0
  Multiplicity = 1
  Basis Set: AUG-CC-PVTZ
    Blend: AUG-CC-PVTZ
  Basis Set: (AUG-CC-PVTZ AUX)
    Blend: AUG-CC-PVTZ-JKFIT

    Orbital Energies [Eh]
    ---------------------

    Doubly Occupied:

       1A    -20.557059     2A    -11.332242     3A    -11.250103
       4A    -11.235582     5A    -11.219382     6A     -1.374752
       7A     -1.095700     8A     -0.946812     9A     -0.889548
      10A     -0.763784    11A     -0.681408    12A     -0.635545
      13A     -0.626444    14A     -0.569333    15A     -0.546161
      16A     -0.531425    17A     -0.515387    18A     -0.497837
      19A     -0.480553    20A     -0.419384

  @DF-RHF Final Energy:  -231.06849543739440

   => Energetics <=

    Nuclear Repulsion Energy =            177.1514276537943431
    One-Electron Energy =                -664.1029668301958964
    Two-Electron Energy =                 255.8830437390071211
    Total Energy =                       -231.0684954373944038
  Basis Set: (AUG-CC-PVTZ AUX)
    Blend: AUG-CC-PVTZ-RI
    Molecular point group: c1

    Geometry (in Angstrom), charge = 0, multiplicity = 1:

       Center              X                  Y                   Z               Mass
    ------------   -----------------  -----------------  -----------------  -----------------
         O           -1.794207641324    -0.010451671415     0.288821556460    15.994914619570
         C            0.519066358676     0.000574328585    -0.437525443540    12.000000000000
         C            1.539276458676     0.895364528585     0.272352856460    12.000000000000
         C            0.585256358676    -1.451919671415     0.006078556460    12.000000000000
         C           -0.840904941324     0.607522328585    -0.197096543540    12.000000000000
         H            0.701823358676     0.067025328585    -1.521018443540     1.007825032230
         H            1.489444358676     1.922938328585    -0.057540443540     1.007825032230
         H            2.568745358676     0.524988328585     0.042418556460     1.007825032230
         H            1.417157358676     0.845154328585     1.348329556460     1.007825032230
         H            1.573688358676    -1.870918671415    -0.200389443540     1.007825032230
         H           -0.165399641324    -2.054753671415    -0.508874443540     1.007825032230
         H            0.392043358676    -1.530268671415     1.078705556460     1.007825032230
         H           -0.966496641324     1.648014328585    -0.524338443540     1.007825032230

  Basis Set: AUG-CC-PVTZ
    Blend: AUG-CC-PVTZ
  Basis Set: (AUG-CC-PVTZ AUX)
    Blend: AUG-CC-PVTZ-JKFIT
	 Reference Energy          =    -231.0684954373944038 [Eh]
	 Singles Energy            =      -0.0000000000000000 [Eh]
	 Same-Spin Energy          =      -0.2309596327233176 [Eh]
	 Opposite-Spin Energy      =      -0.7954962758676114 [Eh]
	 Correlation Energy        =      -1.0264559085909291 [Eh]
	 Total Energy              =    -232.0949513459853222 [Eh]

	 ================> DF-SCS-MP2 Energies <==================
	-----------------------------------------------------------
	 SCS Same-Spin Scale       =       0.3333333333333333 [-]
	 SCS Opposite-Spin Scale   =       1.2000000000000000 [-]
	 SCS Same-Spin Energy      =      -0.0769865442411059 [Eh]
	 SCS Opposite-Spin Energy  =      -0.9545955310411336 [Eh]
	 SCS Correlation Energy    =      -1.0315820752822396 [Eh]
	 SCS Total Energy          =    -232.1000775126766484 [Eh]
	-----------------------------------------------------------

  Dipole Moment: [D]
     X:     2.4676      Y:     0.8975      Z:    -1.0135     Total:     2.8146

*** Psi4 exiting successfully. Buy a developer a beer!
