                               Psi4 1.3.2 release

  ==> Input File <==

--------------------------------------------------------------------------
#psi4
#
memory 32 gb

molecule  {
0 1
  O       -1.8076218     0.0130412     0.2905892
  C        0.5176150     0.0064930    -0.4337930
  C        1.5574320     0.8851440     0.2677470
  C        0.5838050    -1.4460010     0.0098110
  C       -0.8532490     0.5940380    -0.2074380
  H        0.7003720     0.0729440    -1.5172860
  H        1.4879930     1.9288570    -0.0538080
  H        2.5672940     0.5309070     0.0461510
  H        1.4157060     0.8510730     1.3520620
  H        1.5722370    -1.8650000    -0.1966570
  H       -0.1668510    -2.0488350    -0.5051420
  H        0.3905920    -1.5243500     1.0824380
  H       -0.9863724     1.6535460    -0.5145672
units angstrom
no_reorient  #important for SAPT in psi4, default
symmetry c1  #important for SAPT in psi4, default
}

set PROPERTIES_ORIGIN ["COM"]
properties('MP2/aug-cc-pvtz', properties = ['dipole'])
--------------------------------------------------------------------------

    Molecular point group: c1
  Charge       = 0
  Multiplicity = 1
  Basis Set: AUG-CC-PVTZ
    Blend: AUG-CC-PVTZ
  Basis Set: (AUG-CC-PVTZ AUX)
    Blend: AUG-CC-PVTZ-JKFIT

    Orbital Energies [Eh]
    ---------------------

    Doubly Occupied:

       1A    -20.557521     2A    -11.331544     3A    -11.250692
       4A    -11.235876     5A    -11.219668     6A     -1.382986
       7A     -1.095843     8A     -0.946348     9A     -0.888782
      10A     -0.761099    11A     -0.681508    12A     -0.638606
      13A     -0.625704    14A     -0.567502    15A     -0.551550
      16A     -0.533422    17A     -0.519192    18A     -0.495723
      19A     -0.482071    20A     -0.418334

  @DF-RHF Final Energy:  -231.07123290407810

   => Energetics <=

    Nuclear Repulsion Energy =            177.0889948668706779
    One-Electron Energy =                -663.9525129783236252
    Two-Electron Energy =                 255.7922852073748459
    Total Energy =                       -231.0712329040781015
  Basis Set: (AUG-CC-PVTZ AUX)
    Blend: AUG-CC-PVTZ-RI
    Molecular point group: c1

    Geometry (in Angstrom), charge = 0, multiplicity = 1:

       Center              X                  Y                   Z               Mass
    ------------   -----------------  -----------------  -----------------  -----------------
         O           -1.804708523905     0.009145892838     0.290940815630    15.994914619570
         C            0.520528276095     0.002597692838    -0.433441384370    12.000000000000
         C            1.560345276095     0.881248692838     0.268098615630    12.000000000000
         C            0.586718276095    -1.449896307162     0.010162615630    12.000000000000
         C           -0.850335723905     0.590142692838    -0.207086384370    12.000000000000
         H            0.703285276095     0.069048692838    -1.516934384370     1.007825032230
         H            1.490906276095     1.924961692838    -0.053456384370     1.007825032230
         H            2.570207276095     0.527011692838     0.046502615630     1.007825032230
         H            1.418619276095     0.847177692838     1.352413615630     1.007825032230
         H            1.575150276095    -1.868895307162    -0.196305384370     1.007825032230
         H           -0.163937723905    -2.052730307162    -0.504790384370     1.007825032230
         H            0.393505276095    -1.528245307162     1.082789615630     1.007825032230
         H           -0.983459123905     1.649650692838    -0.514215584370     1.007825032230

  Basis Set: AUG-CC-PVTZ
    Blend: AUG-CC-PVTZ
  Basis Set: (AUG-CC-PVTZ AUX)
    Blend: AUG-CC-PVTZ-JKFIT
	 Reference Energy          =    -231.0712329040781015 [Eh]
	 Singles Energy            =      -0.0000000000000000 [Eh]
	 Same-Spin Energy          =      -0.2305364450688858 [Eh]
	 Opposite-Spin Energy      =      -0.7945733723507163 [Eh]
	 Correlation Energy        =      -1.0251098174196021 [Eh]
	 Total Energy              =    -232.0963427214977060 [Eh]

	 ================> DF-SCS-MP2 Energies <==================
	-----------------------------------------------------------
	 SCS Same-Spin Scale       =       0.3333333333333333 [-]
	 SCS Opposite-Spin Scale   =       1.2000000000000000 [-]
	 SCS Same-Spin Energy      =      -0.0768454816896286 [Eh]
	 SCS Opposite-Spin Energy  =      -0.9534880468208595 [Eh]
	 SCS Correlation Energy    =      -1.0303335285104882 [Eh]
	 SCS Total Energy          =    -232.1015664325885837 [Eh]
	-----------------------------------------------------------

  Dipole Moment: [D]
     X:     2.4830      Y:     0.8125      Z:    -0.9945     Total:     2.7954

*** Psi4 exiting successfully. Buy a developer a beer!
