                               Psi4 1.3.2 release

  ==> Input File <==

--------------------------------------------------------------------------
#psi4
#
memory 32 gb

molecule  {
0 1
  O       -1.7956590    -0.0045330     0.2925540
  C        0.5176150     0.0064930    -0.4337930
  C        1.5574320     0.8851440     0.2677470
  C        0.5838050    -1.4460010     0.0098110
  C       -0.8553383     0.5985351    -0.2332956
  H        0.6830980     0.0810484    -1.5195323
  H        1.4879930     1.9288570    -0.0538080
  H        2.5672940     0.5309070     0.0461510
  H        1.4157060     0.8510730     1.3520620
  H        1.5722370    -1.8650000    -0.1966570
  H       -0.1668510    -2.0488350    -0.5051420
  H        0.3905920    -1.5243500     1.0824380
  H       -0.9679480     1.6539330    -0.5206060
units angstrom
no_reorient  #important for SAPT in psi4, default
symmetry c1  #important for SAPT in psi4, default
}

set PROPERTIES_ORIGIN ["COM"]
properties('MP2/aug-cc-pvtz', properties = ['dipole'])
--------------------------------------------------------------------------

    Molecular point group: c1
  Charge       = 0
  Multiplicity = 1
  Basis Set: AUG-CC-PVTZ
    Blend: AUG-CC-PVTZ
  Basis Set: (AUG-CC-PVTZ AUX)
    Blend: AUG-CC-PVTZ-JKFIT

    Orbital Energies [Eh]
    ---------------------

    Doubly Occupied:

       1A    -20.557330     2A    -11.332529     3A    -11.250033
       4A    -11.236066     5A    -11.219158     6A     -1.375568
       7A     -1.095105     8A     -0.945972     9A     -0.891763
      10A     -0.762794    11A     -0.679362    12A     -0.636055
      13A     -0.625851    14A     -0.566964    15A     -0.551293
      16A     -0.531907    17A     -0.516848    18A     -0.495304
      19A     -0.480101    20A     -0.419832

  @DF-RHF Final Energy:  -231.06948194605118

   => Energetics <=

    Nuclear Repulsion Energy =            177.0401264976975142
    One-Electron Energy =                -663.8795503086005283
    Two-Electron Energy =                 255.7699418648518019
    Total Energy =                       -231.0694819460511837
  Basis Set: (AUG-CC-PVTZ AUX)
    Blend: AUG-CC-PVTZ-RI
    Molecular point group: c1

    Geometry (in Angstrom), charge = 0, multiplicity = 1:

       Center              X                  Y                   Z               Mass
    ------------   -----------------  -----------------  -----------------  -----------------
         O           -1.795069308986    -0.005394969370     0.296891519438    15.994914619570
         C            0.518204691014     0.005631030630    -0.429455480562    12.000000000000
         C            1.558021691014     0.884282030630     0.272084519438    12.000000000000
         C            0.584394691014    -1.446862969370     0.014148519438    12.000000000000
         C           -0.854748608986     0.597673130630    -0.228958080562    12.000000000000
         H            0.683687691014     0.080186430630    -1.515194780562     1.007825032230
         H            1.488582691014     1.927995030630    -0.049470480562     1.007825032230
         H            2.567883691014     0.530045030630     0.050488519438     1.007825032230
         H            1.416295691014     0.850211030630     1.356399519438     1.007825032230
         H            1.572826691014    -1.865861969370    -0.192319480562     1.007825032230
         H           -0.166261308986    -2.049696969370    -0.500804480562     1.007825032230
         H            0.391181691014    -1.525211969370     1.086775519438     1.007825032230
         H           -0.967358308986     1.653071030630    -0.516268480562     1.007825032230

  Basis Set: AUG-CC-PVTZ
    Blend: AUG-CC-PVTZ
  Basis Set: (AUG-CC-PVTZ AUX)
    Blend: AUG-CC-PVTZ-JKFIT
	 Reference Energy          =    -231.0694819460511837 [Eh]
	 Singles Energy            =      -0.0000000000000000 [Eh]
	 Same-Spin Energy          =      -0.2308820719203778 [Eh]
	 Opposite-Spin Energy      =      -0.7953463013358677 [Eh]
	 Correlation Energy        =      -1.0262283732562456 [Eh]
	 Total Energy              =    -232.0957103193074431 [Eh]

	 ================> DF-SCS-MP2 Energies <==================
	-----------------------------------------------------------
	 SCS Same-Spin Scale       =       0.3333333333333333 [-]
	 SCS Opposite-Spin Scale   =       1.2000000000000000 [-]
	 SCS Same-Spin Energy      =      -0.0769606906401259 [Eh]
	 SCS Opposite-Spin Energy  =      -0.9544155616030412 [Eh]
	 SCS Correlation Energy    =      -1.0313762522431671 [Eh]
	 SCS Total Energy          =    -232.1008581982943610 [Eh]
	-----------------------------------------------------------

  Dipole Moment: [D]
     X:     2.4678      Y:     0.8894      Z:    -1.0219     Total:     2.8152

*** Psi4 exiting successfully. Buy a developer a beer!
