                               Psi4 1.3.2 release

  ==> Input File <==

--------------------------------------------------------------------------
#psi4
#
memory 32 gb

molecule  {
0 1
  O       -1.7956590    -0.0045330     0.2925540
  C        0.5134775    -0.0049494    -0.4287674
  C        1.5574320     0.8851440     0.2677470
  C        0.5838050    -1.4460010     0.0098110
  C       -0.8532490     0.5940380    -0.2074380
  H        0.7003720     0.0729440    -1.5172860
  H        1.4879930     1.9288570    -0.0538080
  H        2.5672940     0.5309070     0.0461510
  H        1.4157060     0.8510730     1.3520620
  H        1.5722370    -1.8650000    -0.1966570
  H       -0.1668510    -2.0488350    -0.5051420
  H        0.3905920    -1.5243500     1.0824380
  H       -0.9772007     1.6537423    -0.5177125
units angstrom
no_reorient  #important for SAPT in psi4, default
symmetry c1  #important for SAPT in psi4, default
}

set PROPERTIES_ORIGIN ["COM"]
properties('MP2/aug-cc-pvtz', properties = ['dipole'])
--------------------------------------------------------------------------

    Molecular point group: c1
  Charge       = 0
  Multiplicity = 1
  Basis Set: AUG-CC-PVTZ
    Blend: AUG-CC-PVTZ
  Basis Set: (AUG-CC-PVTZ AUX)
    Blend: AUG-CC-PVTZ-JKFIT

    Orbital Energies [Eh]
    ---------------------

    Doubly Occupied:

       1A    -20.557371     2A    -11.331735     3A    -11.249998
       4A    -11.235766     5A    -11.218627     6A     -1.383169
       7A     -1.095370     8A     -0.946760     9A     -0.888541
      10A     -0.760438    11A     -0.681384    12A     -0.638624
      13A     -0.625837    14A     -0.566841    15A     -0.551513
      16A     -0.533438    17A     -0.518685    18A     -0.497455
      19A     -0.479067    20A     -0.418639

  @DF-RHF Final Energy:  -231.07103141316622

   => Energetics <=

    Nuclear Repulsion Energy =            177.2981444516369436
    One-Electron Energy =                -664.3798351012125067
    Two-Electron Energy =                 256.0106592364093103
    Total Energy =                       -231.0710314131662244
  Basis Set: (AUG-CC-PVTZ AUX)
    Blend: AUG-CC-PVTZ-RI
    Molecular point group: c1

    Geometry (in Angstrom), charge = 0, multiplicity = 1:

       Center              X                  Y                   Z               Mass
    ------------   -----------------  -----------------  -----------------  -----------------
         O           -1.794840403880    -0.002624487905     0.291676540546    15.994914619570
         C            0.514296096120    -0.003040887905    -0.429644859454    12.000000000000
         C            1.558250596120     0.887052512095     0.266869540546    12.000000000000
         C            0.584623596120    -1.444092487905     0.008933540546    12.000000000000
         C           -0.852430403880     0.595946512095    -0.208315459454    12.000000000000
         H            0.701190596120     0.074852512095    -1.518163459454     1.007825032230
         H            1.488811596120     1.930765512095    -0.054685459454     1.007825032230
         H            2.568112596120     0.532815512095     0.045273540546     1.007825032230
         H            1.416524596120     0.852981512095     1.351184540546     1.007825032230
         H            1.573055596120    -1.863091487905    -0.197534459454     1.007825032230
         H           -0.166032403880    -2.046926487905    -0.506019459454     1.007825032230
         H            0.391410596120    -1.522441487905     1.081560540546     1.007825032230
         H           -0.976382103880     1.655650812095    -0.518589959454     1.007825032230

  Basis Set: AUG-CC-PVTZ
    Blend: AUG-CC-PVTZ
  Basis Set: (AUG-CC-PVTZ AUX)
    Blend: AUG-CC-PVTZ-JKFIT
	 Reference Energy          =    -231.0710314131662244 [Eh]
	 Singles Energy            =      -0.0000000000000000 [Eh]
	 Same-Spin Energy          =      -0.2306497517967809 [Eh]
	 Opposite-Spin Energy      =      -0.7946727697203289 [Eh]
	 Correlation Energy        =      -1.0253225215171098 [Eh]
	 Total Energy              =    -232.0963539346833215 [Eh]

	 ================> DF-SCS-MP2 Energies <==================
	-----------------------------------------------------------
	 SCS Same-Spin Scale       =       0.3333333333333333 [-]
	 SCS Opposite-Spin Scale   =       1.2000000000000000 [-]
	 SCS Same-Spin Energy      =      -0.0768832505989269 [Eh]
	 SCS Opposite-Spin Energy  =      -0.9536073236643946 [Eh]
	 SCS Correlation Energy    =      -1.0304905742633215 [Eh]
	 SCS Total Energy          =    -232.1015219874295497 [Eh]
	-----------------------------------------------------------

  Dipole Moment: [D]
     X:     2.4496      Y:     0.8461      Z:    -0.9973     Total:     2.7769

*** Psi4 exiting successfully. Buy a developer a beer!
