                               Psi4 1.3.2 release

  ==> Input File <==

--------------------------------------------------------------------------
#psi4
#
memory 32 gb

molecule  {
0 1
  O       -1.7956590    -0.0045330     0.2925540
  C        0.5176150     0.0064930    -0.4337930
  C        1.5574320     0.8851440     0.2677470
  C        0.5838050    -1.4460010     0.0098110
  C       -0.8570094     0.6028518    -0.2592143
  H        0.6657736     0.0891300    -1.5214479
  H        1.4879930     1.9288570    -0.0538080
  H        2.5672940     0.5309070     0.0461510
  H        1.4157060     0.8510730     1.3520620
  H        1.5722370    -1.8650000    -0.1966570
  H       -0.1668510    -2.0488350    -0.5051420
  H        0.3905920    -1.5243500     1.0824380
  H       -0.9679480     1.6539330    -0.5206060
units angstrom
no_reorient  #important for SAPT in psi4, default
symmetry c1  #important for SAPT in psi4, default
}

set PROPERTIES_ORIGIN ["COM"]
properties('MP2/aug-cc-pvtz', properties = ['dipole'])
--------------------------------------------------------------------------

    Molecular point group: c1
  Charge       = 0
  Multiplicity = 1
  Basis Set: AUG-CC-PVTZ
    Blend: AUG-CC-PVTZ
  Basis Set: (AUG-CC-PVTZ AUX)
    Blend: AUG-CC-PVTZ-JKFIT

    Orbital Energies [Eh]
    ---------------------

    Doubly Occupied:

       1A    -20.556718     2A    -11.333229     3A    -11.250657
       4A    -11.236616     5A    -11.219423     6A     -1.367606
       7A     -1.095058     8A     -0.946111     9A     -0.894392
      10A     -0.764836    11A     -0.677303    12A     -0.632706
      13A     -0.626454    14A     -0.566598    15A     -0.551178
      16A     -0.531363    17A     -0.514977    18A     -0.495441
      19A     -0.477767    20A     -0.420811

  @DF-RHF Final Energy:  -231.06639551082094

   => Energetics <=

    Nuclear Repulsion Energy =            176.8275541873799739
    One-Electron Energy =                -663.4694099476000702
    Two-Electron Energy =                 255.5754602493991570
    Total Energy =                       -231.0663955108209393
  Basis Set: (AUG-CC-PVTZ AUX)
    Blend: AUG-CC-PVTZ-RI
    Molecular point group: c1

    Geometry (in Angstrom), charge = 0, multiplicity = 1:

       Center              X                  Y                   Z               Mass
    ------------   -----------------  -----------------  -----------------  -----------------
         O           -1.794548708684    -0.006226877588     0.301234647149    15.994914619570
         C            0.518725291316     0.004799122412    -0.425112352851    12.000000000000
         C            1.558542291316     0.883450122412     0.276427647149    12.000000000000
         C            0.584915291316    -1.447694877588     0.018491647149    12.000000000000
         C           -0.855899108684     0.601157922412    -0.250533652851    12.000000000000
         H            0.666883891316     0.087436122412    -1.512767252851     1.007825032230
         H            1.489103291316     1.927163122412    -0.045127352851     1.007825032230
         H            2.568404291316     0.529213122412     0.054831647149     1.007825032230
         H            1.416816291316     0.849379122412     1.360742647149     1.007825032230
         H            1.573347291316    -1.866693877588    -0.187976352851     1.007825032230
         H           -0.165740708684    -2.050528877588    -0.496461352851     1.007825032230
         H            0.391702291316    -1.526043877588     1.091118647149     1.007825032230
         H           -0.966837708684     1.652239122412    -0.511925352851     1.007825032230

  Basis Set: AUG-CC-PVTZ
    Blend: AUG-CC-PVTZ
  Basis Set: (AUG-CC-PVTZ AUX)
    Blend: AUG-CC-PVTZ-JKFIT
	 Reference Energy          =    -231.0663955108209393 [Eh]
	 Singles Energy            =      -0.0000000000000000 [Eh]
	 Same-Spin Energy          =      -0.2312209176825131 [Eh]
	 Opposite-Spin Energy      =      -0.7961867056677395 [Eh]
	 Correlation Energy        =      -1.0274076233502527 [Eh]
	 Total Energy              =    -232.0938031341711962 [Eh]

	 ================> DF-SCS-MP2 Energies <==================
	-----------------------------------------------------------
	 SCS Same-Spin Scale       =       0.3333333333333333 [-]
	 SCS Opposite-Spin Scale   =       1.2000000000000000 [-]
	 SCS Same-Spin Energy      =      -0.0770736392275044 [Eh]
	 SCS Opposite-Spin Energy  =      -0.9554240468012873 [Eh]
	 SCS Correlation Energy    =      -1.0324976860287918 [Eh]
	 SCS Total Energy          =    -232.0988931968497297 [Eh]
	-----------------------------------------------------------

  Dipole Moment: [D]
     X:     2.4886      Y:     0.9247      Z:    -1.0432     Total:     2.8525

*** Psi4 exiting successfully. Buy a developer a beer!
