                               Psi4 1.3.2 release

  ==> Input File <==

--------------------------------------------------------------------------
#psi4
#
memory 32 gb

molecule  {
0 1
  O       -1.7956590    -0.0045330     0.2925540
  C        0.5176150     0.0064930    -0.4337930
  C        1.5574320     0.8851440     0.2677470
  C        0.5838050    -1.4460010     0.0098110
  C       -0.8532490     0.5940380    -0.2074380
  H        0.7003720     0.0729440    -1.5172860
  H        1.4879930     1.9288570    -0.0538080
  H        2.5672940     0.5309070     0.0461510
  H        1.4157060     0.8510730     1.3520620
  H        1.5722370    -1.8650000    -0.1966570
  H       -0.1668510    -2.0488350    -0.5051420
  H        0.3905920    -1.5243500     1.0824380
  H       -0.9679480     1.6539330    -0.5206060
units angstrom
no_reorient  #important for SAPT in psi4, default
symmetry c1  #important for SAPT in psi4, default
}

set PROPERTIES_ORIGIN ["COM"]
properties('MP2/aug-cc-pvtz', properties = ['dipole'])
--------------------------------------------------------------------------

    Molecular point group: c1
  Charge       = 0
  Multiplicity = 1
  Basis Set: AUG-CC-PVTZ
    Blend: AUG-CC-PVTZ
  Basis Set: (AUG-CC-PVTZ AUX)
    Blend: AUG-CC-PVTZ-JKFIT

    Orbital Energies [Eh]
    ---------------------

    Doubly Occupied:

       1A    -20.558089     2A    -11.332050     3A    -11.249500
       4A    -11.235529     5A    -11.218926     6A     -1.383372
       7A     -1.095219     8A     -0.945860     9A     -0.889208
      10A     -0.760850    11A     -0.681303    12A     -0.639405
      13A     -0.625285    14A     -0.567346    15A     -0.551405
      16A     -0.532517    17A     -0.519029    18A     -0.495151
      19A     -0.481848    20A     -0.418569

  @DF-RHF Final Energy:  -231.07123802840630

   => Energetics <=

    Nuclear Repulsion Energy =            177.2460913121521742
    One-Electron Energy =                -664.2737359728562296
    Two-Electron Energy =                 255.9564066322977283
    Total Energy =                       -231.0712380284062988
  Basis Set: (AUG-CC-PVTZ AUX)
    Blend: AUG-CC-PVTZ-RI
    Molecular point group: c1

    Geometry (in Angstrom), charge = 0, multiplicity = 1:

       Center              X                  Y                   Z               Mass
    ------------   -----------------  -----------------  -----------------  -----------------
         O           -1.795658848740    -0.004532699595     0.292553941631    15.994914619570
         C            0.517615151260     0.006493300405    -0.433793058369    12.000000000000
         C            1.557432151260     0.885144300405     0.267746941631    12.000000000000
         C            0.583805151260    -1.446000699595     0.009810941631    12.000000000000
         C           -0.853248848740     0.594038300405    -0.207438058369    12.000000000000
         H            0.700372151260     0.072944300405    -1.517286058369     1.007825032230
         H            1.487993151260     1.928857300405    -0.053808058369     1.007825032230
         H            2.567294151260     0.530907300405     0.046150941631     1.007825032230
         H            1.415706151260     0.851073300405     1.352061941631     1.007825032230
         H            1.572237151260    -1.864999699595    -0.196657058369     1.007825032230
         H           -0.166850848740    -2.048834699595    -0.505142058369     1.007825032230
         H            0.390592151260    -1.524349699595     1.082437941631     1.007825032230
         H           -0.967947848740     1.653933300405    -0.520606058369     1.007825032230

  Basis Set: AUG-CC-PVTZ
    Blend: AUG-CC-PVTZ
  Basis Set: (AUG-CC-PVTZ AUX)
    Blend: AUG-CC-PVTZ-JKFIT
	 Reference Energy          =    -231.0712380284062988 [Eh]
	 Singles Energy            =      -0.0000000000000000 [Eh]
	 Same-Spin Energy          =      -0.2306065765933312 [Eh]
	 Opposite-Spin Energy      =      -0.7946603103893788 [Eh]
	 Correlation Energy        =      -1.0252668869827100 [Eh]
	 Total Energy              =    -232.0965049153890050 [Eh]

	 ================> DF-SCS-MP2 Energies <==================
	-----------------------------------------------------------
	 SCS Same-Spin Scale       =       0.3333333333333333 [-]
	 SCS Opposite-Spin Scale   =       1.2000000000000000 [-]
	 SCS Same-Spin Energy      =      -0.0768688588644437 [Eh]
	 SCS Opposite-Spin Energy  =      -0.9535923724672545 [Eh]
	 SCS Correlation Energy    =      -1.0304612313316981 [Eh]
	 SCS Total Energy          =    -232.1016992597379840 [Eh]
	-----------------------------------------------------------

  Dipole Moment: [D]
     X:     2.4465      Y:     0.8502      Z:    -0.9981     Total:     2.7757

*** Psi4 exiting successfully. Buy a developer a beer!
