                               Psi4 1.4a3.dev225

  ==> Input File <==

--------------------------------------------------------------------------
#psi4
#
memory 32 gb

molecule  {
0 1
  O       -1.8841100    -0.0754290    -0.2841020
  C        0.4339560     0.0114880     0.4275350
  C        1.5032440    -0.8397350    -0.2682130
  C        0.4423580     1.4601130    -0.0387010
  C       -0.9163840    -0.6314910     0.2188260
  H        0.6252000    -0.0321580     1.5111040
  H        1.4713110    -1.8814970     0.0665680
  H        2.5004740    -0.4466550    -0.0533610
  H        1.3573160    -0.8234960    -1.3527830
  H        1.4146230     1.9201520     0.1587670
  H       -0.3302150     2.0412490     0.4696940
  H        0.2436030     1.5145060    -1.1122270
  H       -0.9852302    -1.6432720     0.5335540
units angstrom
no_reorient  #important for SAPT in psi4, default
symmetry c1  #important for SAPT in psi4, default
}

set PROPERTIES_ORIGIN ["COM"]
properties('MP2/aug-cc-pvtz', properties = ['dipole'])
--------------------------------------------------------------------------

    Molecular point group: c1
  Charge       = 0
  Multiplicity = 1
  Basis Set: AUG-CC-PVTZ
    Blend: AUG-CC-PVTZ
  Basis Set: (AUG-CC-PVTZ AUX)
    Blend: AUG-CC-PVTZ-JKFIT

    Orbital Energies [Eh]
    ---------------------

    Doubly Occupied:

       1A    -20.556911     2A    -11.326449     3A    -11.248990
       4A    -11.235802     5A    -11.218706     6A     -1.381985
       7A     -1.094170     8A     -0.945443     9A     -0.892987
      10A     -0.768166    11A     -0.683146    12A     -0.639013
      13A     -0.624728    14A     -0.567543    15A     -0.551378
      16A     -0.531872    17A     -0.518263    18A     -0.494801
      19A     -0.481042    20A     -0.419888

  @DF-RHF Final Energy:  -231.07065908460015

   => Energetics <=

    Nuclear Repulsion Energy =            177.3261402852419621
    One-Electron Energy =                -664.4310316095187545
    Two-Electron Energy =                 256.0342322396766122
    Total Energy =                       -231.0706590846001518
  Basis Set: (AUG-CC-PVTZ AUX)
    Blend: AUG-CC-PVTZ-RI
    Molecular point group: c1

    Geometry (in Angstrom), charge = 0, multiplicity = 1:

       Center              X                  Y                   Z               Mass
    ------------   -----------------  -----------------  -----------------  -----------------
         O           -1.797627224034    -0.067822932709    -0.280663421403    15.994914619570
         C            0.520438775966     0.019094067291     0.430973578597    12.000000000000
         C            1.589726775966    -0.832128932709    -0.264774421403    12.000000000000
         C            0.528840775966     1.467719067291    -0.035262421403    12.000000000000
         C           -0.829901224034    -0.623884932709     0.222264578597    12.000000000000
         H            0.711682775966    -0.024551932709     1.514542578597     1.007825032230
         H            1.557793775966    -1.873890932709     0.070006578597     1.007825032230
         H            2.586956775966    -0.439048932709    -0.049922421403     1.007825032230
         H            1.443798775966    -0.815889932709    -1.349344421403     1.007825032230
         H            1.501105775966     1.927758067291     0.162205578597     1.007825032230
         H           -0.243732224034     2.048855067291     0.473132578597     1.007825032230
         H            0.330085775966     1.522112067291    -1.108788421403     1.007825032230
         H           -0.898747424034    -1.635665932709     0.536992578597     1.007825032230

  Basis Set: AUG-CC-PVTZ
    Blend: AUG-CC-PVTZ
  Basis Set: (AUG-CC-PVTZ AUX)
    Blend: AUG-CC-PVTZ-JKFIT
	 Reference Energy          =    -231.0706590846001518 [Eh]
	 Singles Energy            =      -0.0000000000000000 [Eh]
	 Same-Spin Energy          =      -0.2304115224010693 [Eh]
	 Opposite-Spin Energy      =      -0.7943779970613810 [Eh]
	 Correlation Energy        =      -1.0247895194624503 [Eh]
	 Total Energy              =    -232.0954486040625966 [Eh]

	 ================> DF-SCS-MP2 Energies <==================
	-----------------------------------------------------------
	 SCS Same-Spin Scale       =       0.3333333333333333 [-]
	 SCS Opposite-Spin Scale   =       1.2000000000000000 [-]
	 SCS Same-Spin Energy      =      -0.0768038408003564 [Eh]
	 SCS Opposite-Spin Energy  =      -0.9532535964736571 [Eh]
	 SCS Correlation Energy    =      -1.0300574372740137 [Eh]
	 SCS Total Energy          =    -232.1007165218741761 [Eh]
	-----------------------------------------------------------

  Dipole Moment: [D]
     X:     2.4813      Y:    -0.8032      Z:     1.0155     Total:     2.7988

*** Psi4 exiting successfully. Buy a developer a beer!
