                               Psi4 1.3.2 release

  ==> Input File <==

--------------------------------------------------------------------------
#psi4
#
memory 32 gb

molecule  {
0 1
  O       -1.7956590    -0.0045330     0.2925540
  C        0.5176150     0.0064930    -0.4337930
  C        1.6143289     0.8351406     0.2414603
  C        0.5838050    -1.4460010     0.0098110
  C       -0.8834091     0.5347790    -0.2500562
  H        0.7003720     0.0729440    -1.5172860
  H        1.4879930     1.9288570    -0.0538080
  H        2.5672940     0.5309070     0.0461510
  H        1.4157060     0.8510730     1.3520620
  H        1.5722370    -1.8650000    -0.1966570
  H       -0.1668510    -2.0488350    -0.5051420
  H        0.3905920    -1.5243500     1.0824380
  H       -0.9679480     1.6539330    -0.5206060
units angstrom
no_reorient  #important for SAPT in psi4, default
symmetry c1  #important for SAPT in psi4, default
}

set PROPERTIES_ORIGIN ["COM"]
properties('MP2/aug-cc-pvtz', properties = ['dipole'])
--------------------------------------------------------------------------

    Molecular point group: c1
  Charge       = 0
  Multiplicity = 1
  Basis Set: AUG-CC-PVTZ
    Blend: AUG-CC-PVTZ
  Basis Set: (AUG-CC-PVTZ AUX)
    Blend: AUG-CC-PVTZ-JKFIT

    Orbital Energies [Eh]
    ---------------------

    Doubly Occupied:

       1A    -20.562258     2A    -11.333210     3A    -11.248971
       4A    -11.237238     5A    -11.217981     6A     -1.408292
       7A     -1.094993     8A     -0.944763     9A     -0.889267
      10A     -0.753283    11A     -0.681546    12A     -0.650534
      13A     -0.625976    14A     -0.577624    15A     -0.553179
      16A     -0.533931    17A     -0.531271    18A     -0.485348
      19A     -0.481312    20A     -0.413461

  @DF-RHF Final Energy:  -231.06133680992605

   => Energetics <=

    Nuclear Repulsion Energy =            177.5228747766813910
    One-Electron Energy =                -664.7195456314900639
    Two-Electron Energy =                 256.1353340448825975
    Total Energy =                       -231.0613368099260470
  Basis Set: (AUG-CC-PVTZ AUX)
    Blend: AUG-CC-PVTZ-RI
    Molecular point group: c1

    Geometry (in Angstrom), charge = 0, multiplicity = 1:

       Center              X                  Y                   Z               Mass
    ------------   -----------------  -----------------  -----------------  -----------------
         O           -1.800111425277     0.013663165226     0.304028925210    15.994914619570
         C            0.513162574723     0.024689165226    -0.422318074790    12.000000000000
         C            1.609876474723     0.853336765226     0.252935225210    12.000000000000
         C            0.579352574723    -1.427804834774     0.021285925210    12.000000000000
         C           -0.887861525277     0.552975165226    -0.238581274790    12.000000000000
         H            0.695919574723     0.091140165226    -1.505811074790     1.007825032230
         H            1.483540574723     1.947053165226    -0.042333074790     1.007825032230
         H            2.562841574723     0.549103165226     0.057625925210     1.007825032230
         H            1.411253574723     0.869269165226     1.363536925210     1.007825032230
         H            1.567784574723    -1.846803834774    -0.185182074790     1.007825032230
         H           -0.171303425277    -2.030638834774    -0.493667074790     1.007825032230
         H            0.386139574723    -1.506153834774     1.093912925210     1.007825032230
         H           -0.972400425277     1.672129165226    -0.509131074790     1.007825032230

  Basis Set: AUG-CC-PVTZ
    Blend: AUG-CC-PVTZ
  Basis Set: (AUG-CC-PVTZ AUX)
    Blend: AUG-CC-PVTZ-JKFIT
	 Reference Energy          =    -231.0613368099260470 [Eh]
	 Singles Energy            =      -0.0000000000000000 [Eh]
	 Same-Spin Energy          =      -0.2300989785811835 [Eh]
	 Opposite-Spin Energy      =      -0.7935302560612085 [Eh]
	 Correlation Energy        =      -1.0236292346423921 [Eh]
	 Total Energy              =    -232.0849660445684322 [Eh]

	 ================> DF-SCS-MP2 Energies <==================
	-----------------------------------------------------------
	 SCS Same-Spin Scale       =       0.3333333333333333 [-]
	 SCS Opposite-Spin Scale   =       1.2000000000000000 [-]
	 SCS Same-Spin Energy      =      -0.0766996595270612 [Eh]
	 SCS Opposite-Spin Energy  =      -0.9522363072734502 [Eh]
	 SCS Correlation Energy    =      -1.0289359668005114 [Eh]
	 SCS Total Energy          =    -232.0902727767265503 [Eh]
	-----------------------------------------------------------

  Dipole Moment: [D]
     X:     2.3678      Y:     0.6728      Z:    -0.9465     Total:     2.6372

*** Psi4 exiting successfully. Buy a developer a beer!
