                               Psi4 1.3.2 release

  ==> Input File <==

--------------------------------------------------------------------------
#psi4
#
memory 32 gb

molecule  {
0 1
  O       -1.8309343     0.0484359     0.2853760
  C        0.5399352     0.0757278    -0.4645490
  C        1.5574320     0.8851440     0.2677470
  C        0.5838050    -1.4460010     0.0098110
  C       -0.8532490     0.5940380    -0.2074380
  H        0.7003720     0.0729440    -1.5172860
  H        1.4879930     1.9288570    -0.0538080
  H        2.5672940     0.5309070     0.0461510
  H        1.4157060     0.8510730     1.3520620
  H        1.5722370    -1.8650000    -0.1966570
  H       -0.1668510    -2.0488350    -0.5051420
  H        0.3905920    -1.5243500     1.0824380
  H       -0.9679480     1.6539330    -0.5206060
units angstrom
no_reorient  #important for SAPT in psi4, default
symmetry c1  #important for SAPT in psi4, default
}

set PROPERTIES_ORIGIN ["COM"]
properties('MP2/aug-cc-pvtz', properties = ['dipole'])
--------------------------------------------------------------------------

    Molecular point group: c1
  Charge       = 0
  Multiplicity = 1
  Basis Set: AUG-CC-PVTZ
    Blend: AUG-CC-PVTZ
  Basis Set: (AUG-CC-PVTZ AUX)
    Blend: AUG-CC-PVTZ-JKFIT

    Orbital Energies [Eh]
    ---------------------

    Doubly Occupied:

       1A    -20.560654     2A    -11.332836     3A    -11.251044
       4A    -11.235378     5A    -11.222660     6A     -1.383693
       7A     -1.097685     8A     -0.942060     9A     -0.892031
      10A     -0.764775    11A     -0.681370    12A     -0.642170
      13A     -0.623430    14A     -0.573322    15A     -0.551401
      16A     -0.532402    17A     -0.522259    18A     -0.496879
      19A     -0.478906    20A     -0.415214

  @DF-RHF Final Energy:  -231.06423577007402

   => Energetics <=

    Nuclear Repulsion Energy =            176.4924449685153718
    One-Electron Energy =                -662.7130212216649170
    Two-Electron Energy =                 255.1563404830755246
    Total Energy =                       -231.0642357700740206
  Basis Set: (AUG-CC-PVTZ AUX)
    Blend: AUG-CC-PVTZ-RI
    Molecular point group: c1

    Geometry (in Angstrom), charge = 0, multiplicity = 1:

       Center              X                  Y                   Z               Mass
    ------------   -----------------  -----------------  -----------------  -----------------
         O           -1.826821003676     0.025148544207     0.292091181505    15.994914619570
         C            0.544048496324     0.052440444207    -0.457833818495    12.000000000000
         C            1.561545296324     0.861856644207     0.274462181505    12.000000000000
         C            0.587918296324    -1.469288355793     0.016526181505    12.000000000000
         C           -0.849135703676     0.570750644207    -0.200722818495    12.000000000000
         H            0.704485296324     0.049656644207    -1.510570818495     1.007825032230
         H            1.492106296324     1.905569644207    -0.047092818495     1.007825032230
         H            2.571407296324     0.507619644207     0.052866181505     1.007825032230
         H            1.419819296324     0.827785644207     1.358777181505     1.007825032230
         H            1.576350296324    -1.888287355793    -0.189941818495     1.007825032230
         H           -0.162737703676    -2.072122355793    -0.498426818495     1.007825032230
         H            0.394705296324    -1.547637355793     1.089153181505     1.007825032230
         H           -0.963834703676     1.630645644207    -0.513890818495     1.007825032230

  Basis Set: AUG-CC-PVTZ
    Blend: AUG-CC-PVTZ
  Basis Set: (AUG-CC-PVTZ AUX)
    Blend: AUG-CC-PVTZ-JKFIT
	 Reference Energy          =    -231.0642357700740206 [Eh]
	 Singles Energy            =      -0.0000000000000000 [Eh]
	 Same-Spin Energy          =      -0.2304537577605056 [Eh]
	 Opposite-Spin Energy      =      -0.7949406576313827 [Eh]
	 Correlation Energy        =      -1.0253944153918881 [Eh]
	 Total Energy              =    -232.0896301854659214 [Eh]

	 ================> DF-SCS-MP2 Energies <==================
	-----------------------------------------------------------
	 SCS Same-Spin Scale       =       0.3333333333333333 [-]
	 SCS Opposite-Spin Scale   =       1.2000000000000000 [-]
	 SCS Same-Spin Energy      =      -0.0768179192535018 [Eh]
	 SCS Opposite-Spin Energy  =      -0.9539287891576591 [Eh]
	 SCS Correlation Energy    =      -1.0307467084111610 [Eh]
	 SCS Total Energy          =    -232.0949824784851785 [Eh]
	-----------------------------------------------------------

  Dipole Moment: [D]
     X:     2.5358      Y:     0.7563      Z:    -0.9862     Total:     2.8240

*** Psi4 exiting successfully. Buy a developer a beer!
