                               Psi4 1.3.2 release

  ==> Input File <==

--------------------------------------------------------------------------
#psi4
#
memory 32 gb

molecule  {
0 1
  O       -1.7956590    -0.0045330     0.2925540
  C        0.5092358    -0.0163462    -0.4237249
  C        1.5574320     0.8851440     0.2677470
  C        0.5838050    -1.4460010     0.0098110
  C       -0.8532490     0.5940380    -0.2074380
  H        0.7003720     0.0729440    -1.5172860
  H        1.4879930     1.9288570    -0.0538080
  H        2.5672940     0.5309070     0.0461510
  H        1.4157060     0.8510730     1.3520620
  H        1.5722370    -1.8650000    -0.1966570
  H       -0.1668510    -2.0488350    -0.5051420
  H        0.3905920    -1.5243500     1.0824380
  H       -0.9864439     1.6534709    -0.5147954
units angstrom
no_reorient  #important for SAPT in psi4, default
symmetry c1  #important for SAPT in psi4, default
}

set PROPERTIES_ORIGIN ["COM"]
properties('MP2/aug-cc-pvtz', properties = ['dipole'])
--------------------------------------------------------------------------

    Molecular point group: c1
  Charge       = 0
  Multiplicity = 1
  Basis Set: AUG-CC-PVTZ
    Blend: AUG-CC-PVTZ
  Basis Set: (AUG-CC-PVTZ AUX)
    Blend: AUG-CC-PVTZ-JKFIT

    Orbital Energies [Eh]
    ---------------------

    Doubly Occupied:

       1A    -20.556654     2A    -11.331440     3A    -11.250537
       4A    -11.236015     5A    -11.218318     6A     -1.382976
       7A     -1.095626     8A     -0.947648     9A     -0.887886
      10A     -0.760057    11A     -0.681453    12A     -0.637883
      13A     -0.626402    14A     -0.566502    15A     -0.551628
      16A     -0.534532    17A     -0.518346    18A     -0.499451
      19A     -0.476184    20A     -0.418638

  @DF-RHF Final Energy:  -231.07040238951700

   => Energetics <=

    Nuclear Repulsion Energy =            177.3513893885269113
    One-Electron Energy =                -664.4872371862311411
    Two-Electron Energy =                 256.0654454081872018
    Total Energy =                       -231.0704023895170280
  Basis Set: (AUG-CC-PVTZ AUX)
    Blend: AUG-CC-PVTZ-RI
    Molecular point group: c1

    Geometry (in Angstrom), charge = 0, multiplicity = 1:

       Center              X                  Y                   Z               Mass
    ------------   -----------------  -----------------  -----------------  -----------------
         O           -1.794004739086    -0.000722741447     0.290795994964    15.994914619570
         C            0.510890060914    -0.012535941447    -0.425482905036    12.000000000000
         C            1.559086260914     0.888954258553     0.265988994964    12.000000000000
         C            0.585459260914    -1.442190741447     0.008052994964    12.000000000000
         C           -0.851594739086     0.597848258553    -0.209196005036    12.000000000000
         H            0.702026260914     0.076754258553    -1.519044005036     1.007825032230
         H            1.489647260914     1.932667258553    -0.055566005036     1.007825032230
         H            2.568948260914     0.534717258553     0.044392994964     1.007825032230
         H            1.417360260914     0.854883258553     1.350303994964     1.007825032230
         H            1.573891260914    -1.861189741447    -0.198415005036     1.007825032230
         H           -0.165196739086    -2.045024741447    -0.506900005036     1.007825032230
         H            0.392246260914    -1.520539741447     1.080679994964     1.007825032230
         H           -0.984789639086     1.657281158553    -0.516553405036     1.007825032230

  Basis Set: AUG-CC-PVTZ
    Blend: AUG-CC-PVTZ
  Basis Set: (AUG-CC-PVTZ AUX)
    Blend: AUG-CC-PVTZ-JKFIT
	 Reference Energy          =    -231.0704023895169996 [Eh]
	 Singles Energy            =      -0.0000000000000000 [Eh]
	 Same-Spin Energy          =      -0.2307090516590512 [Eh]
	 Opposite-Spin Energy      =      -0.7947154618378607 [Eh]
	 Correlation Energy        =      -1.0254245134969120 [Eh]
	 Total Energy              =    -232.0958269030139149 [Eh]

	 ================> DF-SCS-MP2 Energies <==================
	-----------------------------------------------------------
	 SCS Same-Spin Scale       =       0.3333333333333333 [-]
	 SCS Opposite-Spin Scale   =       1.2000000000000000 [-]
	 SCS Same-Spin Energy      =      -0.0769030172196837 [Eh]
	 SCS Opposite-Spin Energy  =      -0.9536585542054328 [Eh]
	 SCS Correlation Energy    =      -1.0305615714251166 [Eh]
	 SCS Total Energy          =    -232.1009639609421242 [Eh]
	-----------------------------------------------------------

  Dipole Moment: [D]
     X:     2.4527      Y:     0.8418      Z:    -0.9962     Total:     2.7779

*** Psi4 exiting successfully. Buy a developer a beer!
