                               Psi4 1.4a3.dev225

  ==> Input File <==

--------------------------------------------------------------------------
#psi4
#
memory 32 gb

molecule  {
0 1
  O       -1.8841100    -0.0754290    -0.2841020
  C        0.4339560     0.0114880     0.4275350
  C        1.5032440    -0.8397350    -0.2682130
  C        0.4423580     1.4601130    -0.0387010
  C       -0.9342681    -0.6400067     0.2160618
  H        0.6252000    -0.0321580     1.5111040
  H        1.4713110    -1.8814970     0.0665680
  H        2.5004740    -0.4466550    -0.0533610
  H        1.3573160    -0.8234960    -1.3527830
  H        1.4146230     1.9201520     0.1587670
  H       -0.3302150     2.0412490     0.4696940
  H        0.2436030     1.5145060    -1.1122270
  H       -0.9884720    -1.6909150     0.5483740
units angstrom
no_reorient  #important for SAPT in psi4, default
symmetry c1  #important for SAPT in psi4, default
}

set PROPERTIES_ORIGIN ["COM"]
properties('MP2/aug-cc-pvtz', properties = ['dipole'])
--------------------------------------------------------------------------

    Molecular point group: c1
  Charge       = 0
  Multiplicity = 1
  Basis Set: AUG-CC-PVTZ
    Blend: AUG-CC-PVTZ
  Basis Set: (AUG-CC-PVTZ AUX)
    Blend: AUG-CC-PVTZ-JKFIT

    Orbital Energies [Eh]
    ---------------------

    Doubly Occupied:

       1A    -20.559128     2A    -11.331337     3A    -11.249389
       4A    -11.234634     5A    -11.218501     6A     -1.390570
       7A     -1.090708     8A     -0.944471     9A     -0.885713
      10A     -0.762231    11A     -0.680495    12A     -0.641649
      13A     -0.623931    14A     -0.567256    15A     -0.550920
      16A     -0.532599    17A     -0.521515    18A     -0.494242
      19A     -0.482839    20A     -0.415652

  @DF-RHF Final Energy:  -231.07206247884579

   => Energetics <=

    Nuclear Repulsion Energy =            176.9978770294136439
    One-Electron Energy =                -663.7843167539418801
    Two-Electron Energy =                 255.7143772456824422
    Total Energy =                       -231.0720624788457940
  Basis Set: (AUG-CC-PVTZ AUX)
    Blend: AUG-CC-PVTZ-RI
    Molecular point group: c1

    Geometry (in Angstrom), charge = 0, multiplicity = 1:

       Center              X                  Y                   Z               Mass
    ------------   -----------------  -----------------  -----------------  -----------------
         O           -1.794603578720    -0.065738428292    -0.280410367533    15.994914619570
         C            0.523462421280     0.021178571708     0.431226632467    12.000000000000
         C            1.592750421280    -0.830044428292    -0.264521367533    12.000000000000
         C            0.531864421280     1.469803571708    -0.035009367533    12.000000000000
         C           -0.844761678720    -0.630316128292     0.219753432467    12.000000000000
         H            0.714706421280    -0.022467428292     1.514795632467     1.007825032230
         H            1.560817421280    -1.871806428292     0.070259632467     1.007825032230
         H            2.589980421280    -0.436964428292    -0.049669367533     1.007825032230
         H            1.446822421280    -0.813805428292    -1.349091367533     1.007825032230
         H            1.504129421280     1.929842571708     0.162458632467     1.007825032230
         H           -0.240708578720     2.050939571708     0.473385632467     1.007825032230
         H            0.333109421280     1.524196571708    -1.108535367533     1.007825032230
         H           -0.898965578720    -1.681224428292     0.552065632467     1.007825032230

  Basis Set: AUG-CC-PVTZ
    Blend: AUG-CC-PVTZ
  Basis Set: (AUG-CC-PVTZ AUX)
    Blend: AUG-CC-PVTZ-JKFIT
	 Reference Energy          =    -231.0720624788457940 [Eh]
	 Singles Energy            =      -0.0000000000000000 [Eh]
	 Same-Spin Energy          =      -0.2301516276793405 [Eh]
	 Opposite-Spin Energy      =      -0.7939427651687282 [Eh]
	 Correlation Energy        =      -1.0240943928480688 [Eh]
	 Total Energy              =    -232.0961568716938643 [Eh]

	 ================> DF-SCS-MP2 Energies <==================
	-----------------------------------------------------------
	 SCS Same-Spin Scale       =       0.3333333333333333 [-]
	 SCS Opposite-Spin Scale   =       1.2000000000000000 [-]
	 SCS Same-Spin Energy      =      -0.0767172092264468 [Eh]
	 SCS Opposite-Spin Energy  =      -0.9527313182024738 [Eh]
	 SCS Correlation Energy    =      -1.0294485274289207 [Eh]
	 SCS Total Energy          =    -232.1015110062747056 [Eh]
	-----------------------------------------------------------

  Dipole Moment: [D]
     X:     2.3878      Y:    -0.7706      Z:     0.9811     Total:     2.6941

*** Psi4 exiting successfully. Buy a developer a beer!
