                               Psi4 1.3.2 release

  ==> Input File <==

--------------------------------------------------------------------------
#psi4
#
memory 32 gb

molecule  {
0 1
  O       -1.7956590    -0.0045330     0.2925540
  C        0.5216481     0.0179801    -0.4388014
  C        1.5574320     0.8851440     0.2677470
  C        0.5838050    -1.4460010     0.0098110
  C       -0.8532490     0.5940380    -0.2074380
  H        0.7003720     0.0729440    -1.5172860
  H        1.4879930     1.9288570    -0.0538080
  H        2.5672940     0.5309070     0.0461510
  H        1.4157060     0.8510730     1.3520620
  H        1.5722370    -1.8650000    -0.1966570
  H       -0.1668510    -2.0488350    -0.5051420
  H        0.3905920    -1.5243500     1.0824380
  H       -0.9586866     1.6540430    -0.5234756
units angstrom
no_reorient  #important for SAPT in psi4, default
symmetry c1  #important for SAPT in psi4, default
}

set PROPERTIES_ORIGIN ["COM"]
properties('MP2/aug-cc-pvtz', properties = ['dipole'])
--------------------------------------------------------------------------

    Molecular point group: c1
  Charge       = 0
  Multiplicity = 1
  Basis Set: AUG-CC-PVTZ
    Blend: AUG-CC-PVTZ
  Basis Set: (AUG-CC-PVTZ AUX)
    Blend: AUG-CC-PVTZ-JKFIT

    Orbital Energies [Eh]
    ---------------------

    Doubly Occupied:

       1A    -20.558807     2A    -11.332383     3A    -11.249044
       4A    -11.235303     5A    -11.219212     6A     -1.383585
       7A     -1.095169     8A     -0.944954     9A     -0.889886
      10A     -0.761294    11A     -0.681208    12A     -0.640220
      13A     -0.624750    14A     -0.568000    15A     -0.551307
      16A     -0.531759    17A     -0.519378    18A     -0.492607
      19A     -0.484493    20A     -0.418422

  @DF-RHF Final Energy:  -231.07103000866999

   => Energetics <=

    Nuclear Repulsion Energy =            177.1951781117716678
    One-Electron Energy =                -664.1688529543569075
    Two-Electron Energy =                 255.9026448339152466
    Total Energy =                       -231.0710300086699931
  Basis Set: (AUG-CC-PVTZ AUX)
    Blend: AUG-CC-PVTZ-RI
    Molecular point group: c1

    Geometry (in Angstrom), charge = 0, multiplicity = 1:

       Center              X                  Y                   Z               Mass
    ------------   -----------------  -----------------  -----------------  -----------------
         O           -1.796460029170    -0.006447226636     0.293428144062    15.994914619570
         C            0.520847070830     0.016065873364    -0.437927255938    12.000000000000
         C            1.556630970830     0.883229773364     0.268621144062    12.000000000000
         C            0.583003970830    -1.447915226636     0.010685144062    12.000000000000
         C           -0.854050029170     0.592123773364    -0.206563855938    12.000000000000
         H            0.699570970830     0.071029773364    -1.516411855938     1.007825032230
         H            1.487191970830     1.926942773364    -0.052933855938     1.007825032230
         H            2.566492970830     0.528992773364     0.047025144062     1.007825032230
         H            1.414904970830     0.849158773364     1.352936144062     1.007825032230
         H            1.571435970830    -1.866914226636    -0.195782855938     1.007825032230
         H           -0.167652029170    -2.050749226636    -0.504267855938     1.007825032230
         H            0.389790970830    -1.526264226636     1.083312144062     1.007825032230
         H           -0.959487629170     1.652128773364    -0.522601455938     1.007825032230

  Basis Set: AUG-CC-PVTZ
    Blend: AUG-CC-PVTZ
  Basis Set: (AUG-CC-PVTZ AUX)
    Blend: AUG-CC-PVTZ-JKFIT
	 Reference Energy          =    -231.0710300086699931 [Eh]
	 Singles Energy            =      -0.0000000000000000 [Eh]
	 Same-Spin Energy          =      -0.2305794339882140 [Eh]
	 Opposite-Spin Energy      =      -0.7946779601364160 [Eh]
	 Correlation Energy        =      -1.0252573941246301 [Eh]
	 Total Energy              =    -232.0962874027946157 [Eh]

	 ================> DF-SCS-MP2 Energies <==================
	-----------------------------------------------------------
	 SCS Same-Spin Scale       =       0.3333333333333333 [-]
	 SCS Opposite-Spin Scale   =       1.2000000000000000 [-]
	 SCS Same-Spin Energy      =      -0.0768598113294047 [Eh]
	 SCS Opposite-Spin Energy  =      -0.9536135521636991 [Eh]
	 SCS Correlation Energy    =      -1.0304733634931038 [Eh]
	 SCS Total Energy          =    -232.1015033721631085 [Eh]
	-----------------------------------------------------------

  Dipole Moment: [D]
     X:     2.4435      Y:     0.8539      Z:    -0.9987     Total:     2.7744

*** Psi4 exiting successfully. Buy a developer a beer!
