                               Psi4 1.3.2 release

  ==> Input File <==

--------------------------------------------------------------------------
#psi4
#
memory 32 gb

molecule  {
0 1
  O       -1.7956590    -0.0045330     0.2925540
  C        0.5176150     0.0064930    -0.4337930
  C        1.5476678     0.8932474     0.2719430
  C        0.5838050    -1.4460010     0.0098110
  C       -0.8478546     0.6037623    -0.2003922
  H        0.7003720     0.0729440    -1.5172860
  H        1.4879930     1.9288570    -0.0538080
  H        2.5672940     0.5309070     0.0461510
  H        1.4157060     0.8510730     1.3520620
  H        1.5722370    -1.8650000    -0.1966570
  H       -0.1668510    -2.0488350    -0.5051420
  H        0.3905920    -1.5243500     1.0824380
  H       -0.9679480     1.6539330    -0.5206060
units angstrom
no_reorient  #important for SAPT in psi4, default
symmetry c1  #important for SAPT in psi4, default
}

set PROPERTIES_ORIGIN ["COM"]
properties('MP2/aug-cc-pvtz', properties = ['dipole'])
--------------------------------------------------------------------------

    Molecular point group: c1
  Charge       = 0
  Multiplicity = 1
  Basis Set: AUG-CC-PVTZ
    Blend: AUG-CC-PVTZ
  Basis Set: (AUG-CC-PVTZ AUX)
    Blend: AUG-CC-PVTZ-JKFIT

    Orbital Energies [Eh]
    ---------------------

    Doubly Occupied:

       1A    -20.557552     2A    -11.332111     3A    -11.249777
       4A    -11.235515     5A    -11.219146     6A     -1.379075
       7A     -1.095434     8A     -0.946305     9A     -0.889356
      10A     -0.762300    11A     -0.681340    12A     -0.637466
      13A     -0.625815    14A     -0.568162    15A     -0.548840
      16A     -0.532055    17A     -0.517142    18A     -0.496545
      19A     -0.481316    20A     -0.419036

  @DF-RHF Final Energy:  -231.07023091250406

   => Energetics <=

    Nuclear Repulsion Energy =            177.1988035216935486
    One-Electron Energy =                -664.1894971651245214
    Two-Electron Energy =                 255.9204627309269142
    Total Energy =                       -231.0702309125040586
  Basis Set: (AUG-CC-PVTZ AUX)
    Blend: AUG-CC-PVTZ-RI
    Molecular point group: c1

    Geometry (in Angstrom), charge = 0, multiplicity = 1:

       Center              X                  Y                   Z               Mass
    ------------   -----------------  -----------------  -----------------  -----------------
         O           -1.794931130055    -0.007501611309     0.290681803795    15.994914619570
         C            0.518342869945     0.003524388691    -0.435665196205    12.000000000000
         C            1.548395669945     0.890278788691     0.270070803795    12.000000000000
         C            0.584532869945    -1.448969611309     0.007938803795    12.000000000000
         C           -0.847126730055     0.600793688691    -0.202264396205    12.000000000000
         H            0.701099869945     0.069975388691    -1.519158196205     1.007825032230
         H            1.488720869945     1.925888388691    -0.055680196205     1.007825032230
         H            2.568021869945     0.527938388691     0.044278803795     1.007825032230
         H            1.416433869945     0.848104388691     1.350189803795     1.007825032230
         H            1.572964869945    -1.867968611309    -0.198529196205     1.007825032230
         H           -0.166123130055    -2.051803611309    -0.507014196205     1.007825032230
         H            0.391319869945    -1.527318611309     1.080565803795     1.007825032230
         H           -0.967220130055     1.650964388691    -0.522478196205     1.007825032230

  Basis Set: AUG-CC-PVTZ
    Blend: AUG-CC-PVTZ
  Basis Set: (AUG-CC-PVTZ AUX)
    Blend: AUG-CC-PVTZ-JKFIT
	 Reference Energy          =    -231.0702309125040586 [Eh]
	 Singles Energy            =      -0.0000000000000000 [Eh]
	 Same-Spin Energy          =      -0.2307713004881239 [Eh]
	 Opposite-Spin Energy      =      -0.7950495443479655 [Eh]
	 Correlation Energy        =      -1.0258208448360895 [Eh]
	 Total Energy              =    -232.0960517573401489 [Eh]

	 ================> DF-SCS-MP2 Energies <==================
	-----------------------------------------------------------
	 SCS Same-Spin Scale       =       0.3333333333333333 [-]
	 SCS Opposite-Spin Scale   =       1.2000000000000000 [-]
	 SCS Same-Spin Energy      =      -0.0769237668293746 [Eh]
	 SCS Opposite-Spin Energy  =      -0.9540594532175586 [Eh]
	 SCS Correlation Energy    =      -1.0309832200469331 [Eh]
	 SCS Total Energy          =    -232.1012141325509788 [Eh]
	-----------------------------------------------------------

  Dipole Moment: [D]
     X:     2.4574      Y:     0.8746      Z:    -1.0059     Total:     2.7957

*** Psi4 exiting successfully. Buy a developer a beer!
