                               Psi4 1.4a3.dev225

  ==> Input File <==

--------------------------------------------------------------------------
#psi4
#
memory 32 gb

molecule  {
0 1
  O       -1.8841100    -0.0754290    -0.2841020
  C        0.4339560     0.0114880     0.4275350
  C        1.5032440    -0.8397350    -0.2682130
  C        0.4423580     1.4601130    -0.0387010
  C       -0.9559092    -0.6087795     0.1982847
  H        0.6252000    -0.0321580     1.5111040
  H        1.4713110    -1.8814970     0.0665680
  H        2.5004740    -0.4466550    -0.0533610
  H        1.3573160    -0.8234960    -1.3527830
  H        1.4146230     1.9201520     0.1587670
  H       -0.3302150     2.0412490     0.4696940
  H        0.2436030     1.5145060    -1.1122270
  H       -0.9884720    -1.6909150     0.5483740
units angstrom
no_reorient  #important for SAPT in psi4, default
symmetry c1  #important for SAPT in psi4, default
}

set PROPERTIES_ORIGIN ["COM"]
properties('MP2/aug-cc-pvtz', properties = ['dipole'])
--------------------------------------------------------------------------

    Molecular point group: c1
  Charge       = 0
  Multiplicity = 1
  Basis Set: AUG-CC-PVTZ
    Blend: AUG-CC-PVTZ
  Basis Set: (AUG-CC-PVTZ AUX)
    Blend: AUG-CC-PVTZ-JKFIT

    Orbital Energies [Eh]
    ---------------------

    Doubly Occupied:

       1A    -20.561230     2A    -11.329049     3A    -11.247940
       4A    -11.233713     5A    -11.217960     6A     -1.418498
       7A     -1.088999     8A     -0.943747     9A     -0.879301
      10A     -0.756338    11A     -0.683396    12A     -0.651081
      13A     -0.624961    14A     -0.569420    15A     -0.551136
      16A     -0.535193    17A     -0.533053    18A     -0.493890
      19A     -0.486050    20A     -0.407473

  @DF-RHF Final Energy:  -231.07228061948649

   => Energetics <=

    Nuclear Repulsion Energy =            177.4990667454572133
    One-Electron Energy =                -664.7178415627558934
    Two-Electron Energy =                 256.1464941978122170
    Total Energy =                       -231.0722806194864916
  Basis Set: (AUG-CC-PVTZ AUX)
    Blend: AUG-CC-PVTZ-RI
    Molecular point group: c1

    Geometry (in Angstrom), charge = 0, multiplicity = 1:

       Center              X                  Y                   Z               Mass
    ------------   -----------------  -----------------  -----------------  -----------------
         O           -1.790999607636    -0.070938807470    -0.277449882421    15.994914619570
         C            0.527066392364     0.015978192530     0.434187117579    12.000000000000
         C            1.596354392364    -0.835244807470    -0.261560882421    12.000000000000
         C            0.535468392364     1.464603192530    -0.032048882421    12.000000000000
         C           -0.862798807636    -0.604289307470     0.204936817579    12.000000000000
         H            0.718310392364    -0.027667807470     1.517756117579     1.007825032230
         H            1.564421392364    -1.877006807470     0.073220117579     1.007825032230
         H            2.593584392364    -0.442164807470    -0.046708882421     1.007825032230
         H            1.450426392364    -0.819005807470    -1.346130882421     1.007825032230
         H            1.507733392364     1.924642192530     0.165419117579     1.007825032230
         H           -0.237104607636     2.045739192530     0.476346117579     1.007825032230
         H            0.336713392364     1.518996192530    -1.105574882421     1.007825032230
         H           -0.895361607636    -1.686424807470     0.555026117579     1.007825032230

  Basis Set: AUG-CC-PVTZ
    Blend: AUG-CC-PVTZ
  Basis Set: (AUG-CC-PVTZ AUX)
    Blend: AUG-CC-PVTZ-JKFIT
	 Reference Energy          =    -231.0722806194864916 [Eh]
	 Singles Energy            =      -0.0000000000000000 [Eh]
	 Same-Spin Energy          =      -0.2292865486733053 [Eh]
	 Opposite-Spin Energy      =      -0.7917653454657589 [Eh]
	 Correlation Energy        =      -1.0210518941390643 [Eh]
	 Total Energy              =    -232.0933325136255689 [Eh]

	 ================> DF-SCS-MP2 Energies <==================
	-----------------------------------------------------------
	 SCS Same-Spin Scale       =       0.3333333333333333 [-]
	 SCS Opposite-Spin Scale   =       1.2000000000000000 [-]
	 SCS Same-Spin Energy      =      -0.0764288495577684 [Eh]
	 SCS Opposite-Spin Energy  =      -0.9501184145589107 [Eh]
	 SCS Correlation Energy    =      -1.0265472641166791 [Eh]
	 SCS Total Energy          =    -232.0988278836031782 [Eh]
	-----------------------------------------------------------

  Dipole Moment: [D]
     X:     2.2680      Y:    -0.6400      Z:     0.9007     Total:     2.5229

*** Psi4 exiting successfully. Buy a developer a beer!
