                               Psi4 1.4a3.dev225

  ==> Input File <==

--------------------------------------------------------------------------
#psi4
#
memory 32 gb

molecule  {
0 1
  O       -1.8841100    -0.0754290    -0.2841020
  C        0.4339560     0.0114880     0.4275350
  C        1.5032440    -0.8397350    -0.2682130
  C        0.4423580     1.4601130    -0.0387010
  C       -0.9163840    -0.6314910     0.2188260
  H        0.6252000    -0.0321580     1.5111040
  H        1.4713110    -1.8814970     0.0665680
  H        2.5004740    -0.4466550    -0.0533610
  H        1.3573160    -0.8234960    -1.3527830
  H        1.4146230     1.9201520     0.1587670
  H       -0.3302150     2.0412490     0.4696940
  H        0.2436030     1.5145060    -1.1122270
  H       -0.9871753    -1.6718578     0.5424460
units angstrom
no_reorient  #important for SAPT in psi4, default
symmetry c1  #important for SAPT in psi4, default
}

set PROPERTIES_ORIGIN ["COM"]
properties('MP2/aug-cc-pvtz', properties = ['dipole'])
--------------------------------------------------------------------------

    Molecular point group: c1
  Charge       = 0
  Multiplicity = 1
  Basis Set: AUG-CC-PVTZ
    Blend: AUG-CC-PVTZ
  Basis Set: (AUG-CC-PVTZ AUX)
    Blend: AUG-CC-PVTZ-JKFIT

    Orbital Energies [Eh]
    ---------------------

    Doubly Occupied:

       1A    -20.557648     2A    -11.330065     3A    -11.249606
       4A    -11.235840     5A    -11.219039     6A     -1.382436
       7A     -1.094280     8A     -0.945516     9A     -0.890440
      10A     -0.763618    11A     -0.681754    12A     -0.639046
      13A     -0.624770    14A     -0.567272    15A     -0.551368
      16A     -0.532160    17A     -0.518636    18A     -0.494939
      19A     -0.481415    20A     -0.419091

  @DF-RHF Final Energy:  -231.07127901635840

   => Energetics <=

    Nuclear Repulsion Energy =            177.1831103455413938
    One-Electron Energy =                -664.1509020175900559
    Two-Electron Energy =                 255.8965126556902305
    Total Energy =                       -231.0712790163584032
  Basis Set: (AUG-CC-PVTZ AUX)
    Blend: AUG-CC-PVTZ-RI
    Molecular point group: c1

    Geometry (in Angstrom), charge = 0, multiplicity = 1:

       Center              X                  Y                   Z               Mass
    ------------   -----------------  -----------------  -----------------  -----------------
         O           -1.797600019092    -0.067423120352    -0.280787788448    15.994914619570
         C            0.520465980908     0.019493879648     0.430849211552    12.000000000000
         C            1.589753980908    -0.831729120352    -0.264898788448    12.000000000000
         C            0.528867980908     1.468118879648    -0.035386788448    12.000000000000
         C           -0.829874019092    -0.623485120352     0.222140211552    12.000000000000
         H            0.711709980908    -0.024152120352     1.514418211552     1.007825032230
         H            1.557820980908    -1.873491120352     0.069882211552     1.007825032230
         H            2.586983980908    -0.438649120352    -0.050046788448     1.007825032230
         H            1.443825980908    -0.815490120352    -1.349468788448     1.007825032230
         H            1.501132980908     1.928157879648     0.162081211552     1.007825032230
         H           -0.243705019092     2.049254879648     0.473008211552     1.007825032230
         H            0.330112980908     1.522511879648    -1.108912788448     1.007825032230
         H           -0.900665319092    -1.663851920352     0.545760211552     1.007825032230

  Basis Set: AUG-CC-PVTZ
    Blend: AUG-CC-PVTZ
  Basis Set: (AUG-CC-PVTZ AUX)
    Blend: AUG-CC-PVTZ-JKFIT
	 Reference Energy          =    -231.0712790163584032 [Eh]
	 Singles Energy            =      -0.0000000000000000 [Eh]
	 Same-Spin Energy          =      -0.2305153106884011 [Eh]
	 Opposite-Spin Energy      =      -0.7945768417983021 [Eh]
	 Correlation Energy        =      -1.0250921524867032 [Eh]
	 Total Energy              =    -232.0963711688451099 [Eh]

	 ================> DF-SCS-MP2 Energies <==================
	-----------------------------------------------------------
	 SCS Same-Spin Scale       =       0.3333333333333333 [-]
	 SCS Opposite-Spin Scale   =       1.2000000000000000 [-]
	 SCS Same-Spin Energy      =      -0.0768384368961337 [Eh]
	 SCS Opposite-Spin Energy  =      -0.9534922101579625 [Eh]
	 SCS Correlation Energy    =      -1.0303306470540963 [Eh]
	 SCS Total Energy          =    -232.1016096634124892 [Eh]
	-----------------------------------------------------------

  Dipole Moment: [D]
     X:     2.4826      Y:    -0.7688      Z:     1.0033     Total:     2.7859

*** Psi4 exiting successfully. Buy a developer a beer!
