                               Psi4 1.3.2 release

  ==> Input File <==

--------------------------------------------------------------------------
#psi4
#
memory 32 gb

molecule  {
0 1
  O       -1.8077094     0.0129481     0.2903127
  C        0.5254758     0.0294016    -0.4441181
  C        1.5574320     0.8851440     0.2677470
  C        0.5838050    -1.4460010     0.0098110
  C       -0.8532490     0.5940380    -0.2074380
  H        0.7003720     0.0729440    -1.5172860
  H        1.4879930     1.9288570    -0.0538080
  H        2.5672940     0.5309070     0.0461510
  H        1.4157060     0.8510730     1.3520620
  H        1.5722370    -1.8650000    -0.1966570
  H       -0.1668510    -2.0488350    -0.5051420
  H        0.3905920    -1.5243500     1.0824380
  H       -0.9679480     1.6539330    -0.5206060
units angstrom
no_reorient  #important for SAPT in psi4, default
symmetry c1  #important for SAPT in psi4, default
}

set PROPERTIES_ORIGIN ["COM"]
properties('MP2/aug-cc-pvtz', properties = ['dipole'])
--------------------------------------------------------------------------

    Molecular point group: c1
  Charge       = 0
  Multiplicity = 1
  Basis Set: AUG-CC-PVTZ
    Blend: AUG-CC-PVTZ
  Basis Set: (AUG-CC-PVTZ AUX)
    Blend: AUG-CC-PVTZ-JKFIT

    Orbital Energies [Eh]
    ---------------------

    Doubly Occupied:

       1A    -20.558954     2A    -11.332229     3A    -11.249824
       4A    -11.235438     5A    -11.220231     6A     -1.383413
       7A     -1.095769     8A     -0.944537     9A     -0.890133
      10A     -0.762055    11A     -0.681328    12A     -0.640252
      13A     -0.624607    14A     -0.568893    15A     -0.551363
      16A     -0.532068    17A     -0.519958    18A     -0.490645
      19A     -0.487044    20A     -0.417964

  @DF-RHF Final Energy:  -231.07055069059649

   => Energetics <=

    Nuclear Repulsion Energy =            176.9859145360832997
    One-Electron Energy =                -663.7395150978494485
    Two-Electron Energy =                 255.6830498711696293
    Total Energy =                       -231.0705506905964910
  Basis Set: (AUG-CC-PVTZ AUX)
    Blend: AUG-CC-PVTZ-RI
    Molecular point group: c1

    Geometry (in Angstrom), charge = 0, multiplicity = 1:

       Center              X                  Y                   Z               Mass
    ------------   -----------------  -----------------  -----------------  -----------------
         O           -1.806343457548     0.005252993439     0.292529629025    15.994914619570
         C            0.526841742452     0.021706493439    -0.441901170975    12.000000000000
         C            1.558797942452     0.877448893439     0.269963929025    12.000000000000
         C            0.585170942452    -1.453696106561     0.012027929025    12.000000000000
         C           -0.851883057548     0.586342893439    -0.205221070975    12.000000000000
         H            0.701737942452     0.065248893439    -1.515069070975     1.007825032230
         H            1.489358942452     1.921161893439    -0.051591070975     1.007825032230
         H            2.568659942452     0.523211893439     0.048367929025     1.007825032230
         H            1.417071942452     0.843377893439     1.354278929025     1.007825032230
         H            1.573602942452    -1.872695106561    -0.194440070975     1.007825032230
         H           -0.165485057548    -2.056530106561    -0.502925070975     1.007825032230
         H            0.391957942452    -1.532045106561     1.084654929025     1.007825032230
         H           -0.966582057548     1.646237893439    -0.518389070975     1.007825032230

  Basis Set: AUG-CC-PVTZ
    Blend: AUG-CC-PVTZ
  Basis Set: (AUG-CC-PVTZ AUX)
    Blend: AUG-CC-PVTZ-JKFIT
	 Reference Energy          =    -231.0705506905964910 [Eh]
	 Singles Energy            =      -0.0000000000000000 [Eh]
	 Same-Spin Energy          =      -0.2304907413782940 [Eh]
	 Opposite-Spin Energy      =      -0.7946279938225069 [Eh]
	 Correlation Energy        =      -1.0251187352008009 [Eh]
	 Total Energy              =    -232.0956694257972970 [Eh]

	 ================> DF-SCS-MP2 Energies <==================
	-----------------------------------------------------------
	 SCS Same-Spin Scale       =       0.3333333333333333 [-]
	 SCS Opposite-Spin Scale   =       1.2000000000000000 [-]
	 SCS Same-Spin Energy      =      -0.0768302471260980 [Eh]
	 SCS Opposite-Spin Energy  =      -0.9535535925870082 [Eh]
	 SCS Correlation Energy    =      -1.0303838397131062 [Eh]
	 SCS Total Energy          =    -232.1009345303095870 [Eh]
	-----------------------------------------------------------

  Dipole Moment: [D]
     X:     2.4769      Y:     0.8200      Z:    -0.9954     Total:     2.7925

*** Psi4 exiting successfully. Buy a developer a beer!
