                               Psi4 1.4a3.dev225

  ==> Input File <==

--------------------------------------------------------------------------
#psi4
#
memory 32 gb

molecule  {
0 1
  O       -1.8841100    -0.0754290    -0.2841020
  C        0.4339560     0.0114880     0.4275350
  C        1.5032440    -0.8397350    -0.2682130
  C        0.4423580     1.4601130    -0.0387010
  C       -0.9163840    -0.6314910     0.2188260
  H        0.6252000    -0.0321580     1.5111040
  H        1.4713110    -1.8814970     0.0665680
  H        2.5004740    -0.4466550    -0.0533610
  H        1.3573160    -0.8234960    -1.3527830
  H        1.4146230     1.9201520     0.1587670
  H       -0.3302150     2.0412490     0.4696940
  H        0.2436030     1.5145060    -1.1122270
  H       -0.9917138    -1.7385580     0.5631940
units angstrom
no_reorient  #important for SAPT in psi4, default
symmetry c1  #important for SAPT in psi4, default
}

set PROPERTIES_ORIGIN ["COM"]
properties('MP2/aug-cc-pvtz', properties = ['dipole'])
--------------------------------------------------------------------------

    Molecular point group: c1
  Charge       = 0
  Multiplicity = 1
  Basis Set: AUG-CC-PVTZ
    Blend: AUG-CC-PVTZ
  Basis Set: (AUG-CC-PVTZ AUX)
    Blend: AUG-CC-PVTZ-JKFIT

    Orbital Energies [Eh]
    ---------------------

    Doubly Occupied:

       1A    -20.559661     2A    -11.338274     3A    -11.251206
       4A    -11.235960     5A    -11.219917     6A     -1.383766
       7A     -1.094708     8A     -0.945821     9A     -0.885969
      10A     -0.754279    11A     -0.678039    12A     -0.639071
      13A     -0.624858    14A     -0.566634    15A     -0.551340
      16A     -0.532936    17A     -0.519652    18A     -0.495319
      19A     -0.482397    20A     -0.416979

  @DF-RHF Final Energy:  -231.06867550828861

   => Energetics <=

    Nuclear Repulsion Energy =            176.8690378285292581
    One-Electron Energy =                -663.5218605737329653
    Two-Electron Energy =                 255.5841472369151006
    Total Energy =                       -231.0686755082886066
  Basis Set: (AUG-CC-PVTZ AUX)
    Blend: AUG-CC-PVTZ-RI
    Molecular point group: c1

    Geometry (in Angstrom), charge = 0, multiplicity = 1:

       Center              X                  Y                   Z               Mass
    ------------   -----------------  -----------------  -----------------  -----------------
         O           -1.797536541828    -0.066490224855    -0.281077978219    15.994914619570
         C            0.520529458172     0.020426775145     0.430559021781    12.000000000000
         C            1.589817458172    -0.830796224855    -0.265188978219    12.000000000000
         C            0.528931458172     1.469051775145    -0.035676978219    12.000000000000
         C           -0.829810541828    -0.622552224855     0.221850021781    12.000000000000
         H            0.711773458172    -0.023219224855     1.514128021781     1.007825032230
         H            1.557884458172    -1.872558224855     0.069592021781     1.007825032230
         H            2.587047458172    -0.437716224855    -0.050336978219     1.007825032230
         H            1.443889458172    -0.814557224855    -1.349758978219     1.007825032230
         H            1.501196458172     1.929090775145     0.161791021781     1.007825032230
         H           -0.243641541828     2.050187775145     0.472718021781     1.007825032230
         H            0.330176458172     1.523444775145    -1.109202978219     1.007825032230
         H           -0.905140341828    -1.729619224855     0.566218021781     1.007825032230

  Basis Set: AUG-CC-PVTZ
    Blend: AUG-CC-PVTZ
  Basis Set: (AUG-CC-PVTZ AUX)
    Blend: AUG-CC-PVTZ-JKFIT
	 Reference Energy          =    -231.0686755082886066 [Eh]
	 Singles Energy            =      -0.0000000000000000 [Eh]
	 Same-Spin Energy          =      -0.2308020578893232 [Eh]
	 Opposite-Spin Energy      =      -0.7952108188909588 [Eh]
	 Correlation Energy        =      -1.0260128767802821 [Eh]
	 Total Energy              =    -232.0946883850688778 [Eh]

	 ================> DF-SCS-MP2 Energies <==================
	-----------------------------------------------------------
	 SCS Same-Spin Scale       =       0.3333333333333333 [-]
	 SCS Opposite-Spin Scale   =       1.2000000000000000 [-]
	 SCS Same-Spin Energy      =      -0.0769340192964411 [Eh]
	 SCS Opposite-Spin Energy  =      -0.9542529826691505 [Eh]
	 SCS Correlation Energy    =      -1.0311870019655915 [Eh]
	 SCS Total Energy          =    -232.0998625102542121 [Eh]
	-----------------------------------------------------------

  Dipole Moment: [D]
     X:     2.4870      Y:    -0.6757      Z:     0.9705     Total:     2.7538

*** Psi4 exiting successfully. Buy a developer a beer!
