                               Psi4 1.3.2 release

  ==> Input File <==

--------------------------------------------------------------------------
#psi4
#
memory 32 gb

molecule  {
0 1
  O       -1.7956590    -0.0045330     0.2925540
  C        0.5176150     0.0064930    -0.4337930
  C        1.5574320     0.8851440     0.2677470
  C        0.5838050    -1.4460010     0.0098110
  C       -1.0349953     0.6719335    -0.1774283
  H        0.7003720     0.0729440    -1.5172860
  H        1.4879930     1.9288570    -0.0538080
  H        2.5672940     0.5309070     0.0461510
  H        1.4157060     0.8510730     1.3520620
  H        1.5722370    -1.8650000    -0.1966570
  H       -0.1668510    -2.0488350    -0.5051420
  H        0.3905920    -1.5243500     1.0824380
  H       -0.9679480     1.6539330    -0.5206060
units angstrom
no_reorient  #important for SAPT in psi4, default
symmetry c1  #important for SAPT in psi4, default
}

set PROPERTIES_ORIGIN ["COM"]
properties('MP2/aug-cc-pvtz', properties = ['dipole'])
--------------------------------------------------------------------------

    Molecular point group: c1
  Charge       = 0
  Multiplicity = 1
  Basis Set: AUG-CC-PVTZ
    Blend: AUG-CC-PVTZ
  Basis Set: (AUG-CC-PVTZ AUX)
    Blend: AUG-CC-PVTZ-JKFIT

    Orbital Energies [Eh]
    ---------------------

    Doubly Occupied:

       1A    -20.570684     2A    -11.327459     3A    -11.235876
       4A    -11.223139     5A    -11.210719     6A     -1.463111
       7A     -1.064088     8A     -0.934372     9A     -0.867594
      10A     -0.770052    11A     -0.697416    12A     -0.658792
      13A     -0.617934    14A     -0.576624    15A     -0.552446
      16A     -0.548090    17A     -0.533894    18A     -0.484444
      19A     -0.477515    20A     -0.372897

  @DF-RHF Final Energy:  -231.04113921842523

   => Energetics <=

    Nuclear Repulsion Energy =            176.4746595968901204
    One-Electron Energy =                -662.6573055081659049
    Two-Electron Energy =                 255.1415066928505837
    Total Energy =                       -231.0411392184252293
  Basis Set: (AUG-CC-PVTZ AUX)
    Blend: AUG-CC-PVTZ-RI
    Molecular point group: c1

    Geometry (in Angstrom), charge = 0, multiplicity = 1:

       Center              X                  Y                   Z               Mass
    ------------   -----------------  -----------------  -----------------  -----------------
         O           -1.765391976455    -0.017504920488     0.287556317155    15.994914619570
         C            0.547882023545    -0.006478920488    -0.438790682845    12.000000000000
         C            1.587699023545     0.872172079512     0.262749317155    12.000000000000
         C            0.614072023545    -1.458972920488     0.004813317155    12.000000000000
         C           -1.004728276455     0.658961579512    -0.182425982845    12.000000000000
         H            0.730639023545     0.059972079512    -1.522283682845     1.007825032230
         H            1.518260023545     1.915885079512    -0.058805682845     1.007825032230
         H            2.597561023545     0.517935079512     0.041153317155     1.007825032230
         H            1.445973023545     0.838101079512     1.347064317155     1.007825032230
         H            1.602504023545    -1.877971920488    -0.201654682845     1.007825032230
         H           -0.136583976455    -2.061806920488    -0.510139682845     1.007825032230
         H            0.420859023545    -1.537321920488     1.077440317155     1.007825032230
         H           -0.937680976455     1.640961079512    -0.525603682845     1.007825032230

  Basis Set: AUG-CC-PVTZ
    Blend: AUG-CC-PVTZ
  Basis Set: (AUG-CC-PVTZ AUX)
    Blend: AUG-CC-PVTZ-JKFIT
	 Reference Energy          =    -231.0411392184252293 [Eh]
	 Singles Energy            =      -0.0000000000000000 [Eh]
	 Same-Spin Energy          =      -0.2281269213797590 [Eh]
	 Opposite-Spin Energy      =      -0.7901150066887173 [Eh]
	 Correlation Energy        =      -1.0182419280684762 [Eh]
	 Total Energy              =    -232.0593811464937062 [Eh]

	 ================> DF-SCS-MP2 Energies <==================
	-----------------------------------------------------------
	 SCS Same-Spin Scale       =       0.3333333333333333 [-]
	 SCS Opposite-Spin Scale   =       1.2000000000000000 [-]
	 SCS Same-Spin Energy      =      -0.0760423071265863 [Eh]
	 SCS Opposite-Spin Energy  =      -0.9481380080264606 [Eh]
	 SCS Correlation Energy    =      -1.0241803151530471 [Eh]
	 SCS Total Energy          =    -232.0653195335782755 [Eh]
	-----------------------------------------------------------

  Dipole Moment: [D]
     X:     1.3271      Y:     1.1086      Z:    -0.8269     Total:     1.9167

*** Psi4 exiting successfully. Buy a developer a beer!
