                               Psi4 1.3.2 release

  ==> Input File <==

--------------------------------------------------------------------------
#psi4
#
memory 32 gb

molecule  {
0 1
  O       -1.7834091    -0.0219249     0.2943665
  C        0.5176150     0.0064930    -0.4337930
  C        1.5574320     0.8851440     0.2677470
  C        0.5838050    -1.4460010     0.0098110
  C       -0.8532490     0.5940380    -0.2074380
  H        0.7003720     0.0729440    -1.5172860
  H        1.4879930     1.9288570    -0.0538080
  H        2.5672940     0.5309070     0.0461510
  H        1.4157060     0.8510730     1.3520620
  H        1.5722370    -1.8650000    -0.1966570
  H       -0.1668510    -2.0488350    -0.5051420
  H        0.3905920    -1.5243500     1.0824380
  H       -0.9494887     1.6539971    -0.5265494
units angstrom
no_reorient  #important for SAPT in psi4, default
symmetry c1  #important for SAPT in psi4, default
}

set PROPERTIES_ORIGIN ["COM"]
properties('MP2/aug-cc-pvtz', properties = ['dipole'])
--------------------------------------------------------------------------

    Molecular point group: c1
  Charge       = 0
  Multiplicity = 1
  Basis Set: AUG-CC-PVTZ
    Blend: AUG-CC-PVTZ
  Basis Set: (AUG-CC-PVTZ AUX)
    Blend: AUG-CC-PVTZ-JKFIT

    Orbital Energies [Eh]
    ---------------------

    Doubly Occupied:

       1A    -20.558647     2A    -11.332561     3A    -11.248295
       4A    -11.235177     5A    -11.218175     6A     -1.383804
       7A     -1.094593     8A     -0.945371     9A     -0.889646
      10A     -0.760568    11A     -0.681137    12A     -0.640192
      13A     -0.624873    14A     -0.567200    15A     -0.551257
      16A     -0.531582    17A     -0.518866    18A     -0.494572
      19A     -0.481621    20A     -0.418631

  @DF-RHF Final Energy:  -231.07087695960493

   => Energetics <=

    Nuclear Repulsion Energy =            177.4084535157035418
    One-Electron Energy =                -664.6051216120366689
    Two-Electron Energy =                 256.1257911367282532
    Total Energy =                       -231.0708769596049024
  Basis Set: (AUG-CC-PVTZ AUX)
    Blend: AUG-CC-PVTZ-RI
    Molecular point group: c1

    Geometry (in Angstrom), charge = 0, multiplicity = 1:

       Center              X                  Y                   Z               Mass
    ------------   -----------------  -----------------  -----------------  -----------------
         O           -1.786386290515    -0.018064941730     0.294047240011    15.994914619570
         C            0.514637809485     0.010352958270    -0.434112259989    12.000000000000
         C            1.554454809485     0.889003958270     0.267427740011    12.000000000000
         C            0.580827809485    -1.442141041730     0.009491740011    12.000000000000
         C           -0.856226190515     0.597897958270    -0.207757259989    12.000000000000
         H            0.697394809485     0.076803958270    -1.517605259989     1.007825032230
         H            1.485015809485     1.932716958270    -0.054127259989     1.007825032230
         H            2.564316809485     0.534766958270     0.045831740011     1.007825032230
         H            1.412728809485     0.854932958270     1.351742740011     1.007825032230
         H            1.569259809485    -1.861140041730    -0.196976259989     1.007825032230
         H           -0.169828190515    -2.044975041730    -0.505461259989     1.007825032230
         H            0.387614809485    -1.520490041730     1.082118740011     1.007825032230
         H           -0.952465890515     1.657857058270    -0.526868659989     1.007825032230

  Basis Set: AUG-CC-PVTZ
    Blend: AUG-CC-PVTZ
  Basis Set: (AUG-CC-PVTZ AUX)
    Blend: AUG-CC-PVTZ-JKFIT
	 Reference Energy          =    -231.0708769596049308 [Eh]
	 Singles Energy            =      -0.0000000000000000 [Eh]
	 Same-Spin Energy          =      -0.2306903309407165 [Eh]
	 Opposite-Spin Energy      =      -0.7947722057666055 [Eh]
	 Correlation Energy        =      -1.0254625367073220 [Eh]
	 Total Energy              =    -232.0963394963122539 [Eh]

	 ================> DF-SCS-MP2 Energies <==================
	-----------------------------------------------------------
	 SCS Same-Spin Scale       =       0.3333333333333333 [-]
	 SCS Opposite-Spin Scale   =       1.2000000000000000 [-]
	 SCS Same-Spin Energy      =      -0.0768967769802388 [Eh]
	 SCS Opposite-Spin Energy  =      -0.9537266469199265 [Eh]
	 SCS Correlation Energy    =      -1.0306234239001653 [Eh]
	 SCS Total Energy          =    -232.1015003835050834 [Eh]
	-----------------------------------------------------------

  Dipole Moment: [D]
     X:     2.4094      Y:     0.8870      Z:    -1.0012     Total:     2.7558

*** Psi4 exiting successfully. Buy a developer a beer!
