                               Psi4 1.4a3.dev225

  ==> Input File <==

--------------------------------------------------------------------------
#psi4
#
memory 32 gb

molecule  {
0 1
  O       -1.8841100    -0.0754290    -0.2841020
  C        0.4339560     0.0114880     0.4275350
  C        1.5032440    -0.8397350    -0.2682130
  C        0.4423580     1.4601130    -0.0387010
  C       -0.9610943    -0.6527803     0.2119156
  H        0.6252000    -0.0321580     1.5111040
  H        1.4713110    -1.8814970     0.0665680
  H        2.5004740    -0.4466550    -0.0533610
  H        1.3573160    -0.8234960    -1.3527830
  H        1.4146230     1.9201520     0.1587670
  H       -0.3302150     2.0412490     0.4696940
  H        0.2436030     1.5145060    -1.1122270
  H       -0.9884720    -1.6909150     0.5483740
units angstrom
no_reorient  #important for SAPT in psi4, default
symmetry c1  #important for SAPT in psi4, default
}

set PROPERTIES_ORIGIN ["COM"]
properties('MP2/aug-cc-pvtz', properties = ['dipole'])
--------------------------------------------------------------------------

    Molecular point group: c1
  Charge       = 0
  Multiplicity = 1
  Basis Set: AUG-CC-PVTZ
    Blend: AUG-CC-PVTZ
  Basis Set: (AUG-CC-PVTZ AUX)
    Blend: AUG-CC-PVTZ-JKFIT

    Orbital Energies [Eh]
    ---------------------

    Doubly Occupied:

       1A    -20.560596     2A    -11.329856     3A    -11.248148
       4A    -11.232806     5A    -11.217338     6A     -1.402340
       7A     -1.085502     8A     -0.942806     9A     -0.881215
      10A     -0.764277    11A     -0.680760    12A     -0.645410
      13A     -0.622643    14A     -0.567454    15A     -0.550337
      16A     -0.533128    17A     -0.526320    18A     -0.492931
      19A     -0.483556    20A     -0.410504

  @DF-RHF Final Energy:  -231.07175261797491

   => Energetics <=

    Nuclear Repulsion Energy =            176.8673618946986323
    One-Electron Energy =                -663.5223729118765732
    Two-Electron Energy =                 255.5832583992030038
    Total Energy =                       -231.0717526179749086
  Basis Set: (AUG-CC-PVTZ AUX)
    Blend: AUG-CC-PVTZ-RI
    Molecular point group: c1

    Geometry (in Angstrom), charge = 0, multiplicity = 1:

       Center              X                  Y                   Z               Mass
    ------------   -----------------  -----------------  -----------------  -----------------
         O           -1.790136114076    -0.063611194231    -0.279719885768    15.994914619570
         C            0.527929885924     0.023305805769     0.431917114232    12.000000000000
         C            1.597217885924    -0.827917194231    -0.263830885768    12.000000000000
         C            0.536331885924     1.471930805769    -0.034318885768    12.000000000000
         C           -0.867120414076    -0.640962494231     0.216297714232    12.000000000000
         H            0.719173885924    -0.020340194231     1.515486114232     1.007825032230
         H            1.565284885924    -1.869679194231     0.070950114232     1.007825032230
         H            2.594447885924    -0.434837194231    -0.048978885768     1.007825032230
         H            1.451289885924    -0.811678194231    -1.348400885768     1.007825032230
         H            1.508596885924     1.931969805769     0.163149114232     1.007825032230
         H           -0.236241114076     2.053066805769     0.474076114232     1.007825032230
         H            0.337576885924     1.526323805769    -1.107844885768     1.007825032230
         H           -0.894498114076    -1.679097194231     0.552756114232     1.007825032230

  Basis Set: AUG-CC-PVTZ
    Blend: AUG-CC-PVTZ
  Basis Set: (AUG-CC-PVTZ AUX)
    Blend: AUG-CC-PVTZ-JKFIT
	 Reference Energy          =    -231.0717526179749086 [Eh]
	 Singles Energy            =      -0.0000000000000000 [Eh]
	 Same-Spin Energy          =      -0.2295760062729944 [Eh]
	 Opposite-Spin Energy      =      -0.7929030166484701 [Eh]
	 Correlation Energy        =      -1.0224790229214644 [Eh]
	 Total Energy              =    -232.0942316408963677 [Eh]

	 ================> DF-SCS-MP2 Energies <==================
	-----------------------------------------------------------
	 SCS Same-Spin Scale       =       0.3333333333333333 [-]
	 SCS Opposite-Spin Scale   =       1.2000000000000000 [-]
	 SCS Same-Spin Energy      =      -0.0765253354243315 [Eh]
	 SCS Opposite-Spin Energy  =      -0.9514836199781640 [Eh]
	 SCS Correlation Energy    =      -1.0280089554024954 [Eh]
	 SCS Total Energy          =    -232.0997615733774069 [Eh]
	-----------------------------------------------------------

  Dipole Moment: [D]
     X:     2.2390      Y:    -0.8116      Z:     0.9601     Total:     2.5678

*** Psi4 exiting successfully. Buy a developer a beer!
