                               Psi4 1.3.2 release

  ==> Input File <==

--------------------------------------------------------------------------
#psi4
#
memory 32 gb

molecule  {
0 1
  O       -1.7956590    -0.0045330     0.2925540
  C        0.4912351    -0.0614599    -0.4033943
  C        1.5574320     0.8851440     0.2677470
  C        0.5838050    -1.4460010     0.0098110
  C       -0.8532490     0.5940380    -0.2074380
  H        0.7003720     0.0729440    -1.5172860
  H        1.4879930     1.9288570    -0.0538080
  H        2.5672940     0.5309070     0.0461510
  H        1.4157060     0.8510730     1.3520620
  H        1.5722370    -1.8650000    -0.1966570
  H       -0.1668510    -2.0488350    -0.5051420
  H        0.3905920    -1.5243500     1.0824380
  H       -1.0233083     1.6515787    -0.5028952
units angstrom
no_reorient  #important for SAPT in psi4, default
symmetry c1  #important for SAPT in psi4, default
}

set PROPERTIES_ORIGIN ["COM"]
properties('MP2/aug-cc-pvtz', properties = ['dipole'])
--------------------------------------------------------------------------

    Molecular point group: c1
  Charge       = 0
  Multiplicity = 1
  Basis Set: AUG-CC-PVTZ
    Blend: AUG-CC-PVTZ
  Basis Set: (AUG-CC-PVTZ AUX)
    Blend: AUG-CC-PVTZ-JKFIT

    Orbital Energies [Eh]
    ---------------------

    Doubly Occupied:

       1A    -20.553791     2A    -11.330452     3A    -11.253076
       4A    -11.237085     5A    -11.216998     6A     -1.382310
       7A     -1.097798     8A     -0.951005     9A     -0.885384
      10A     -0.758859    11A     -0.681634    12A     -0.635495
      13A     -0.628654    14A     -0.567268    15A     -0.552101
      16A     -0.540253    17A     -0.517073    18A     -0.503956
      19A     -0.463848    20A     -0.417987

  @DF-RHF Final Energy:  -231.06351461818724

   => Energetics <=

    Nuclear Repulsion Energy =            177.5771878491873395
    One-Electron Energy =                -664.9313501408081493
    Two-Electron Energy =                 256.2906476734335683
    Total Energy =                       -231.0635146181872415
  Basis Set: (AUG-CC-PVTZ AUX)
    Blend: AUG-CC-PVTZ-RI
    Molecular point group: c1

    Geometry (in Angstrom), charge = 0, multiplicity = 1:

       Center              X                  Y                   Z               Mass
    ------------   -----------------  -----------------  -----------------  -----------------
         O           -1.790491416908     0.006816672138     0.287243825285    15.994914619570
         C            0.496402683092    -0.050110227862    -0.408704474715    12.000000000000
         C            1.562599583092     0.896493672138     0.262436825285    12.000000000000
         C            0.588972583092    -1.434651327862     0.004500825285    12.000000000000
         C           -0.848081416908     0.605387672138    -0.212748174715    12.000000000000
         H            0.705539583092     0.084293672138    -1.522596174715     1.007825032230
         H            1.493160583092     1.940206672138    -0.059118174715     1.007825032230
         H            2.572461583092     0.542256672138     0.040840825285     1.007825032230
         H            1.420873583092     0.862422672138     1.346751825285     1.007825032230
         H            1.577404583092    -1.853650327862    -0.201967174715     1.007825032230
         H           -0.161683416908    -2.037485327862    -0.510452174715     1.007825032230
         H            0.395759583092    -1.513000327862     1.077127825285     1.007825032230
         H           -1.018140716908     1.662928372138    -0.508205374715     1.007825032230

  Basis Set: AUG-CC-PVTZ
    Blend: AUG-CC-PVTZ
  Basis Set: (AUG-CC-PVTZ AUX)
    Blend: AUG-CC-PVTZ-JKFIT
	 Reference Energy          =    -231.0635146181872415 [Eh]
	 Singles Energy            =      -0.0000000000000000 [Eh]
	 Same-Spin Energy          =      -0.2311093628019099 [Eh]
	 Opposite-Spin Energy      =      -0.7951899843662148 [Eh]
	 Correlation Energy        =      -1.0262993471681248 [Eh]
	 Total Energy              =    -232.0898139653553756 [Eh]

	 ================> DF-SCS-MP2 Energies <==================
	-----------------------------------------------------------
	 SCS Same-Spin Scale       =       0.3333333333333333 [-]
	 SCS Opposite-Spin Scale   =       1.2000000000000000 [-]
	 SCS Same-Spin Energy      =      -0.0770364542673033 [Eh]
	 SCS Opposite-Spin Energy  =      -0.9542279812394577 [Eh]
	 SCS Correlation Energy    =      -1.0312644355067611 [Eh]
	 SCS Total Energy          =    -232.0947790536939976 [Eh]
	-----------------------------------------------------------

  Dipole Moment: [D]
     X:     2.4648      Y:     0.8207      Z:    -0.9890     Total:     2.7797

*** Psi4 exiting successfully. Buy a developer a beer!
