                               Psi4 1.3.2 release

  ==> Input File <==

--------------------------------------------------------------------------
#psi4
#
memory 32 gb

molecule  {
0 1
  O       -1.7708759    -0.0391291     0.2960262
  C        0.5176150     0.0064930    -0.4337930
  C        1.5574320     0.8851440     0.2677470
  C        0.5838050    -1.4460010     0.0098110
  C       -0.8532490     0.5940380    -0.2074380
  H        0.7003720     0.0729440    -1.5172860
  H        1.4879930     1.9288570    -0.0538080
  H        2.5672940     0.5309070     0.0461510
  H        1.4157060     0.8510730     1.3520620
  H        1.5722370    -1.8650000    -0.1966570
  H       -0.1668510    -2.0488350    -0.5051420
  H        0.3905920    -1.5243500     1.0824380
  H       -0.9310001     1.6537383    -0.5323956
units angstrom
no_reorient  #important for SAPT in psi4, default
symmetry c1  #important for SAPT in psi4, default
}

set PROPERTIES_ORIGIN ["COM"]
properties('MP2/aug-cc-pvtz', properties = ['dipole'])
--------------------------------------------------------------------------

    Molecular point group: c1
  Charge       = 0
  Multiplicity = 1
  Basis Set: AUG-CC-PVTZ
    Blend: AUG-CC-PVTZ
  Basis Set: (AUG-CC-PVTZ AUX)
    Blend: AUG-CC-PVTZ-JKFIT

    Orbital Energies [Eh]
    ---------------------

    Doubly Occupied:

       1A    -20.559193     2A    -11.333076     3A    -11.247079
       4A    -11.234823     5A    -11.217417     6A     -1.384277
       7A     -1.093967     8A     -0.944883     9A     -0.890097
      10A     -0.760253    11A     -0.681009    12A     -0.640964
      13A     -0.624468    14A     -0.567064    15A     -0.551105
      16A     -0.530616    17A     -0.518702    18A     -0.493988
      19A     -0.481389    20A     -0.418528

  @DF-RHF Final Energy:  -231.07015496913485

   => Energetics <=

    Nuclear Repulsion Energy =            177.5761036921977905
    One-Electron Energy =                -664.9467247539407708
    Two-Electron Energy =                 256.3004660926081328
    Total Energy =                       -231.0701549691348760
  Basis Set: (AUG-CC-PVTZ AUX)
    Blend: AUG-CC-PVTZ-RI
    Molecular point group: c1

    Geometry (in Angstrom), charge = 0, multiplicity = 1:

       Center              X                  Y                   Z               Mass
    ------------   -----------------  -----------------  -----------------  -----------------
         O           -1.776893727403    -0.031446632230     0.295420296583    15.994914619570
         C            0.511597172597     0.014175467770    -0.434398903417    12.000000000000
         C            1.551414172597     0.892826467770     0.267141096583    12.000000000000
         C            0.577787172597    -1.438318532230     0.009205096583    12.000000000000
         C           -0.859266827403     0.601720467770    -0.208043903417    12.000000000000
         H            0.694354172597     0.080626467770    -1.517891903417     1.007825032230
         H            1.481975172597     1.936539467770    -0.054413903417     1.007825032230
         H            2.561276172597     0.538589467770     0.045545096583     1.007825032230
         H            1.409688172597     0.858755467770     1.351456096583     1.007825032230
         H            1.566219172597    -1.857317532230    -0.197262903417     1.007825032230
         H           -0.172868827403    -2.041152532230    -0.505747903417     1.007825032230
         H            0.384574172597    -1.516667532230     1.081832096583     1.007825032230
         H           -0.937017927403     1.661420767770    -0.533001503417     1.007825032230

  Basis Set: AUG-CC-PVTZ
    Blend: AUG-CC-PVTZ
  Basis Set: (AUG-CC-PVTZ AUX)
    Blend: AUG-CC-PVTZ-JKFIT
	 Reference Energy          =    -231.0701549691348475 [Eh]
	 Singles Energy            =      -0.0000000000000000 [Eh]
	 Same-Spin Energy          =      -0.2307875356563659 [Eh]
	 Opposite-Spin Energy      =      -0.7949085115894837 [Eh]
	 Correlation Energy        =      -1.0256960472458496 [Eh]
	 Total Energy              =    -232.0958510163806920 [Eh]

	 ================> DF-SCS-MP2 Energies <==================
	-----------------------------------------------------------
	 SCS Same-Spin Scale       =       0.3333333333333333 [-]
	 SCS Opposite-Spin Scale   =       1.2000000000000000 [-]
	 SCS Same-Spin Energy      =      -0.0769291785521220 [Eh]
	 SCS Opposite-Spin Energy  =      -0.9538902139073804 [Eh]
	 SCS Correlation Energy    =      -1.0308193924595024 [Eh]
	 SCS Total Energy          =    -232.1009743615943535 [Eh]
	-----------------------------------------------------------

  Dipole Moment: [D]
     X:     2.3717      Y:     0.9230      Z:    -1.0038     Total:     2.7358

*** Psi4 exiting successfully. Buy a developer a beer!
