                               Psi4 1.3.2 release

  ==> Input File <==

--------------------------------------------------------------------------
#psi4
#
memory 32 gb

molecule  {
0 1
  O       -1.7956590    -0.0045330     0.2925540
  C        0.5176150     0.0064930    -0.4337930
  C        1.5767222     0.8687372     0.2591950
  C        0.5838050    -1.4460010     0.0098110
  C       -0.8637242     0.5744560    -0.2215809
  H        0.7003720     0.0729440    -1.5172860
  H        1.4879930     1.9288570    -0.0538080
  H        2.5672940     0.5309070     0.0461510
  H        1.4157060     0.8510730     1.3520620
  H        1.5722370    -1.8650000    -0.1966570
  H       -0.1668510    -2.0488350    -0.5051420
  H        0.3905920    -1.5243500     1.0824380
  H       -0.9679480     1.6539330    -0.5206060
units angstrom
no_reorient  #important for SAPT in psi4, default
symmetry c1  #important for SAPT in psi4, default
}

set PROPERTIES_ORIGIN ["COM"]
properties('MP2/aug-cc-pvtz', properties = ['dipole'])
--------------------------------------------------------------------------

    Molecular point group: c1
  Charge       = 0
  Multiplicity = 1
  Basis Set: AUG-CC-PVTZ
    Blend: AUG-CC-PVTZ
  Basis Set: (AUG-CC-PVTZ AUX)
    Blend: AUG-CC-PVTZ-JKFIT

    Orbital Energies [Eh]
    ---------------------

    Doubly Occupied:

       1A    -20.559295     2A    -11.332141     3A    -11.249103
       4A    -11.235793     5A    -11.218537     6A     -1.391865
       7A     -1.094943     8A     -0.945179     9A     -0.889046
      10A     -0.758083    11A     -0.681306    12A     -0.643245
      13A     -0.624668    14A     -0.567936    15A     -0.554719
      16A     -0.533160    17A     -0.523066    18A     -0.492113
      19A     -0.482314    20A     -0.417293

  @DF-RHF Final Energy:  -231.07101668872369

   => Energetics <=

    Nuclear Repulsion Energy =            177.3400386713106798
    One-Electron Energy =                -664.4345008212330868
    Two-Electron Energy =                 256.0234454611986621
    Total Energy =                       -231.0710166887237165
  Basis Set: (AUG-CC-PVTZ AUX)
    Blend: AUG-CC-PVTZ-RI
    Molecular point group: c1

    Geometry (in Angstrom), charge = 0, multiplicity = 1:

       Center              X                  Y                   Z               Mass
    ------------   -----------------  -----------------  -----------------  -----------------
         O           -1.797126842747     0.001460646148     0.296333405861    15.994914619570
         C            0.516147157253     0.012486646148    -0.430013594139    12.000000000000
         C            1.575254357253     0.874730846148     0.262974405861    12.000000000000
         C            0.582337157253    -1.440007353852     0.013590405861    12.000000000000
         C           -0.865192042747     0.580449646148    -0.217801494139    12.000000000000
         H            0.698904157253     0.078937646148    -1.513506594139     1.007825032230
         H            1.486525157253     1.934850646148    -0.050028594139     1.007825032230
         H            2.565826157253     0.536900646148     0.049930405861     1.007825032230
         H            1.414238157253     0.857066646148     1.355841405861     1.007825032230
         H            1.570769157253    -1.859006353852    -0.192877594139     1.007825032230
         H           -0.168318842747    -2.042841353852    -0.501362594139     1.007825032230
         H            0.389124157253    -1.518356353852     1.086217405861     1.007825032230
         H           -0.969415842747     1.659926646148    -0.516826594139     1.007825032230

  Basis Set: AUG-CC-PVTZ
    Blend: AUG-CC-PVTZ
  Basis Set: (AUG-CC-PVTZ AUX)
    Blend: AUG-CC-PVTZ-JKFIT
	 Reference Energy          =    -231.0710166887236880 [Eh]
	 Singles Energy            =      -0.0000000000000000 [Eh]
	 Same-Spin Energy          =      -0.2303467910718601 [Eh]
	 Opposite-Spin Energy      =      -0.7940539080778199 [Eh]
	 Correlation Energy        =      -1.0244006991496801 [Eh]
	 Total Energy              =    -232.0954173878733684 [Eh]

	 ================> DF-SCS-MP2 Energies <==================
	-----------------------------------------------------------
	 SCS Same-Spin Scale       =       0.3333333333333333 [-]
	 SCS Opposite-Spin Scale   =       1.2000000000000000 [-]
	 SCS Same-Spin Energy      =      -0.0767822636906200 [Eh]
	 SCS Opposite-Spin Energy  =      -0.9528646896933839 [Eh]
	 SCS Correlation Energy    =      -1.0296469533840040 [Eh]
	 SCS Total Energy          =    -232.1006636421076905 [Eh]
	-----------------------------------------------------------

  Dipole Moment: [D]
     X:     2.4228      Y:     0.7969      Z:    -0.9818     Total:     2.7329

*** Psi4 exiting successfully. Buy a developer a beer!
