                               Psi4 1.3.2 release

  ==> Input File <==

--------------------------------------------------------------------------
#psi4
#
memory 32 gb

molecule  {
0 1
  O       -1.7956590    -0.0045330     0.2925540
  C        0.5176150     0.0064930    -0.4337930
  C        1.5574320     0.8851440     0.2677470
  C        0.5838050    -1.4460010     0.0098110
  C       -0.7762095     0.6429696    -0.2483110
  H        0.7003720     0.0729440    -1.5172860
  H        1.4879930     1.9288570    -0.0538080
  H        2.5672940     0.5309070     0.0461510
  H        1.4157060     0.8510730     1.3520620
  H        1.5722370    -1.8650000    -0.1966570
  H       -0.1668510    -2.0488350    -0.5051420
  H        0.3905920    -1.5243500     1.0824380
  H       -0.9679480     1.6539330    -0.5206060
units angstrom
no_reorient  #important for SAPT in psi4, default
symmetry c1  #important for SAPT in psi4, default
}

set PROPERTIES_ORIGIN ["COM"]
properties('MP2/aug-cc-pvtz', properties = ['dipole'])
--------------------------------------------------------------------------

    Molecular point group: c1
  Charge       = 0
  Multiplicity = 1
  Basis Set: AUG-CC-PVTZ
    Blend: AUG-CC-PVTZ
  Basis Set: (AUG-CC-PVTZ AUX)
    Blend: AUG-CC-PVTZ-JKFIT

    Orbital Energies [Eh]
    ---------------------

    Doubly Occupied:

       1A    -20.552314     2A    -11.339205     3A    -11.253307
       4A    -11.240045     5A    -11.221893     6A     -1.322442
       7A     -1.106552     8A     -0.949977     9A     -0.907057
      10A     -0.772859    11A     -0.682938    12A     -0.628114
      13A     -0.617530    14A     -0.563664    15A     -0.551510
      16A     -0.531153    17A     -0.509172    18A     -0.495585
      19A     -0.456518    20A     -0.431065

  @DF-RHF Final Energy:  -231.04544128885937

   => Energetics <=

    Nuclear Repulsion Energy =            176.6193691993331640
    One-Electron Energy =                -663.0638185171641226
    Two-Electron Energy =                 255.3990080289715934
    Total Energy =                       -231.0454412888593652
  Basis Set: (AUG-CC-PVTZ AUX)
    Blend: AUG-CC-PVTZ-RI
    Molecular point group: c1

    Geometry (in Angstrom), charge = 0, multiplicity = 1:

       Center              X                  Y                   Z               Mass
    ------------   -----------------  -----------------  -----------------  -----------------
         O           -1.808488516840    -0.012681456890     0.299360670961    15.994914619570
         C            0.504785483160    -0.001655456890    -0.426986329039    12.000000000000
         C            1.544602483160     0.876995543110     0.274553670961    12.000000000000
         C            0.570975483160    -1.454149456890     0.016617670961    12.000000000000
         C           -0.789039016840     0.634821143110    -0.241504329039    12.000000000000
         H            0.687542483160     0.064795543110    -1.510479329039     1.007825032230
         H            1.475163483160     1.920708543110    -0.047001329039     1.007825032230
         H            2.554464483160     0.522758543110     0.052957670961     1.007825032230
         H            1.402876483160     0.842924543110     1.358868670961     1.007825032230
         H            1.559407483160    -1.873148456890    -0.189850329039     1.007825032230
         H           -0.179680516840    -2.056983456890    -0.498335329039     1.007825032230
         H            0.377762483160    -1.532498456890     1.089244670961     1.007825032230
         H           -0.980777516840     1.645784543110    -0.513799329039     1.007825032230

  Basis Set: AUG-CC-PVTZ
    Blend: AUG-CC-PVTZ
  Basis Set: (AUG-CC-PVTZ AUX)
    Blend: AUG-CC-PVTZ-JKFIT
	 Reference Energy          =    -231.0454412888593652 [Eh]
	 Singles Energy            =      -0.0000000000000000 [Eh]
	 Same-Spin Energy          =      -0.2338835033698973 [Eh]
	 Opposite-Spin Energy      =      -0.8017682986212824 [Eh]
	 Correlation Energy        =      -1.0356518019911798 [Eh]
	 Total Energy              =    -232.0810930908505441 [Eh]

	 ================> DF-SCS-MP2 Energies <==================
	-----------------------------------------------------------
	 SCS Same-Spin Scale       =       0.3333333333333333 [-]
	 SCS Opposite-Spin Scale   =       1.2000000000000000 [-]
	 SCS Same-Spin Energy      =      -0.0779611677899658 [Eh]
	 SCS Opposite-Spin Energy  =      -0.9621219583455388 [Eh]
	 SCS Correlation Energy    =      -1.0400831261355046 [Eh]
	 SCS Total Energy          =    -232.0855244149948646 [Eh]
	-----------------------------------------------------------

  Dipole Moment: [D]
     X:     2.7952      Y:     0.9895      Z:    -1.1345     Total:     3.1748

*** Psi4 exiting successfully. Buy a developer a beer!
