                               Psi4 1.3.2 release

  ==> Input File <==

--------------------------------------------------------------------------
#psi4
#
memory 32 gb

molecule  {
0 1
  O       -1.7956590    -0.0045330     0.2925540
  C        0.5176150     0.0064930    -0.4337930
  C        1.5574320     0.8851440     0.2677470
  C        0.5838050    -1.4460010     0.0098110
  C       -0.8532490     0.5940380    -0.2074380
  H        0.7003720     0.0729440    -1.5172860
  H        1.4879930     1.9288570    -0.0538080
  H        2.5672940     0.5309070     0.0461510
  H        1.4157060     0.8510730     1.3520620
  H        1.5722370    -1.8650000    -0.1966570
  H       -0.1668510    -2.0488350    -0.5051420
  H        0.3905920    -1.5243500     1.0824380
  H       -0.9885935     1.8447110    -0.5769753
units angstrom
no_reorient  #important for SAPT in psi4, default
symmetry c1  #important for SAPT in psi4, default
}

set PROPERTIES_ORIGIN ["COM"]
properties('MP2/aug-cc-pvtz', properties = ['dipole'])
--------------------------------------------------------------------------

    Molecular point group: c1
  Charge       = 0
  Multiplicity = 1
  Basis Set: AUG-CC-PVTZ
    Blend: AUG-CC-PVTZ
  Basis Set: (AUG-CC-PVTZ AUX)
    Blend: AUG-CC-PVTZ-JKFIT

    Orbital Energies [Eh]
    ---------------------

    Doubly Occupied:

       1A    -20.565257     2A    -11.354202     3A    -11.254799
       4A    -11.236050     5A    -11.221934     6A     -1.388438
       7A     -1.097195     8A     -0.947238     9A     -0.881500
      10A     -0.741717    11A     -0.670163    12A     -0.638893
      13A     -0.625231    14A     -0.565623    15A     -0.551255
      16A     -0.535241    17A     -0.522623    18A     -0.496525
      19A     -0.485167    20A     -0.410905

  @DF-RHF Final Energy:  -231.05142340746394

   => Energetics <=

    Nuclear Repulsion Energy =            176.4275981012113448
    One-Electron Energy =                -662.5781301999070365
    Two-Electron Energy =                 255.0991086912317485
    Total Energy =                       -231.0514234074639432
  Basis Set: (AUG-CC-PVTZ AUX)
    Blend: AUG-CC-PVTZ-RI
    Molecular point group: c1

    Geometry (in Angstrom), charge = 0, multiplicity = 1:

       Center              X                  Y                   Z               Mass
    ------------   -----------------  -----------------  -----------------  -----------------
         O           -1.795370092575    -0.007200996501     0.293342345057    15.994914619570
         C            0.517903907425     0.003825003499    -0.433004654943    12.000000000000
         C            1.557720907425     0.882476003499     0.268535345057    12.000000000000
         C            0.584093907425    -1.448668996501     0.010599345057    12.000000000000
         C           -0.852960092575     0.591370003499    -0.206649654943    12.000000000000
         H            0.700660907425     0.070276003499    -1.516497654943     1.007825032230
         H            1.488281907425     1.926189003499    -0.053019654943     1.007825032230
         H            2.567582907425     0.528239003499     0.046939345057     1.007825032230
         H            1.415994907425     0.848405003499     1.352850345057     1.007825032230
         H            1.572525907425    -1.867667996501    -0.195868654943     1.007825032230
         H           -0.166562092575    -2.051502996501    -0.504353654943     1.007825032230
         H            0.390880907425    -1.527017996501     1.083226345057     1.007825032230
         H           -0.988304592575     1.842043003499    -0.576186954943     1.007825032230

  Basis Set: AUG-CC-PVTZ
    Blend: AUG-CC-PVTZ
  Basis Set: (AUG-CC-PVTZ AUX)
    Blend: AUG-CC-PVTZ-JKFIT
	 Reference Energy          =    -231.0514234074639432 [Eh]
	 Singles Energy            =      -0.0000000000000000 [Eh]
	 Same-Spin Energy          =      -0.2315949476539016 [Eh]
	 Opposite-Spin Energy      =      -0.7971758996825107 [Eh]
	 Correlation Energy        =      -1.0287708473364123 [Eh]
	 Total Energy              =    -232.0801942548003467 [Eh]

	 ================> DF-SCS-MP2 Energies <==================
	-----------------------------------------------------------
	 SCS Same-Spin Scale       =       0.3333333333333333 [-]
	 SCS Opposite-Spin Scale   =       1.2000000000000000 [-]
	 SCS Same-Spin Energy      =      -0.0771983158846339 [Eh]
	 SCS Opposite-Spin Energy  =      -0.9566110796190128 [Eh]
	 SCS Correlation Energy    =      -1.0338093955036467 [Eh]
	 SCS Total Energy          =    -232.0852328029675959 [Eh]
	-----------------------------------------------------------

  Dipole Moment: [D]
     X:     2.4776      Y:     0.5220      Z:    -0.8885     Total:     2.6833

*** Psi4 exiting successfully. Buy a developer a beer!
