                               Psi4 1.3.2 release

  ==> Input File <==

--------------------------------------------------------------------------
#psi4
#
memory 32 gb

molecule  {
0 1
  O       -1.7956590    -0.0045330     0.2925540
  C        0.5255766     0.0295112    -0.4437921
  C        1.5574320     0.8851440     0.2677470
  C        0.5838050    -1.4460010     0.0098110
  C       -0.8532490     0.5940380    -0.2074380
  H        0.7003720     0.0729440    -1.5172860
  H        1.4879930     1.9288570    -0.0538080
  H        2.5672940     0.5309070     0.0461510
  H        1.4157060     0.8510730     1.3520620
  H        1.5722370    -1.8650000    -0.1966570
  H       -0.1668510    -2.0488350    -0.5051420
  H        0.3905920    -1.5243500     1.0824380
  H       -0.9494172     1.6540723    -0.5263212
units angstrom
no_reorient  #important for SAPT in psi4, default
symmetry c1  #important for SAPT in psi4, default
}

set PROPERTIES_ORIGIN ["COM"]
properties('MP2/aug-cc-pvtz', properties = ['dipole'])
--------------------------------------------------------------------------

    Molecular point group: c1
  Charge       = 0
  Multiplicity = 1
  Basis Set: AUG-CC-PVTZ
    Blend: AUG-CC-PVTZ
  Basis Set: (AUG-CC-PVTZ AUX)
    Blend: AUG-CC-PVTZ-JKFIT

    Orbital Energies [Eh]
    ---------------------

    Doubly Occupied:

       1A    -20.559525     2A    -11.332735     3A    -11.248633
       4A    -11.235091     5A    -11.219485     6A     -1.383808
       7A     -1.095215     8A     -0.944046     9A     -0.890576
      10A     -0.761768    11A     -0.681096    12A     -0.641067
      13A     -0.624231    14A     -0.568790    15A     -0.551222
      16A     -0.531143    17A     -0.519731    18A     -0.490097
      19A     -0.486768    20A     -0.418193

  @DF-RHF Final Energy:  -231.07041532940576

   => Energetics <=

    Nuclear Repulsion Energy =            177.1453518009165009
    One-Electron Energy =                -664.0650969765722493
    Two-Electron Energy =                 255.8493298462499865
    Total Energy =                       -231.0704153294057619
  Basis Set: (AUG-CC-PVTZ AUX)
    Blend: AUG-CC-PVTZ-RI
    Molecular point group: c1

    Geometry (in Angstrom), charge = 0, multiplicity = 1:

       Center              X                  Y                   Z               Mass
    ------------   -----------------  -----------------  -----------------  -----------------
         O           -1.797243902073    -0.008367952455     0.294299063175    15.994914619570
         C            0.523991697927     0.025676247545    -0.442047036825    12.000000000000
         C            1.555847097927     0.881309047545     0.269492063175    12.000000000000
         C            0.582220097927    -1.449835952455     0.011556063175    12.000000000000
         C           -0.854833902073     0.590203047545    -0.205692936825    12.000000000000
         H            0.698787097927     0.069109047545    -1.515540936825     1.007825032230
         H            1.486408097927     1.925022047545    -0.052062936825     1.007825032230
         H            2.565709097927     0.527072047545     0.047896063175     1.007825032230
         H            1.414121097927     0.847238047545     1.353807063175     1.007825032230
         H            1.570652097927    -1.868834952455    -0.194911936825     1.007825032230
         H           -0.168435902073    -2.052669952455    -0.503396936825     1.007825032230
         H            0.389007097927    -1.528184952455     1.084183063175     1.007825032230
         H           -0.951002102073     1.650237347545    -0.524576136825     1.007825032230

  Basis Set: AUG-CC-PVTZ
    Blend: AUG-CC-PVTZ
  Basis Set: (AUG-CC-PVTZ AUX)
    Blend: AUG-CC-PVTZ-JKFIT
	 Reference Energy          =    -231.0704153294057619 [Eh]
	 Singles Energy            =      -0.0000000000000000 [Eh]
	 Same-Spin Energy          =      -0.2305682354395372 [Eh]
	 Opposite-Spin Energy      =      -0.7947255700687301 [Eh]
	 Correlation Energy        =      -1.0252938055082672 [Eh]
	 Total Energy              =    -232.0957091349140171 [Eh]

	 ================> DF-SCS-MP2 Energies <==================
	-----------------------------------------------------------
	 SCS Same-Spin Scale       =       0.3333333333333333 [-]
	 SCS Opposite-Spin Scale   =       1.2000000000000000 [-]
	 SCS Same-Spin Energy      =      -0.0768560784798457 [Eh]
	 SCS Opposite-Spin Energy  =      -0.9536706840824761 [Eh]
	 SCS Correlation Energy    =      -1.0305267625623218 [Eh]
	 SCS Total Energy          =    -232.1009420919680792 [Eh]
	-----------------------------------------------------------

  Dipole Moment: [D]
     X:     2.4405      Y:     0.8574      Z:    -0.9990     Total:     2.7729

*** Psi4 exiting successfully. Buy a developer a beer!
