                               Psi4 1.3.2 release

  ==> Input File <==

--------------------------------------------------------------------------
#psi4
#
memory 32 gb

molecule  {
0 1
  O       -1.7578006    -0.0558612     0.2983616
  C        0.4915373    -0.0611313    -0.4024166
  C        1.5574320     0.8851440     0.2677470
  C        0.5838050    -1.4460010     0.0098110
  C       -0.8532490     0.5940380    -0.2074380
  H        0.7003720     0.0729440    -1.5172860
  H        1.4879930     1.9288570    -0.0538080
  H        2.5672940     0.5309070     0.0461510
  H        1.4157060     0.8510730     1.3520620
  H        1.5722370    -1.8650000    -0.1966570
  H       -0.1668510    -2.0488350    -0.5051420
  H        0.3905920    -1.5243500     1.0824380
  H       -0.9679480     1.6539330    -0.5206060
units angstrom
no_reorient  #important for SAPT in psi4, default
symmetry c1  #important for SAPT in psi4, default
}

set PROPERTIES_ORIGIN ["COM"]
properties('MP2/aug-cc-pvtz', properties = ['dipole'])
--------------------------------------------------------------------------

    Molecular point group: c1
  Charge       = 0
  Multiplicity = 1
  Basis Set: AUG-CC-PVTZ
    Blend: AUG-CC-PVTZ
  Basis Set: (AUG-CC-PVTZ AUX)
    Blend: AUG-CC-PVTZ-JKFIT

    Orbital Energies [Eh]
    ---------------------

    Doubly Occupied:

       1A    -20.555430     2A    -11.332023     3A    -11.249612
       4A    -11.235914     5A    -11.214798     6A     -1.383725
       7A     -1.095655     8A     -0.949855     9A     -0.886546
      10A     -0.757995    11A     -0.681170    12A     -0.637587
      13A     -0.627677    14A     -0.566166    15A     -0.551693
      16A     -0.538012    17A     -0.516955    18A     -0.502975
      19A     -0.462766    20A     -0.417525

  @DF-RHF Final Energy:  -231.06242131544099

   => Energetics <=

    Nuclear Repulsion Energy =            178.0880457596232986
    One-Electron Energy =                -665.9727748554732898
    Two-Electron Energy =                 256.8223077804090053
    Total Energy =                       -231.0624213154409858
  Basis Set: (AUG-CC-PVTZ AUX)
    Blend: AUG-CC-PVTZ-RI
    Molecular point group: c1

    Geometry (in Angstrom), charge = 0, multiplicity = 1:

       Center              X                  Y                   Z               Mass
    ------------   -----------------  -----------------  -----------------  -----------------
         O           -1.761861225415    -0.033205639011     0.291847177835    15.994914619570
         C            0.487476674585    -0.038475739011    -0.408931022165    12.000000000000
         C            1.553371374585     0.907799560989     0.261232577835    12.000000000000
         C            0.579744374585    -1.423345439011     0.003296577835    12.000000000000
         C           -0.857309625415     0.616693560989    -0.213952422165    12.000000000000
         H            0.696311374585     0.095599560989    -1.523800422165     1.007825032230
         H            1.483932374585     1.951512560989    -0.060322422165     1.007825032230
         H            2.563233374585     0.553562560989     0.039636577835     1.007825032230
         H            1.411645374585     0.873728560989     1.345547577835     1.007825032230
         H            1.568176374585    -1.842344439011    -0.203171422165     1.007825032230
         H           -0.170911625415    -2.026179439011    -0.511656422165     1.007825032230
         H            0.386531374585    -1.501694439011     1.075923577835     1.007825032230
         H           -0.972008625415     1.676588560989    -0.527120422165     1.007825032230

  Basis Set: AUG-CC-PVTZ
    Blend: AUG-CC-PVTZ
  Basis Set: (AUG-CC-PVTZ AUX)
    Blend: AUG-CC-PVTZ-JKFIT
	 Reference Energy          =    -231.0624213154409858 [Eh]
	 Singles Energy            =      -0.0000000000000000 [Eh]
	 Same-Spin Energy          =      -0.2313615867964914 [Eh]
	 Opposite-Spin Energy      =      -0.7955292842390219 [Eh]
	 Correlation Energy        =      -1.0268908710355134 [Eh]
	 Total Energy              =    -232.0893121864764908 [Eh]

	 ================> DF-SCS-MP2 Energies <==================
	-----------------------------------------------------------
	 SCS Same-Spin Scale       =       0.3333333333333333 [-]
	 SCS Opposite-Spin Scale   =       1.2000000000000000 [-]
	 SCS Same-Spin Energy      =      -0.0771205289321638 [Eh]
	 SCS Opposite-Spin Energy  =      -0.9546351410868262 [Eh]
	 SCS Correlation Energy    =      -1.0317556700189900 [Eh]
	 SCS Total Energy          =    -232.0941769854599670 [Eh]
	-----------------------------------------------------------

  Dipole Moment: [D]
     X:     2.3509      Y:     0.9296      Z:    -0.9971     Total:     2.7175

*** Psi4 exiting successfully. Buy a developer a beer!
