                               Psi4 1.3.2 release

  ==> Input File <==

--------------------------------------------------------------------------
#psi4
#
memory 32 gb

molecule  {
0 1
  O       -1.7956590    -0.0045330     0.2925540
  C        0.5176150     0.0064930    -0.4337930
  C        1.5574320     0.8851440     0.2677470
  C        0.5838050    -1.4460010     0.0098110
  C       -0.8532490     0.5940380    -0.2074380
  H        0.7003720     0.0729440    -1.5172860
  H        1.4879930     1.9288570    -0.0538080
  H        2.5672940     0.5309070     0.0461510
  H        1.4157060     0.8510730     1.3520620
  H        1.5722370    -1.8650000    -0.1966570
  H       -0.1668510    -2.0488350    -0.5051420
  H        0.3905920    -1.5243500     1.0824380
  H       -0.9473025     1.4631550    -0.4642367
units angstrom
no_reorient  #important for SAPT in psi4, default
symmetry c1  #important for SAPT in psi4, default
}

set PROPERTIES_ORIGIN ["COM"]
properties('MP2/aug-cc-pvtz', properties = ['dipole'])
--------------------------------------------------------------------------

    Molecular point group: c1
  Charge       = 0
  Multiplicity = 1
  Basis Set: AUG-CC-PVTZ
    Blend: AUG-CC-PVTZ
  Basis Set: (AUG-CC-PVTZ AUX)
    Blend: AUG-CC-PVTZ-JKFIT

    Orbital Energies [Eh]
    ---------------------

    Doubly Occupied:

       1A    -20.554260     2A    -11.307730     3A    -11.246031
       4A    -11.235366     5A    -11.217086     6A     -1.381477
       7A     -1.095245     8A     -0.946397     9A     -0.913520
      10A     -0.792641    11A     -0.688688    12A     -0.639272
      13A     -0.625071    14A     -0.569107    15A     -0.551503
      16A     -0.530985    17A     -0.517063    18A     -0.494426
      19A     -0.479781    20A     -0.423275

  @DF-RHF Final Energy:  -231.04199899300235

   => Energetics <=

    Nuclear Repulsion Energy =            178.2920529201551858
    One-Electron Energy =                -666.2502589511008182
    Two-Electron Energy =                 256.9162070379432521
    Total Energy =                       -231.0419989930023803
  Basis Set: (AUG-CC-PVTZ AUX)
    Blend: AUG-CC-PVTZ-RI
    Molecular point group: c1

    Geometry (in Angstrom), charge = 0, multiplicity = 1:

       Center              X                  Y                   Z               Mass
    ------------   -----------------  -----------------  -----------------  -----------------
         O           -1.795947604906    -0.001864402689     0.291765538205    15.994914619570
         C            0.517326395094     0.009161597311    -0.434581461795    12.000000000000
         C            1.557143395094     0.887812597311     0.266958538205    12.000000000000
         C            0.583516395094    -1.443332402689     0.009022538205    12.000000000000
         C           -0.853537604906     0.596706597311    -0.208226461795    12.000000000000
         H            0.700083395094     0.075612597311    -1.518074461795     1.007825032230
         H            1.487704395094     1.931525597311    -0.054596461795     1.007825032230
         H            2.567005395094     0.533575597311     0.045362538205     1.007825032230
         H            1.415417395094     0.853741597311     1.351273538205     1.007825032230
         H            1.571948395094    -1.862331402689    -0.197445461795     1.007825032230
         H           -0.167139604906    -2.046166402689    -0.505930461795     1.007825032230
         H            0.390303395094    -1.521681402689     1.081649538205     1.007825032230
         H           -0.947591104906     1.465823597311    -0.465025161795     1.007825032230

  Basis Set: AUG-CC-PVTZ
    Blend: AUG-CC-PVTZ
  Basis Set: (AUG-CC-PVTZ AUX)
    Blend: AUG-CC-PVTZ-JKFIT
	 Reference Energy          =    -231.0419989930023519 [Eh]
	 Singles Energy            =      -0.0000000000000000 [Eh]
	 Same-Spin Energy          =      -0.2301150794265668 [Eh]
	 Opposite-Spin Energy      =      -0.7939917567063566 [Eh]
	 Correlation Energy        =      -1.0241068361329235 [Eh]
	 Total Energy              =    -232.0661058291352674 [Eh]

	 ================> DF-SCS-MP2 Energies <==================
	-----------------------------------------------------------
	 SCS Same-Spin Scale       =       0.3333333333333333 [-]
	 SCS Opposite-Spin Scale   =       1.2000000000000000 [-]
	 SCS Same-Spin Energy      =      -0.0767050264755223 [Eh]
	 SCS Opposite-Spin Energy  =      -0.9527901080476279 [Eh]
	 SCS Correlation Energy    =      -1.0294951345231502 [Eh]
	 SCS Total Energy          =    -232.0714941275255114 [Eh]
	-----------------------------------------------------------

  Dipole Moment: [D]
     X:     2.4340      Y:     1.0363      Z:    -1.0615     Total:     2.8504

*** Psi4 exiting successfully. Buy a developer a beer!
