                               Psi4 1.4a3.dev225

  ==> Input File <==

--------------------------------------------------------------------------
#psi4
#
memory 32 gb

molecule  {
0 1
  O       -1.8841100    -0.0754290    -0.2841020
  C        0.4339560     0.0114880     0.4275350
  C        1.5032440    -0.8397350    -0.2682130
  C        0.4423580     1.4601130    -0.0387010
  C       -0.8984999    -0.6229753     0.2215902
  H        0.6252000    -0.0321580     1.5111040
  H        1.4713110    -1.8814970     0.0665680
  H        2.5004740    -0.4466550    -0.0533610
  H        1.3573160    -0.8234960    -1.3527830
  H        1.4146230     1.9201520     0.1587670
  H       -0.3302150     2.0412490     0.4696940
  H        0.2436030     1.5145060    -1.1122270
  H       -0.9884720    -1.6909150     0.5483740
units angstrom
no_reorient  #important for SAPT in psi4, default
symmetry c1  #important for SAPT in psi4, default
}

set PROPERTIES_ORIGIN ["COM"]
properties('MP2/aug-cc-pvtz', properties = ['dipole'])
--------------------------------------------------------------------------

    Molecular point group: c1
  Charge       = 0
  Multiplicity = 1
  Basis Set: AUG-CC-PVTZ
    Blend: AUG-CC-PVTZ
  Basis Set: (AUG-CC-PVTZ AUX)
    Blend: AUG-CC-PVTZ-JKFIT

    Orbital Energies [Eh]
    ---------------------

    Doubly Occupied:

       1A    -20.557237     2A    -11.333625     3A    -11.250560
       4A    -11.237126     5A    -11.220053     6A     -1.375029
       7A     -1.098223     8A     -0.946708     9A     -0.892403
      10A     -0.759194    11A     -0.681291    12A     -0.636519
      13A     -0.625651    14A     -0.566856    15A     -0.551821
      16A     -0.532260    17A     -0.516890    18A     -0.495773
      19A     -0.479895    20A     -0.420930

  @DF-RHF Final Energy:  -231.06905317971996

   => Energetics <=

    Nuclear Repulsion Energy =            177.1886212241836347
    One-Electron Energy =                -664.1592591475588279
    Two-Electron Energy =                 255.9015847436552349
    Total Energy =                       -231.0690531797199583
  Basis Set: (AUG-CC-PVTZ AUX)
    Blend: AUG-CC-PVTZ-RI
    Molecular point group: c1

    Geometry (in Angstrom), charge = 0, multiplicity = 1:

       Center              X                  Y                   Z               Mass
    ------------   -----------------  -----------------  -----------------  -----------------
         O           -1.800560187142    -0.068574729271    -0.281331032089    15.994914619570
         C            0.517505812858     0.018342270729     0.430305967911    12.000000000000
         C            1.586793812858    -0.832880729271    -0.265442032089    12.000000000000
         C            0.525907812858     1.466967270729    -0.035930032089    12.000000000000
         C           -0.814950087142    -0.616121029271     0.224361167911    12.000000000000
         H            0.708749812858    -0.025303729271     1.513874967911     1.007825032230
         H            1.554860812858    -1.874642729271     0.069338967911     1.007825032230
         H            2.584023812858    -0.439800729271    -0.050590032089     1.007825032230
         H            1.440865812858    -0.816641729271    -1.350012032089     1.007825032230
         H            1.498172812858     1.927006270729     0.161537967911     1.007825032230
         H           -0.246665187142     2.048103270729     0.472464967911     1.007825032230
         H            0.327152812858     1.521360270729    -1.109456032089     1.007825032230
         H           -0.904922187142    -1.684060729271     0.551144967911     1.007825032230

  Basis Set: AUG-CC-PVTZ
    Blend: AUG-CC-PVTZ
  Basis Set: (AUG-CC-PVTZ AUX)
    Blend: AUG-CC-PVTZ-JKFIT
	 Reference Energy          =    -231.0690531797199583 [Eh]
	 Singles Energy            =      -0.0000000000000000 [Eh]
	 Same-Spin Energy          =      -0.2310757080638886 [Eh]
	 Opposite-Spin Energy      =      -0.7956046051739365 [Eh]
	 Correlation Energy        =      -1.0266803132378250 [Eh]
	 Total Energy              =    -232.0957334929577769 [Eh]

	 ================> DF-SCS-MP2 Energies <==================
	-----------------------------------------------------------
	 SCS Same-Spin Scale       =       0.3333333333333333 [-]
	 SCS Opposite-Spin Scale   =       1.2000000000000000 [-]
	 SCS Same-Spin Energy      =      -0.0770252360212962 [Eh]
	 SCS Opposite-Spin Energy  =      -0.9547255262087238 [Eh]
	 SCS Correlation Energy    =      -1.0317507622300199 [Eh]
	 SCS Total Energy          =    -232.1008039419499767 [Eh]
	-----------------------------------------------------------

  Dipole Moment: [D]
     X:     2.5774      Y:    -0.7177      Z:     1.0074     Total:     2.8589

*** Psi4 exiting successfully. Buy a developer a beer!
