                               Psi4 1.3.2 release

  ==> Input File <==

--------------------------------------------------------------------------
#psi4
#
memory 32 gb

molecule  {
0 1
  O       -1.7833216    -0.0218317     0.2946430
  C        0.5093366    -0.0162366    -0.4233989
  C        1.5574320     0.8851440     0.2677470
  C        0.5838050    -1.4460010     0.0098110
  C       -0.8532490     0.5940380    -0.2074380
  H        0.7003720     0.0729440    -1.5172860
  H        1.4879930     1.9288570    -0.0538080
  H        2.5672940     0.5309070     0.0461510
  H        1.4157060     0.8510730     1.3520620
  H        1.5722370    -1.8650000    -0.1966570
  H       -0.1668510    -2.0488350    -0.5051420
  H        0.3905920    -1.5243500     1.0824380
  H       -0.9679480     1.6539330    -0.5206060
units angstrom
no_reorient  #important for SAPT in psi4, default
symmetry c1  #important for SAPT in psi4, default
}

set PROPERTIES_ORIGIN ["COM"]
properties('MP2/aug-cc-pvtz', properties = ['dipole'])
--------------------------------------------------------------------------

    Molecular point group: c1
  Charge       = 0
  Multiplicity = 1
  Basis Set: AUG-CC-PVTZ
    Blend: AUG-CC-PVTZ
  Basis Set: (AUG-CC-PVTZ AUX)
    Blend: AUG-CC-PVTZ-JKFIT

    Orbital Energies [Eh]
    ---------------------

    Doubly Occupied:

       1A    -20.557213     2A    -11.331955     3A    -11.249359
       4A    -11.235646     5A    -11.217576     6A     -1.383406
       7A     -1.094990     8A     -0.947207     9A     -0.888301
      10A     -0.759764    11A     -0.681270    12A     -0.638662
      13A     -0.626023    14A     -0.566311    15A     -0.551479
      16A     -0.533635    17A     -0.518227    18A     -0.498967
      19A     -0.475899    20A     -0.418692

  @DF-RHF Final Energy:  -231.07016579901807

   => Energetics <=

    Nuclear Repulsion Energy =            177.5160995895001008
    One-Electron Energy =                -664.8233654540790667
    Two-Electron Energy =                 256.2371000655609237
    Total Energy =                       -231.0701657990180706
  Basis Set: (AUG-CC-PVTZ AUX)
    Blend: AUG-CC-PVTZ-RI
    Molecular point group: c1

    Geometry (in Angstrom), charge = 0, multiplicity = 1:

       Center              X                  Y                   Z               Mass
    ------------   -----------------  -----------------  -----------------  -----------------
         O           -1.784681402102    -0.014206290257     0.292448270098    15.994914619570
         C            0.507976797898    -0.008611190257    -0.425593629902    12.000000000000
         C            1.556072197898     0.892769409743     0.265552270098    12.000000000000
         C            0.582445197898    -1.438375590257     0.007616270098    12.000000000000
         C           -0.854608802102     0.601663409743    -0.209632729902    12.000000000000
         H            0.699012197898     0.080569409743    -1.519480729902     1.007825032230
         H            1.486633197898     1.936482409743    -0.056002729902     1.007825032230
         H            2.565934197898     0.538532409743     0.043956270098     1.007825032230
         H            1.414346197898     0.858698409743     1.349867270098     1.007825032230
         H            1.570877197898    -1.857374590257    -0.198851729902     1.007825032230
         H           -0.168210802102    -2.041209590257    -0.507336729902     1.007825032230
         H            0.389232197898    -1.516724590257     1.080243270098     1.007825032230
         H           -0.969307802102     1.661558409743    -0.522800729902     1.007825032230

  Basis Set: AUG-CC-PVTZ
    Blend: AUG-CC-PVTZ
  Basis Set: (AUG-CC-PVTZ AUX)
    Blend: AUG-CC-PVTZ-JKFIT
	 Reference Energy          =    -231.0701657990180706 [Eh]
	 Singles Energy            =      -0.0000000000000000 [Eh]
	 Same-Spin Energy          =      -0.2307892863363704 [Eh]
	 Opposite-Spin Energy      =      -0.7948204978327840 [Eh]
	 Correlation Energy        =      -1.0256097841691543 [Eh]
	 Total Energy              =    -232.0957755831872191 [Eh]

	 ================> DF-SCS-MP2 Energies <==================
	-----------------------------------------------------------
	 SCS Same-Spin Scale       =       0.3333333333333333 [-]
	 SCS Opposite-Spin Scale   =       1.2000000000000000 [-]
	 SCS Same-Spin Energy      =      -0.0769297621121235 [Eh]
	 SCS Opposite-Spin Energy  =      -0.9537845973993407 [Eh]
	 SCS Correlation Energy    =      -1.0307143595114643 [Eh]
	 SCS Total Energy          =    -232.1008801585295487 [Eh]
	-----------------------------------------------------------

  Dipole Moment: [D]
     X:     2.4155      Y:     0.8788      Z:    -0.9994     Total:     2.7578

*** Psi4 exiting successfully. Buy a developer a beer!
