                               Psi4 1.4a3.dev225

  ==> Input File <==

--------------------------------------------------------------------------
#psi4
#
memory 32 gb

molecule  {
0 1
  O       -1.8841100    -0.0754290    -0.2841020
  C        0.4339560     0.0114880     0.4275350
  C        1.5032440    -0.8397350    -0.2682130
  C        0.4423580     1.4601130    -0.0387010
  C       -0.8768588    -0.6542025     0.2393673
  H        0.6252000    -0.0321580     1.5111040
  H        1.4713110    -1.8814970     0.0665680
  H        2.5004740    -0.4466550    -0.0533610
  H        1.3573160    -0.8234960    -1.3527830
  H        1.4146230     1.9201520     0.1587670
  H       -0.3302150     2.0412490     0.4696940
  H        0.2436030     1.5145060    -1.1122270
  H       -0.9884720    -1.6909150     0.5483740
units angstrom
no_reorient  #important for SAPT in psi4, default
symmetry c1  #important for SAPT in psi4, default
}

set PROPERTIES_ORIGIN ["COM"]
properties('MP2/aug-cc-pvtz', properties = ['dipole'])
--------------------------------------------------------------------------

    Molecular point group: c1
  Charge       = 0
  Multiplicity = 1
  Basis Set: AUG-CC-PVTZ
    Blend: AUG-CC-PVTZ
  Basis Set: (AUG-CC-PVTZ AUX)
    Blend: AUG-CC-PVTZ-JKFIT

    Orbital Energies [Eh]
    ---------------------

    Doubly Occupied:

       1A    -20.555339     2A    -11.335980     3A    -11.251982
       4A    -11.238074     5A    -11.220708     6A     -1.350622
       7A     -1.099966     8A     -0.947553     9A     -0.898183
      10A     -0.766304    11A     -0.680723    12A     -0.628326
      13A     -0.624787    14A     -0.565432    15A     -0.551631
      16A     -0.530928    17A     -0.511214    18A     -0.495762
      19A     -0.471025    20A     -0.426454

  @DF-RHF Final Energy:  -231.06146071715378

   => Energetics <=

    Nuclear Repulsion Energy =            176.7488580941230509
    One-Electron Energy =                -663.3186463929466754
    Two-Electron Energy =                 255.5083275816698176
    Total Energy =                       -231.0614607171537784
  Basis Set: (AUG-CC-PVTZ AUX)
    Blend: AUG-CC-PVTZ-RI
    Molecular point group: c1

    Geometry (in Angstrom), charge = 0, multiplicity = 1:

       Center              X                  Y                   Z               Mass
    ------------   -----------------  -----------------  -----------------  -----------------
         O           -1.804164158226    -0.063374350093    -0.284291517201    15.994914619570
         C            0.513901841774     0.023542649907     0.427345482799    12.000000000000
         C            1.583189841774    -0.827680350093    -0.268402517201    12.000000000000
         C            0.522303841774     1.472167649907    -0.038890517201    12.000000000000
         C           -0.796912958226    -0.642147850093     0.239177782799    12.000000000000
         H            0.705145841774    -0.020103350093     1.510914482799     1.007825032230
         H            1.551256841774    -1.869442350093     0.066378482799     1.007825032230
         H            2.580419841774    -0.434600350093    -0.053550517201     1.007825032230
         H            1.437261841774    -0.811441350093    -1.352972517201     1.007825032230
         H            1.494568841774     1.932206649907     0.158577482799     1.007825032230
         H           -0.250269158226     2.053303649907     0.469504482799     1.007825032230
         H            0.323548841774     1.526560649907    -1.112416517201     1.007825032230
         H           -0.908526158226    -1.678860350093     0.548184482799     1.007825032230

  Basis Set: AUG-CC-PVTZ
    Blend: AUG-CC-PVTZ
  Basis Set: (AUG-CC-PVTZ AUX)
    Blend: AUG-CC-PVTZ-JKFIT
	 Reference Energy          =    -231.0614607171537784 [Eh]
	 Singles Energy            =      -0.0000000000000000 [Eh]
	 Same-Spin Energy          =      -0.2321156151678853 [Eh]
	 Opposite-Spin Energy      =      -0.7980981290716369 [Eh]
	 Correlation Energy        =      -1.0302137442395223 [Eh]
	 Total Energy              =    -232.0916744613932963 [Eh]

	 ================> DF-SCS-MP2 Energies <==================
	-----------------------------------------------------------
	 SCS Same-Spin Scale       =       0.3333333333333333 [-]
	 SCS Opposite-Spin Scale   =       1.2000000000000000 [-]
	 SCS Same-Spin Energy      =      -0.0773718717226284 [Eh]
	 SCS Opposite-Spin Energy  =      -0.9577177548859642 [Eh]
	 SCS Correlation Energy    =      -1.0350896266085927 [Eh]
	 SCS Total Energy          =    -232.0965503437623738 [Eh]
	-----------------------------------------------------------

  Dipole Moment: [D]
     X:     2.6733      Y:    -0.8191      Z:     1.0707     Total:     2.9940

*** Psi4 exiting successfully. Buy a developer a beer!
