                               Psi4 1.3.2 release

  ==> Input File <==

--------------------------------------------------------------------------
#psi4
#
memory 32 gb

molecule  {
0 1
  O       -1.8306718     0.0487151     0.2862050
  C        0.5176150     0.0064930    -0.4337930
  C        1.5574320     0.8851440     0.2677470
  C        0.5838050    -1.4460010     0.0098110
  C       -0.8532490     0.5940380    -0.2074380
  H        0.7003720     0.0729440    -1.5172860
  H        1.4879930     1.9288570    -0.0538080
  H        2.5672940     0.5309070     0.0461510
  H        1.4157060     0.8510730     1.3520620
  H        1.5722370    -1.8650000    -0.1966570
  H       -0.1668510    -2.0488350    -0.5051420
  H        0.3905920    -1.5243500     1.0824380
  H       -1.0230938     1.6518041    -0.5022108
units angstrom
no_reorient  #important for SAPT in psi4, default
symmetry c1  #important for SAPT in psi4, default
}

set PROPERTIES_ORIGIN ["COM"]
properties('MP2/aug-cc-pvtz', properties = ['dipole'])
--------------------------------------------------------------------------

    Molecular point group: c1
  Charge       = 0
  Multiplicity = 1
  Basis Set: AUG-CC-PVTZ
    Blend: AUG-CC-PVTZ
  Basis Set: (AUG-CC-PVTZ AUX)
    Blend: AUG-CC-PVTZ-JKFIT

    Orbital Energies [Eh]
    ---------------------

    Doubly Occupied:

       1A    -20.556363     2A    -11.330553     3A    -11.253032
       4A    -11.236556     5A    -11.221124     6A     -1.382369
       7A     -1.097080     8A     -0.947315     9A     -0.887970
      10A     -0.761500    11A     -0.682036    12A     -0.636990
      13A     -0.626550    14A     -0.567846    15A     -0.551832
      16A     -0.535136    17A     -0.519527    18A     -0.496848
      19A     -0.482506    20A     -0.417318

  @DF-RHF Final Energy:  -231.07009999521591

   => Energetics <=

    Nuclear Repulsion Energy =            176.7905256759523240
    One-Electron Energy =                -663.3403483580344755
    Two-Electron Energy =                 255.4797226868662392
    Total Energy =                       -231.0700999952159123
  Basis Set: (AUG-CC-PVTZ AUX)
    Blend: AUG-CC-PVTZ-RI
    Molecular point group: c1

    Geometry (in Angstrom), charge = 0, multiplicity = 1:

       Center              X                  Y                   Z               Mass
    ------------   -----------------  -----------------  -----------------  -----------------
         O           -1.822128416778     0.036925467657     0.287356973727    15.994914619570
         C            0.526158383222    -0.005296632343    -0.432641026273    12.000000000000
         C            1.565975383222     0.873354367657     0.268898973727    12.000000000000
         C            0.592348383222    -1.457790632343     0.010962973727    12.000000000000
         C           -0.844705616778     0.582248367657    -0.206286026273    12.000000000000
         H            0.708915383222     0.061154367657    -1.516134026273     1.007825032230
         H            1.496536383222     1.917067367657    -0.052656026273     1.007825032230
         H            2.575837383222     0.519117367657     0.047302973727     1.007825032230
         H            1.424249383222     0.839283367657     1.353213973727     1.007825032230
         H            1.580780383222    -1.876789632343    -0.195505026273     1.007825032230
         H           -0.158307616778    -2.060624632343    -0.503990026273     1.007825032230
         H            0.399135383222    -1.536139632343     1.083589973727     1.007825032230
         H           -1.014550416778     1.640014467657    -0.501058826273     1.007825032230

  Basis Set: AUG-CC-PVTZ
    Blend: AUG-CC-PVTZ
  Basis Set: (AUG-CC-PVTZ AUX)
    Blend: AUG-CC-PVTZ-JKFIT
	 Reference Energy          =    -231.0700999952159123 [Eh]
	 Singles Energy            =      -0.0000000000000000 [Eh]
	 Same-Spin Energy          =      -0.2304381786810138 [Eh]
	 Opposite-Spin Energy      =      -0.7944760659990683 [Eh]
	 Correlation Energy        =      -1.0249142446800821 [Eh]
	 Total Energy              =    -232.0950142398959883 [Eh]

	 ================> DF-SCS-MP2 Energies <==================
	-----------------------------------------------------------
	 SCS Same-Spin Scale       =       0.3333333333333333 [-]
	 SCS Opposite-Spin Scale   =       1.2000000000000000 [-]
	 SCS Same-Spin Energy      =      -0.0768127262270046 [Eh]
	 SCS Opposite-Spin Energy  =      -0.9533712791988819 [Eh]
	 SCS Correlation Energy    =      -1.0301840054258864 [Eh]
	 SCS Total Energy          =    -232.1002840006418069 [Eh]
	-----------------------------------------------------------

  Dipole Moment: [D]
     X:     2.5533      Y:     0.7346      Z:    -0.9857     Total:     2.8338

*** Psi4 exiting successfully. Buy a developer a beer!
