                               Psi4 1.3.2 release

  ==> Input File <==

--------------------------------------------------------------------------
#psi4
#
memory 32 gb

molecule  {
0 1
  O       -1.7956590    -0.0045330     0.2925540
  C        0.5176150     0.0064930    -0.4337930
  C        1.5574320     0.8851440     0.2677470
  C        0.5838050    -1.4460010     0.0098110
  C       -0.9441221     0.6329857    -0.1924332
  H        0.7003720     0.0729440    -1.5172860
  H        1.4879930     1.9288570    -0.0538080
  H        2.5672940     0.5309070     0.0461510
  H        1.4157060     0.8510730     1.3520620
  H        1.5722370    -1.8650000    -0.1966570
  H       -0.1668510    -2.0488350    -0.5051420
  H        0.3905920    -1.5243500     1.0824380
  H       -0.9679480     1.6539330    -0.5206060
units angstrom
no_reorient  #important for SAPT in psi4, default
symmetry c1  #important for SAPT in psi4, default
}

set PROPERTIES_ORIGIN ["COM"]
properties('MP2/aug-cc-pvtz', properties = ['dipole'])
--------------------------------------------------------------------------

    Molecular point group: c1
  Charge       = 0
  Multiplicity = 1
  Basis Set: AUG-CC-PVTZ
    Blend: AUG-CC-PVTZ
  Basis Set: (AUG-CC-PVTZ AUX)
    Blend: AUG-CC-PVTZ-JKFIT

    Orbital Energies [Eh]
    ---------------------

    Doubly Occupied:

       1A    -20.563216     2A    -11.327630     3A    -11.244767
       4A    -11.229427     5A    -11.215007     6A     -1.422822
       7A     -1.078318     8A     -0.940270     9A     -0.875090
      10A     -0.767222    11A     -0.683846    12A     -0.651216
      13A     -0.621061    14A     -0.568391    15A     -0.549831
      16A     -0.536207    17A     -0.533828    18A     -0.490546
      19A     -0.482888    20A     -0.399974

  @DF-RHF Final Energy:  -231.06679129605158

   => Energetics <=

    Nuclear Repulsion Energy =            176.8244215338328900
    One-Electron Energy =                -663.4193095321872988
    Two-Electron Energy =                 255.5280967023028325
    Total Energy =                       -231.0667912960515764
  Basis Set: (AUG-CC-PVTZ AUX)
    Blend: AUG-CC-PVTZ-RI
    Molecular point group: c1

    Geometry (in Angstrom), charge = 0, multiplicity = 1:

       Center              X                  Y                   Z               Mass
    ------------   -----------------  -----------------  -----------------  -----------------
         O           -1.780525420924    -0.011018801715     0.290055137720    15.994914619570
         C            0.532748579076     0.000007198285    -0.436291862280    12.000000000000
         C            1.572565579076     0.878658198285     0.265248137720    12.000000000000
         C            0.598938579076    -1.452486801715     0.007312137720    12.000000000000
         C           -0.928988520924     0.626499898285    -0.194932062280    12.000000000000
         H            0.715505579076     0.066458198285    -1.519784862280     1.007825032230
         H            1.503126579076     1.922371198285    -0.056306862280     1.007825032230
         H            2.582427579076     0.524421198285     0.043652137720     1.007825032230
         H            1.430839579076     0.844587198285     1.349563137720     1.007825032230
         H            1.587370579076    -1.871485801715    -0.199155862280     1.007825032230
         H           -0.151717420924    -2.055320801715    -0.507640862280     1.007825032230
         H            0.405725579076    -1.530835801715     1.079939137720     1.007825032230
         H           -0.952814420924     1.647447198285    -0.523104862280     1.007825032230

  Basis Set: AUG-CC-PVTZ
    Blend: AUG-CC-PVTZ
  Basis Set: (AUG-CC-PVTZ AUX)
    Blend: AUG-CC-PVTZ-JKFIT
	 Reference Energy          =    -231.0667912960515764 [Eh]
	 Singles Energy            =      -0.0000000000000000 [Eh]
	 Same-Spin Energy          =      -0.2288448378681397 [Eh]
	 Opposite-Spin Energy      =      -0.7914707458712065 [Eh]
	 Correlation Energy        =      -1.0203155837393461 [Eh]
	 Total Energy              =    -232.0871068797909231 [Eh]

	 ================> DF-SCS-MP2 Energies <==================
	-----------------------------------------------------------
	 SCS Same-Spin Scale       =       0.3333333333333333 [-]
	 SCS Opposite-Spin Scale   =       1.2000000000000000 [-]
	 SCS Same-Spin Energy      =      -0.0762816126227132 [Eh]
	 SCS Opposite-Spin Energy  =      -0.9497648950454477 [Eh]
	 SCS Correlation Energy    =      -1.0260465076681609 [Eh]
	 SCS Total Energy          =    -232.0928378037197319 [Eh]
	-----------------------------------------------------------

  Dipole Moment: [D]
     X:     1.9334      Y:     0.9693      Z:    -0.9205     Total:     2.3505

*** Psi4 exiting successfully. Buy a developer a beer!
