                               Psi4 1.3.2 release

  ==> Input File <==

--------------------------------------------------------------------------
#psi4
#
memory 32 gb

molecule  {
0 1
  O       -1.7956590    -0.0045330     0.2925540
  C        0.5176150     0.0064930    -0.4337930
  C        1.5179074     0.9171498     0.2842074
  C        0.5838050    -1.4460010     0.0098110
  C       -0.8310493     0.6326592    -0.1793634
  H        0.7003720     0.0729440    -1.5172860
  H        1.4879930     1.9288570    -0.0538080
  H        2.5672940     0.5309070     0.0461510
  H        1.4157060     0.8510730     1.3520620
  H        1.5722370    -1.8650000    -0.1966570
  H       -0.1668510    -2.0488350    -0.5051420
  H        0.3905920    -1.5243500     1.0824380
  H       -0.9679480     1.6539330    -0.5206060
units angstrom
no_reorient  #important for SAPT in psi4, default
symmetry c1  #important for SAPT in psi4, default
}

set PROPERTIES_ORIGIN ["COM"]
properties('MP2/aug-cc-pvtz', properties = ['dipole'])
--------------------------------------------------------------------------

    Molecular point group: c1
  Charge       = 0
  Multiplicity = 1
  Basis Set: AUG-CC-PVTZ
    Blend: AUG-CC-PVTZ
  Basis Set: (AUG-CC-PVTZ AUX)
    Blend: AUG-CC-PVTZ-JKFIT

    Orbital Energies [Eh]
    ---------------------

    Doubly Occupied:

       1A    -20.556195     2A    -11.332707     3A    -11.250898
       4A    -11.235963     5A    -11.219901     6A     -1.366048
       7A     -1.096386     8A     -0.948004     9A     -0.890053
      10A     -0.766829    11A     -0.681654    12A     -0.632116
      13A     -0.627595    14A     -0.572143    15A     -0.541536
      16A     -0.529295    17A     -0.512412    18A     -0.500011
      19A     -0.478264    20A     -0.419711

  @DF-RHF Final Energy:  -231.06289603674358

   => Energetics <=

    Nuclear Repulsion Energy =            177.0567420543998480
    One-Electron Energy =                -663.9238305741764634
    Two-Electron Energy =                 255.8041924830330629
    Total Energy =                       -231.0628960367435809
  Basis Set: (AUG-CC-PVTZ AUX)
    Blend: AUG-CC-PVTZ-RI
    Molecular point group: c1

    Geometry (in Angstrom), charge = 0, multiplicity = 1:

       Center              X                  Y                   Z               Mass
    ------------   -----------------  -----------------  -----------------  -----------------
         O           -1.792773670139    -0.016294470750     0.285137366123    15.994914619570
         C            0.520500329861    -0.005268470750    -0.441209633877    12.000000000000
         C            1.520792729861     0.905388329250     0.276790766123    12.000000000000
         C            0.586690329861    -1.457762470750     0.002394366123    12.000000000000
         C           -0.828163970139     0.620897729250    -0.186780033877    12.000000000000
         H            0.703257329861     0.061182529250    -1.524702633877     1.007825032230
         H            1.490878329861     1.917095529250    -0.061224633877     1.007825032230
         H            2.570179329861     0.519145529250     0.038734366123     1.007825032230
         H            1.418591329861     0.839311529250     1.344645366123     1.007825032230
         H            1.575122329861    -1.876761470750    -0.204073633877     1.007825032230
         H           -0.163965670139    -2.060596470750    -0.512558633877     1.007825032230
         H            0.393477329861    -1.536111470750     1.075021366123     1.007825032230
         H           -0.965062670139     1.642171529250    -0.528022633877     1.007825032230

  Basis Set: AUG-CC-PVTZ
    Blend: AUG-CC-PVTZ
  Basis Set: (AUG-CC-PVTZ AUX)
    Blend: AUG-CC-PVTZ-JKFIT
	 Reference Energy          =    -231.0628960367435809 [Eh]
	 Singles Energy            =      -0.0000000000000000 [Eh]
	 Same-Spin Energy          =      -0.2314084604014638 [Eh]
	 Opposite-Spin Energy      =      -0.7965631174116675 [Eh]
	 Correlation Energy        =      -1.0279715778131313 [Eh]
	 Total Energy              =    -232.0908676145567142 [Eh]

	 ================> DF-SCS-MP2 Energies <==================
	-----------------------------------------------------------
	 SCS Same-Spin Scale       =       0.3333333333333333 [-]
	 SCS Opposite-Spin Scale   =       1.2000000000000000 [-]
	 SCS Same-Spin Energy      =      -0.0771361534671546 [Eh]
	 SCS Opposite-Spin Energy  =      -0.9558757408940010 [Eh]
	 SCS Correlation Energy    =      -1.0330118943611555 [Eh]
	 SCS Total Energy          =    -232.0959079311047333 [Eh]
	-----------------------------------------------------------

  Dipole Moment: [D]
     X:     2.4860      Y:     0.9389      Z:    -1.0280     Total:     2.8493

*** Psi4 exiting successfully. Buy a developer a beer!
