                               Psi4 1.4a3.dev225

  ==> Input File <==

--------------------------------------------------------------------------
#psi4
#
memory 32 gb

molecule  {
0 1
  O       -1.8841100    -0.0754290    -0.2841020
  C        0.4339560     0.0114880     0.4275350
  C        1.5032440    -0.8397350    -0.2682130
  C        0.4423580     1.4601130    -0.0387010
  C       -0.9005739    -0.6405756     0.2270425
  H        0.6252000    -0.0321580     1.5111040
  H        1.4713110    -1.8814970     0.0665680
  H        2.5004740    -0.4466550    -0.0533610
  H        1.3573160    -0.8234960    -1.3527830
  H        1.4146230     1.9201520     0.1587670
  H       -0.3302150     2.0412490     0.4696940
  H        0.2436030     1.5145060    -1.1122270
  H       -0.9884720    -1.6909150     0.5483740
units angstrom
no_reorient  #important for SAPT in psi4, default
symmetry c1  #important for SAPT in psi4, default
}

set PROPERTIES_ORIGIN ["COM"]
properties('MP2/aug-cc-pvtz', properties = ['dipole'])
--------------------------------------------------------------------------

    Molecular point group: c1
  Charge       = 0
  Multiplicity = 1
  Basis Set: AUG-CC-PVTZ
    Blend: AUG-CC-PVTZ
  Basis Set: (AUG-CC-PVTZ AUX)
    Blend: AUG-CC-PVTZ-JKFIT

    Orbital Energies [Eh]
    ---------------------

    Doubly Occupied:

       1A    -20.557038     2A    -11.333847     3A    -11.250832
       4A    -11.236743     5A    -11.219835     6A     -1.369492
       7A     -1.096591     8A     -0.946354     9A     -0.892717
      10A     -0.762851    11A     -0.680489    12A     -0.634401
      13A     -0.624935    14A     -0.566436    15A     -0.551482
      16A     -0.531644    17A     -0.514917    18A     -0.495403
      19A     -0.478172    20A     -0.422095

  @DF-RHF Final Energy:  -231.06811778014475

   => Energetics <=

    Nuclear Repulsion Energy =            176.9465301983979657
    One-Electron Energy =                -663.6967494211049825
    Two-Electron Energy =                 255.6821014425622707
    Total Energy =                       -231.0681177801447461
  Basis Set: (AUG-CC-PVTZ AUX)
    Blend: AUG-CC-PVTZ-RI
    Molecular point group: c1

    Geometry (in Angstrom), charge = 0, multiplicity = 1:

       Center              X                  Y                   Z               Mass
    ------------   -----------------  -----------------  -----------------  -----------------
         O           -1.800214796379    -0.065643687306    -0.282239023437    15.994914619570
         C            0.517851203621     0.021273312694     0.429397976563    12.000000000000
         C            1.587139203621    -0.829949687306    -0.266350023437    12.000000000000
         C            0.526253203621     1.469898312694    -0.036838023437    12.000000000000
         C           -0.816678696379    -0.630790287306     0.228905476563    12.000000000000
         H            0.709095203621    -0.022372687306     1.512966976563     1.007825032230
         H            1.555206203621    -1.871711687306     0.068430976563     1.007825032230
         H            2.584369203621    -0.436869687306    -0.051498023437     1.007825032230
         H            1.441211203621    -0.813710687306    -1.350920023437     1.007825032230
         H            1.498518203621     1.929937312694     0.160629976563     1.007825032230
         H           -0.246319796379     2.051034312694     0.471556976563     1.007825032230
         H            0.327498203621     1.524291312694    -1.110364023437     1.007825032230
         H           -0.904576796379    -1.681129687306     0.550236976563     1.007825032230

  Basis Set: AUG-CC-PVTZ
    Blend: AUG-CC-PVTZ
  Basis Set: (AUG-CC-PVTZ AUX)
    Blend: AUG-CC-PVTZ-JKFIT
	 Reference Energy          =    -231.0681177801447461 [Eh]
	 Singles Energy            =      -0.0000000000000000 [Eh]
	 Same-Spin Energy          =      -0.2311739213793292 [Eh]
	 Opposite-Spin Energy      =      -0.7960325433368294 [Eh]
	 Correlation Energy        =      -1.0272064647161585 [Eh]
	 Total Energy              =    -232.0953242448609046 [Eh]

	 ================> DF-SCS-MP2 Energies <==================
	-----------------------------------------------------------
	 SCS Same-Spin Scale       =       0.3333333333333333 [-]
	 SCS Opposite-Spin Scale   =       1.2000000000000000 [-]
	 SCS Same-Spin Energy      =      -0.0770579737931097 [Eh]
	 SCS Opposite-Spin Energy  =      -0.9552390520041952 [Eh]
	 SCS Correlation Energy    =      -1.0322970257973050 [Eh]
	 SCS Total Energy          =    -232.1004148059420515 [Eh]
	-----------------------------------------------------------

  Dipole Moment: [D]
     X:     2.5627      Y:    -0.7774      Z:     1.0271     Total:     2.8682

*** Psi4 exiting successfully. Buy a developer a beer!
