                               Psi4 1.3.2 release

  ==> Input File <==

--------------------------------------------------------------------------
#psi4
#
memory 32 gb

molecule  {
0 1
  O       -1.7956590    -0.0045330     0.2925540
  C        0.5004416    -0.0389994    -0.4135910
  C        1.5574320     0.8851440     0.2677470
  C        0.5838050    -1.4460010     0.0098110
  C       -0.8532490     0.5940380    -0.2074380
  H        0.7003720     0.0729440    -1.5172860
  H        1.4879930     1.9288570    -0.0538080
  H        2.5672940     0.5309070     0.0461510
  H        1.4157060     0.8510730     1.3520620
  H        1.5722370    -1.8650000    -0.1966570
  H       -0.1668510    -2.0488350    -0.5051420
  H        0.3905920    -1.5243500     1.0824380
  H       -1.0048992     1.6526860    -0.5088912
units angstrom
no_reorient  #important for SAPT in psi4, default
symmetry c1  #important for SAPT in psi4, default
}

set PROPERTIES_ORIGIN ["COM"]
properties('MP2/aug-cc-pvtz', properties = ['dipole'])
--------------------------------------------------------------------------

    Molecular point group: c1
  Charge       = 0
  Multiplicity = 1
  Basis Set: AUG-CC-PVTZ
    Blend: AUG-CC-PVTZ
  Basis Set: (AUG-CC-PVTZ AUX)
    Blend: AUG-CC-PVTZ-JKFIT

    Orbital Energies [Eh]
    ---------------------

    Doubly Occupied:

       1A    -20.555221     2A    -11.330907     3A    -11.251732
       4A    -11.236537     5A    -11.217671     6A     -1.382621
       7A     -1.096474     8A     -0.949375     9A     -0.886611
      10A     -0.759392    11A     -0.681557    12A     -0.636548
      13A     -0.627551    14A     -0.566408    15A     -0.551868
      16A     -0.537198    17A     -0.517689    18A     -0.502402
      19A     -0.470161    20A     -0.418436

  @DF-RHF Final Energy:  -231.06784715802272

   => Energetics <=

    Nuclear Repulsion Energy =            177.4616393255141418
    One-Electron Energy =                -664.7062539113279627
    Two-Electron Energy =                 256.1767674277910487
    Total Energy =                       -231.0678471580227438
  Basis Set: (AUG-CC-PVTZ AUX)
    Blend: AUG-CC-PVTZ-RI
    Molecular point group: c1

    Geometry (in Angstrom), charge = 0, multiplicity = 1:

       Center              X                  Y                   Z               Mass
    ------------   -----------------  -----------------  -----------------  -----------------
         O           -1.792282085821     0.003060756254     0.289025781256    15.994914619570
         C            0.503818514179    -0.031405643746    -0.417119218744    12.000000000000
         C            1.560808914179     0.892737756254     0.264218781256    12.000000000000
         C            0.587181914179    -1.438407243746     0.006282781256    12.000000000000
         C           -0.849872085821     0.601631756254    -0.210966218744    12.000000000000
         H            0.703748914179     0.080537756254    -1.520814218744     1.007825032230
         H            1.491369914179     1.936450756254    -0.057336218744     1.007825032230
         H            2.570670914179     0.538500756254     0.042622781256     1.007825032230
         H            1.419082914179     0.858666756254     1.348533781256     1.007825032230
         H            1.575613914179    -1.857406243746    -0.200185218744     1.007825032230
         H           -0.163474085821    -2.041241243746    -0.508670218744     1.007825032230
         H            0.393968914179    -1.516756243746     1.078909781256     1.007825032230
         H           -1.001522285821     1.660279756254    -0.512419418744     1.007825032230

  Basis Set: AUG-CC-PVTZ
    Blend: AUG-CC-PVTZ
  Basis Set: (AUG-CC-PVTZ AUX)
    Blend: AUG-CC-PVTZ-JKFIT
	 Reference Energy          =    -231.0678471580227153 [Eh]
	 Singles Energy            =      -0.0000000000000000 [Eh]
	 Same-Spin Energy          =      -0.2308763945791503 [Eh]
	 Opposite-Spin Energy      =      -0.7948918830186587 [Eh]
	 Correlation Energy        =      -1.0257682775978090 [Eh]
	 Total Energy              =    -232.0936154356205350 [Eh]

	 ================> DF-SCS-MP2 Energies <==================
	-----------------------------------------------------------
	 SCS Same-Spin Scale       =       0.3333333333333333 [-]
	 SCS Opposite-Spin Scale   =       1.2000000000000000 [-]
	 SCS Same-Spin Energy      =      -0.0769587981930501 [Eh]
	 SCS Opposite-Spin Energy  =      -0.9538702596223904 [Eh]
	 SCS Correlation Energy    =      -1.0308290578154404 [Eh]
	 SCS Total Energy          =    -232.0986762158381680 [Eh]
	-----------------------------------------------------------

  Dipole Moment: [D]
     X:     2.4588      Y:     0.8321      Z:    -0.9932     Total:     2.7793

*** Psi4 exiting successfully. Buy a developer a beer!
