                               Psi4 1.4a3.dev225

  ==> Input File <==

--------------------------------------------------------------------------
#psi4
#
memory 32 gb

molecule  {
0 1
  O       -1.8841100    -0.0754290    -0.2841020
  C        0.4339560     0.0114880     0.4275350
  C        1.5032440    -0.8397350    -0.2682130
  C        0.4423580     1.4601130    -0.0387010
  C       -0.9321941    -0.6224064     0.2106095
  H        0.6252000    -0.0321580     1.5111040
  H        1.4713110    -1.8814970     0.0665680
  H        2.5004740    -0.4466550    -0.0533610
  H        1.3573160    -0.8234960    -1.3527830
  H        1.4146230     1.9201520     0.1587670
  H       -0.3302150     2.0412490     0.4696940
  H        0.2436030     1.5145060    -1.1122270
  H       -0.9884720    -1.6909150     0.5483740
units angstrom
no_reorient  #important for SAPT in psi4, default
symmetry c1  #important for SAPT in psi4, default
}

set PROPERTIES_ORIGIN ["COM"]
properties('MP2/aug-cc-pvtz', properties = ['dipole'])
--------------------------------------------------------------------------

    Molecular point group: c1
  Charge       = 0
  Multiplicity = 1
  Basis Set: AUG-CC-PVTZ
    Blend: AUG-CC-PVTZ
  Basis Set: (AUG-CC-PVTZ AUX)
    Blend: AUG-CC-PVTZ-JKFIT

    Orbital Energies [Eh]
    ---------------------

    Doubly Occupied:

       1A    -20.559356     2A    -11.331066     3A    -11.249224
       4A    -11.235004     5A    -11.218734     6A     -1.396634
       7A     -1.092199     8A     -0.944836     9A     -0.885146
      10A     -0.758830    11A     -0.681434    12A     -0.643858
      13A     -0.624752    14A     -0.567824    15A     -0.551248
      16A     -0.533252    17A     -0.524104    18A     -0.494612
      19A     -0.484098    20A     -0.414454

  @DF-RHF Final Energy:  -231.07266617629904

   => Energetics <=

    Nuclear Repulsion Energy =            177.2454587759230549
    One-Electron Energy =                -664.2549210583440527
    Two-Electron Energy =                 255.9367961061219603
    Total Energy =                       -231.0726661762990375
  Basis Set: (AUG-CC-PVTZ AUX)
    Blend: AUG-CC-PVTZ-RI
    Molecular point group: c1

    Geometry (in Angstrom), charge = 0, multiplicity = 1:

       Center              X                  Y                   Z               Mass
    ------------   -----------------  -----------------  -----------------  -----------------
         O           -1.794948969482    -0.068669470257    -0.279502376186    15.994914619570
         C            0.523117030518     0.018247529743     0.432134623814    12.000000000000
         C            1.592405030518    -0.832975470257    -0.263613376186    12.000000000000
         C            0.531519030518     1.466872529743    -0.034101376186    12.000000000000
         C           -0.843033069482    -0.615646870257     0.215209123814    12.000000000000
         H            0.714361030518    -0.025398470257     1.515703623814     1.007825032230
         H            1.560472030518    -1.874737470257     0.071167623814     1.007825032230
         H            2.589635030518    -0.439895470257    -0.048761376186     1.007825032230
         H            1.446477030518    -0.816736470257    -1.348183376186     1.007825032230
         H            1.503784030518     1.926911529743     0.163366623814     1.007825032230
         H           -0.241053969482     2.048008529743     0.474293623814     1.007825032230
         H            0.332764030518     1.521265529743    -1.107627376186     1.007825032230
         H           -0.899310969482    -1.684155470257     0.552973623814     1.007825032230

  Basis Set: AUG-CC-PVTZ
    Blend: AUG-CC-PVTZ
  Basis Set: (AUG-CC-PVTZ AUX)
    Blend: AUG-CC-PVTZ-JKFIT
	 Reference Energy          =    -231.0726661762990375 [Eh]
	 Singles Energy            =      -0.0000000000000000 [Eh]
	 Same-Spin Energy          =      -0.2300437695610856 [Eh]
	 Opposite-Spin Energy      =      -0.7934996015545025 [Eh]
	 Correlation Energy        =      -1.0235433711155881 [Eh]
	 Total Energy              =    -232.0962095474146167 [Eh]

	 ================> DF-SCS-MP2 Energies <==================
	-----------------------------------------------------------
	 SCS Same-Spin Scale       =       0.3333333333333333 [-]
	 SCS Opposite-Spin Scale   =       1.2000000000000000 [-]
	 SCS Same-Spin Energy      =      -0.0766812565203619 [Eh]
	 SCS Opposite-Spin Energy  =      -0.9521995218654029 [Eh]
	 SCS Correlation Energy    =      -1.0288807783857647 [Eh]
	 SCS Total Energy          =    -232.1015469546848067 [Eh]
	-----------------------------------------------------------

  Dipole Moment: [D]
     X:     2.4006      Y:    -0.7060      Z:     0.9591     Total:     2.6798

*** Psi4 exiting successfully. Buy a developer a beer!
