                               Psi4 1.3.2 release

  ==> Input File <==

--------------------------------------------------------------------------
#psi4
#
memory 32 gb

molecule  {
0 1
  O       -1.8194690     0.0306062     0.2879198
  C        0.5329166     0.0524822    -0.4543712
  C        1.5574320     0.8851440     0.2677470
  C        0.5838050    -1.4460010     0.0098110
  C       -0.8532490     0.5940380    -0.2074380
  H        0.7003720     0.0729440    -1.5172860
  H        1.4879930     1.9288570    -0.0538080
  H        2.5672940     0.5309070     0.0461510
  H        1.4157060     0.8510730     1.3520620
  H        1.5722370    -1.8650000    -0.1966570
  H       -0.1668510    -2.0488350    -0.5051420
  H        0.3905920    -1.5243500     1.0824380
  H       -0.9679480     1.6539330    -0.5206060
units angstrom
no_reorient  #important for SAPT in psi4, default
symmetry c1  #important for SAPT in psi4, default
}

set PROPERTIES_ORIGIN ["COM"]
properties('MP2/aug-cc-pvtz', properties = ['dipole'])
--------------------------------------------------------------------------

    Molecular point group: c1
  Charge       = 0
  Multiplicity = 1
  Basis Set: AUG-CC-PVTZ
    Blend: AUG-CC-PVTZ
  Basis Set: (AUG-CC-PVTZ AUX)
    Blend: AUG-CC-PVTZ-JKFIT

    Orbital Energies [Eh]
    ---------------------

    Doubly Occupied:

       1A    -20.559809     2A    -11.332492     3A    -11.250337
       4A    -11.235384     5A    -11.221479     6A     -1.383522
       7A     -1.096603     8A     -0.943263     9A     -0.891075
      10A     -0.763367    11A     -0.681349    12A     -0.641180
      13A     -0.623988    14A     -0.570899    15A     -0.551361
      16A     -0.532090    17A     -0.521032    18A     -0.492600
      19A     -0.484601    20A     -0.416857

  @DF-RHF Final Energy:  -231.06818768554518

   => Energetics <=

    Nuclear Repulsion Energy =            176.7349236273853137
    One-Electron Energy =                -663.2196468722123655
    Two-Electron Energy =                 255.4165355592818401
    Total Energy =                       -231.0681876855451833
  Basis Set: (AUG-CC-PVTZ AUX)
    Blend: AUG-CC-PVTZ-RI
    Molecular point group: c1

    Geometry (in Angstrom), charge = 0, multiplicity = 1:

       Center              X                  Y                   Z               Mass
    ------------   -----------------  -----------------  -----------------  -----------------
         O           -1.816731872348     0.015147753241     0.292375377297    15.994914619570
         C            0.535653727652     0.037023753241    -0.449915622703    12.000000000000
         C            1.560169127652     0.869685553241     0.272202577297    12.000000000000
         C            0.586542127652    -1.461459446759     0.014266577297    12.000000000000
         C           -0.850511872348     0.578579553241    -0.202982422703    12.000000000000
         H            0.703109127652     0.057485553241    -1.512830422703     1.007825032230
         H            1.490730127652     1.913398553241    -0.049352422703     1.007825032230
         H            2.570031127652     0.515448553241     0.050606577297     1.007825032230
         H            1.418443127652     0.835614553241     1.356517577297     1.007825032230
         H            1.574974127652    -1.880458446759    -0.192201422703     1.007825032230
         H           -0.164113872348    -2.064293446759    -0.500686422703     1.007825032230
         H            0.393329127652    -1.539808446759     1.086893577297     1.007825032230
         H           -0.965210872348     1.638474553241    -0.516150422703     1.007825032230

  Basis Set: AUG-CC-PVTZ
    Blend: AUG-CC-PVTZ
  Basis Set: (AUG-CC-PVTZ AUX)
    Blend: AUG-CC-PVTZ-JKFIT
	 Reference Energy          =    -231.0681876855451833 [Eh]
	 Singles Energy            =      -0.0000000000000000 [Eh]
	 Same-Spin Energy          =      -0.2304402850103108 [Eh]
	 Opposite-Spin Energy      =      -0.7947220585581990 [Eh]
	 Correlation Energy        =      -1.0251623435685098 [Eh]
	 Total Energy              =    -232.0933500291136795 [Eh]

	 ================> DF-SCS-MP2 Energies <==================
	-----------------------------------------------------------
	 SCS Same-Spin Scale       =       0.3333333333333333 [-]
	 SCS Opposite-Spin Scale   =       1.2000000000000000 [-]
	 SCS Same-Spin Energy      =      -0.0768134283367703 [Eh]
	 SCS Opposite-Spin Energy  =      -0.9536664702698388 [Eh]
	 SCS Correlation Energy    =      -1.0304798986066090 [Eh]
	 SCS Total Energy          =    -232.0986675841517979 [Eh]
	-----------------------------------------------------------

  Dipole Moment: [D]
     X:     2.5066      Y:     0.7886      Z:    -0.9914     Total:     2.8085

*** Psi4 exiting successfully. Buy a developer a beer!
