                               Psi4 1.3.2 release

  ==> Input File <==

--------------------------------------------------------------------------
#psi4
#
memory 32 gb

molecule  {
0 1
  O       -1.7956590    -0.0045330     0.2925540
  C        0.5176150     0.0064930    -0.4337930
  C        1.5574320     0.8851440     0.2677470
  C        0.5838050    -1.4460010     0.0098110
  C       -0.8520477     0.5917223    -0.1945346
  H        0.7089885     0.0688841    -1.5160390
  H        1.4879930     1.9288570    -0.0538080
  H        2.5672940     0.5309070     0.0461510
  H        1.4157060     0.8510730     1.3520620
  H        1.5722370    -1.8650000    -0.1966570
  H       -0.1668510    -2.0488350    -0.5051420
  H        0.3905920    -1.5243500     1.0824380
  H       -0.9679480     1.6539330    -0.5206060
units angstrom
no_reorient  #important for SAPT in psi4, default
symmetry c1  #important for SAPT in psi4, default
}

set PROPERTIES_ORIGIN ["COM"]
properties('MP2/aug-cc-pvtz', properties = ['dipole'])
--------------------------------------------------------------------------

    Molecular point group: c1
  Charge       = 0
  Multiplicity = 1
  Basis Set: AUG-CC-PVTZ
    Blend: AUG-CC-PVTZ
  Basis Set: (AUG-CC-PVTZ AUX)
    Blend: AUG-CC-PVTZ-JKFIT

    Orbital Energies [Eh]
    ---------------------

    Doubly Occupied:

       1A    -20.558523     2A    -11.331896     3A    -11.249271
       4A    -11.235266     5A    -11.218823     6A     -1.387200
       7A     -1.095302     8A     -0.945816     9A     -0.887962
      10A     -0.759928    11A     -0.682226    12A     -0.641057
      13A     -0.625029    14A     -0.567550    15A     -0.551461
      16A     -0.532842    17A     -0.520211    18A     -0.495073
      19A     -0.482518    20A     -0.417830

  @DF-RHF Final Energy:  -231.07162054296629

   => Energetics <=

    Nuclear Repulsion Energy =            177.3463331679407986
    One-Electron Energy =                -664.4643385027978866
    Two-Electron Energy =                 256.0463847918908300
    Total Energy =                       -231.0716205429662864
  Basis Set: (AUG-CC-PVTZ AUX)
    Blend: AUG-CC-PVTZ-RI
    Molecular point group: c1

    Geometry (in Angstrom), charge = 0, multiplicity = 1:

       Center              X                  Y                   Z               Mass
    ------------   -----------------  -----------------  -----------------  -----------------
         O           -1.795979419390    -0.004090274278     0.290387650466    15.994914619570
         C            0.517294580610     0.006935725722    -0.435959349534    12.000000000000
         C            1.557111580610     0.885586725722     0.265580650466    12.000000000000
         C            0.583484580610    -1.445558274278     0.007644650466    12.000000000000
         C           -0.852368119390     0.592165025722    -0.196700949534    12.000000000000
         H            0.708668080610     0.069326825722    -1.518205349534     1.007825032230
         H            1.487672580610     1.929299725722    -0.055974349534     1.007825032230
         H            2.566973580610     0.531349725722     0.043984650466     1.007825032230
         H            1.415385580610     0.851515725722     1.349895650466     1.007825032230
         H            1.571916580610    -1.864557274278    -0.198823349534     1.007825032230
         H           -0.167171419390    -2.048392274278    -0.507308349534     1.007825032230
         H            0.390271580610    -1.523907274278     1.080271650466     1.007825032230
         H           -0.968268419390     1.654375725722    -0.522772349534     1.007825032230

  Basis Set: AUG-CC-PVTZ
    Blend: AUG-CC-PVTZ
  Basis Set: (AUG-CC-PVTZ AUX)
    Blend: AUG-CC-PVTZ-JKFIT
	 Reference Energy          =    -231.0716205429662864 [Eh]
	 Singles Energy            =      -0.0000000000000000 [Eh]
	 Same-Spin Energy          =      -0.2304921652121248 [Eh]
	 Opposite-Spin Energy      =      -0.7943743938987300 [Eh]
	 Correlation Energy        =      -1.0248665591108548 [Eh]
	 Total Energy              =    -232.0964871020771341 [Eh]

	 ================> DF-SCS-MP2 Energies <==================
	-----------------------------------------------------------
	 SCS Same-Spin Scale       =       0.3333333333333333 [-]
	 SCS Opposite-Spin Scale   =       1.2000000000000000 [-]
	 SCS Same-Spin Energy      =      -0.0768307217373749 [Eh]
	 SCS Opposite-Spin Energy  =      -0.9532492726784759 [Eh]
	 SCS Correlation Energy    =      -1.0300799944158510 [Eh]
	 SCS Total Energy          =    -232.1017005373821291 [Eh]
	-----------------------------------------------------------

  Dipole Moment: [D]
     X:     2.4359      Y:     0.8291      Z:    -0.9854     Total:     2.7554

*** Psi4 exiting successfully. Buy a developer a beer!
