                               Psi4 1.3.2 release

  ==> Input File <==

--------------------------------------------------------------------------
#psi4
#
memory 32 gb

molecule  {
0 1
  O       -1.7707008    -0.0389429     0.2965790
  C        0.5006432    -0.0387804    -0.4129391
  C        1.5574320     0.8851440     0.2677470
  C        0.5838050    -1.4460010     0.0098110
  C       -0.8532490     0.5940380    -0.2074380
  H        0.7003720     0.0729440    -1.5172860
  H        1.4879930     1.9288570    -0.0538080
  H        2.5672940     0.5309070     0.0461510
  H        1.4157060     0.8510730     1.3520620
  H        1.5722370    -1.8650000    -0.1966570
  H       -0.1668510    -2.0488350    -0.5051420
  H        0.3905920    -1.5243500     1.0824380
  H       -0.9679480     1.6539330    -0.5206060
units angstrom
no_reorient  #important for SAPT in psi4, default
symmetry c1  #important for SAPT in psi4, default
}

set PROPERTIES_ORIGIN ["COM"]
properties('MP2/aug-cc-pvtz', properties = ['dipole'])
--------------------------------------------------------------------------

    Molecular point group: c1
  Charge       = 0
  Multiplicity = 1
  Basis Set: AUG-CC-PVTZ
    Blend: AUG-CC-PVTZ
  Basis Set: (AUG-CC-PVTZ AUX)
    Blend: AUG-CC-PVTZ-JKFIT

    Orbital Energies [Eh]
    ---------------------

    Doubly Occupied:

       1A    -20.556327     2A    -11.331945     3A    -11.249397
       4A    -11.235778     5A    -11.216195     6A     -1.383520
       7A     -1.095123     8A     -0.948549     9A     -0.887414
      10A     -0.758809    11A     -0.681226    12A     -0.638047
      13A     -0.626821    14A     -0.565873    15A     -0.551579
      16A     -0.535516    17A     -0.517538    18A     -0.501597
      19A     -0.469510    20A     -0.418344

  @DF-RHF Final Energy:  -231.06725295766421

   => Energetics <=

    Nuclear Repulsion Energy =            177.7965578496704495
    One-Electron Energy =                -665.3894048737862477
    Two-Electron Energy =                 256.5255940664516174
    Total Energy =                       -231.0672529576642091
  Basis Set: (AUG-CC-PVTZ AUX)
    Blend: AUG-CC-PVTZ-RI
    Molecular point group: c1

    Geometry (in Angstrom), charge = 0, multiplicity = 1:

       Center              X                  Y                   Z               Mass
    ------------   -----------------  -----------------  -----------------  -----------------
         O           -1.773414351515    -0.023764943046     0.292212619369    15.994914619570
         C            0.497929648485    -0.023602443046    -0.417305480631    12.000000000000
         C            1.554718448485     0.900321956954     0.263380619369    12.000000000000
         C            0.581091448485    -1.430823043046     0.005444619369    12.000000000000
         C           -0.855962551515     0.609215956954    -0.211804380631    12.000000000000
         H            0.697658448485     0.088121956954    -1.521652380631     1.007825032230
         H            1.485279448485     1.944034956954    -0.058174380631     1.007825032230
         H            2.564580448485     0.546084956954     0.041784619369     1.007825032230
         H            1.412992448485     0.866250956954     1.347695619369     1.007825032230
         H            1.569523448485    -1.849822043046    -0.201023380631     1.007825032230
         H           -0.169564551515    -2.033657043046    -0.509508380631     1.007825032230
         H            0.387878448485    -1.509172043046     1.078071619369     1.007825032230
         H           -0.970661551515     1.669110956954    -0.524972380631     1.007825032230

  Basis Set: AUG-CC-PVTZ
    Blend: AUG-CC-PVTZ
  Basis Set: (AUG-CC-PVTZ AUX)
    Blend: AUG-CC-PVTZ-JKFIT
	 Reference Energy          =    -231.0672529576642091 [Eh]
	 Singles Energy            =      -0.0000000000000000 [Eh]
	 Same-Spin Energy          =      -0.2310404174184030 [Eh]
	 Opposite-Spin Energy      =      -0.7951097930433877 [Eh]
	 Correlation Energy        =      -1.0261502104617908 [Eh]
	 Total Energy              =    -232.0934031681260024 [Eh]

	 ================> DF-SCS-MP2 Energies <==================
	-----------------------------------------------------------
	 SCS Same-Spin Scale       =       0.3333333333333333 [-]
	 SCS Opposite-Spin Scale   =       1.2000000000000000 [-]
	 SCS Same-Spin Energy      =      -0.0770134724728010 [Eh]
	 SCS Opposite-Spin Energy  =      -0.9541317516520652 [Eh]
	 SCS Correlation Energy    =      -1.0311452241248662 [Eh]
	 SCS Total Energy          =    -232.0983981817890651 [Eh]
	-----------------------------------------------------------

  Dipole Moment: [D]
     X:     2.3836      Y:     0.9054      Z:    -0.9992     Total:     2.7386

*** Psi4 exiting successfully. Buy a developer a beer!
