                               Psi4 1.3.2 release

  ==> Input File <==

--------------------------------------------------------------------------
#psi4
#
memory 32 gb

molecule  {
0 1
  O       -1.7956590    -0.0045330     0.2925540
  C        0.5176150     0.0064930    -0.4337930
  C        1.5574320     0.8851440     0.2677470
  C        0.5838050    -1.4460010     0.0098110
  C       -1.0073281     0.4961748    -0.1256919
  H        0.7003720     0.0729440    -1.5172860
  H        1.4879930     1.9288570    -0.0538080
  H        2.5672940     0.5309070     0.0461510
  H        1.4157060     0.8510730     1.3520620
  H        1.5722370    -1.8650000    -0.1966570
  H       -0.1668510    -2.0488350    -0.5051420
  H        0.3905920    -1.5243500     1.0824380
  H       -0.9679480     1.6539330    -0.5206060
units angstrom
no_reorient  #important for SAPT in psi4, default
symmetry c1  #important for SAPT in psi4, default
}

set PROPERTIES_ORIGIN ["COM"]
properties('MP2/aug-cc-pvtz', properties = ['dipole'])
--------------------------------------------------------------------------

    Molecular point group: c1
  Charge       = 0
  Multiplicity = 1
  Basis Set: AUG-CC-PVTZ
    Blend: AUG-CC-PVTZ
  Basis Set: (AUG-CC-PVTZ AUX)
    Blend: AUG-CC-PVTZ-JKFIT

    Orbital Energies [Eh]
    ---------------------

    Doubly Occupied:

       1A    -20.574932     2A    -11.320446     3A    -11.239746
       4A    -11.226826     5A    -11.214562     6A     -1.546636
       7A     -1.075216     8A     -0.939039     9A     -0.849666
      10A     -0.756738    11A     -0.717534    12A     -0.681307
      13A     -0.649284    14A     -0.605900    15A     -0.557345
      16A     -0.552049    17A     -0.539725    18A     -0.489588
      19A     -0.484278    20A     -0.361381

  @DF-RHF Final Energy:  -230.99792430021341

   => Energetics <=

    Nuclear Repulsion Energy =            179.3985422816060407
    One-Electron Energy =                -668.0285360140990178
    Two-Electron Energy =                 257.6320694322795362
    Total Energy =                       -230.9979243002134126
  Basis Set: (AUG-CC-PVTZ AUX)
    Blend: AUG-CC-PVTZ-RI
    Molecular point group: c1

    Geometry (in Angstrom), charge = 0, multiplicity = 1:

       Center              X                  Y                   Z               Mass
    ------------   -----------------  -----------------  -----------------  -----------------
         O           -1.769999495887     0.011764814995     0.278940466317    15.994914619570
         C            0.543274504113     0.022790814995    -0.447406533683    12.000000000000
         C            1.583091504113     0.901441814995     0.254133466317    12.000000000000
         C            0.609464504113    -1.429703185005    -0.003802533683    12.000000000000
         C           -0.981668595887     0.512472614995    -0.139305433683    12.000000000000
         H            0.726031504113     0.089241814995    -1.530899533683     1.007825032230
         H            1.513652504113     1.945154814995    -0.067421533683     1.007825032230
         H            2.592953504113     0.547204814995     0.032537466317     1.007825032230
         H            1.441365504113     0.867370814995     1.338448466317     1.007825032230
         H            1.597896504113    -1.848702185005    -0.210270533683     1.007825032230
         H           -0.141191495887    -2.032537185005    -0.518755533683     1.007825032230
         H            0.416251504113    -1.508052185005     1.068824466317     1.007825032230
         H           -0.942288495887     1.670230814995    -0.534219533683     1.007825032230

  Basis Set: AUG-CC-PVTZ
    Blend: AUG-CC-PVTZ
  Basis Set: (AUG-CC-PVTZ AUX)
    Blend: AUG-CC-PVTZ-JKFIT
	 Reference Energy          =    -230.9979243002134126 [Eh]
	 Singles Energy            =      -0.0000000000000000 [Eh]
	 Same-Spin Energy          =      -0.2264239822877971 [Eh]
	 Opposite-Spin Energy      =      -0.7847554182871488 [Eh]
	 Correlation Energy        =      -1.0111794005749459 [Eh]
	 Total Energy              =    -232.0091037007883585 [Eh]

	 ================> DF-SCS-MP2 Energies <==================
	-----------------------------------------------------------
	 SCS Same-Spin Scale       =       0.3333333333333333 [-]
	 SCS Opposite-Spin Scale   =       1.2000000000000000 [-]
	 SCS Same-Spin Energy      =      -0.0754746607625990 [Eh]
	 SCS Opposite-Spin Energy  =      -0.9417065019445785 [Eh]
	 SCS Correlation Energy    =      -1.0171811627071776 [Eh]
	 SCS Total Energy          =    -232.0151054629205873 [Eh]
	-----------------------------------------------------------

  Dipole Moment: [D]
     X:     1.4595      Y:     0.1988      Z:    -0.5171     Total:     1.5611

*** Psi4 exiting successfully. Buy a developer a beer!
