                               Psi4 1.3.2 release

  ==> Input File <==

--------------------------------------------------------------------------
#psi4
#
memory 32 gb

molecule  {
0 1
  O       -1.7956590    -0.0045330     0.2925540
  C        0.5176150     0.0064930    -0.4337930
  C        1.5671171     0.8769737     0.2634975
  C        0.5838050    -1.4460010     0.0098110
  C       -0.8585390     0.5842690    -0.2145011
  H        0.7003720     0.0729440    -1.5172860
  H        1.4879930     1.9288570    -0.0538080
  H        2.5672940     0.5309070     0.0461510
  H        1.4157060     0.8510730     1.3520620
  H        1.5722370    -1.8650000    -0.1966570
  H       -0.1668510    -2.0488350    -0.5051420
  H        0.3905920    -1.5243500     1.0824380
  H       -0.9679480     1.6539330    -0.5206060
units angstrom
no_reorient  #important for SAPT in psi4, default
symmetry c1  #important for SAPT in psi4, default
}

set PROPERTIES_ORIGIN ["COM"]
properties('MP2/aug-cc-pvtz', properties = ['dipole'])
--------------------------------------------------------------------------

    Molecular point group: c1
  Charge       = 0
  Multiplicity = 1
  Basis Set: AUG-CC-PVTZ
    Blend: AUG-CC-PVTZ
  Basis Set: (AUG-CC-PVTZ AUX)
    Blend: AUG-CC-PVTZ-JKFIT

    Orbital Energies [Eh]
    ---------------------

    Doubly Occupied:

       1A    -20.558669     2A    -11.332059     3A    -11.249275
       4A    -11.235622     5A    -11.218723     6A     -1.387637
       7A     -1.095056     8A     -0.945484     9A     -0.889104
      10A     -0.759442    11A     -0.681293    12A     -0.641336
      13A     -0.624894    14A     -0.567165    15A     -0.553490
      16A     -0.532873    17A     -0.521015    18A     -0.493670
      19A     -0.482173    20A     -0.417987

  @DF-RHF Final Energy:  -231.07150389117356

   => Energetics <=

    Nuclear Repulsion Energy =            177.2931990731300118
    One-Electron Energy =                -664.3554707944992970
    Two-Electron Energy =                 255.9907678301956935
    Total Energy =                       -231.0715038911735633
  Basis Set: (AUG-CC-PVTZ AUX)
    Blend: AUG-CC-PVTZ-RI
    Molecular point group: c1

    Geometry (in Angstrom), charge = 0, multiplicity = 1:

       Center              X                  Y                   Z               Mass
    ------------   -----------------  -----------------  -----------------  -----------------
         O           -1.796390780727    -0.001545202727     0.294437870049    15.994914619570
         C            0.516883219273     0.009480797273    -0.431909129951    12.000000000000
         C            1.566385319273     0.879961497273     0.265381370049    12.000000000000
         C            0.583073219273    -1.443013202727     0.011694870049    12.000000000000
         C           -0.859270780727     0.587256797273    -0.212617229951    12.000000000000
         H            0.699640219273     0.075931797273    -1.515402129951     1.007825032230
         H            1.487261219273     1.931844797273    -0.051924129951     1.007825032230
         H            2.566562219273     0.533894797273     0.048034870049     1.007825032230
         H            1.414974219273     0.854060797273     1.353945870049     1.007825032230
         H            1.571505219273    -1.862012202727    -0.194773129951     1.007825032230
         H           -0.167582780727    -2.045847202727    -0.503258129951     1.007825032230
         H            0.389860219273    -1.521362202727     1.084321870049     1.007825032230
         H           -0.968679780727     1.656920797273    -0.518722129951     1.007825032230

  Basis Set: AUG-CC-PVTZ
    Blend: AUG-CC-PVTZ
  Basis Set: (AUG-CC-PVTZ AUX)
    Blend: AUG-CC-PVTZ-JKFIT
	 Reference Energy          =    -231.0715038911735633 [Eh]
	 Singles Energy            =      -0.0000000000000000 [Eh]
	 Same-Spin Energy          =      -0.2304651656719467 [Eh]
	 Opposite-Spin Energy      =      -0.7943284523980889 [Eh]
	 Correlation Energy        =      -1.0247936180700357 [Eh]
	 Total Energy              =    -232.0962975092436125 [Eh]

	 ================> DF-SCS-MP2 Energies <==================
	-----------------------------------------------------------
	 SCS Same-Spin Scale       =       0.3333333333333333 [-]
	 SCS Opposite-Spin Scale   =       1.2000000000000000 [-]
	 SCS Same-Spin Energy      =      -0.0768217218906489 [Eh]
	 SCS Opposite-Spin Energy  =      -0.9531941428777067 [Eh]
	 SCS Correlation Energy    =      -1.0300158647683555 [Eh]
	 SCS Total Energy          =    -232.1015197559419221 [Eh]
	-----------------------------------------------------------

  Dipole Moment: [D]
     X:     2.4350      Y:     0.8243      Z:    -0.9901     Total:     2.7548

*** Psi4 exiting successfully. Buy a developer a beer!
