                               Psi4 1.3.2 release

  ==> Input File <==

--------------------------------------------------------------------------
#psi4
#
memory 32 gb

molecule  {
0 1
  O       -1.7956590    -0.0045330     0.2925540
  C        0.5176150     0.0064930    -0.4337930
  C        1.5574320     0.8851440     0.2677470
  C        0.5838050    -1.4460010     0.0098110
  C       -0.8582618     0.6069868    -0.2851861
  H        0.6484040     0.0971865    -1.5230321
  H        1.4879930     1.9288570    -0.0538080
  H        2.5672940     0.5309070     0.0461510
  H        1.4157060     0.8510730     1.3520620
  H        1.5722370    -1.8650000    -0.1966570
  H       -0.1668510    -2.0488350    -0.5051420
  H        0.3905920    -1.5243500     1.0824380
  H       -0.9679480     1.6539330    -0.5206060
units angstrom
no_reorient  #important for SAPT in psi4, default
symmetry c1  #important for SAPT in psi4, default
}

set PROPERTIES_ORIGIN ["COM"]
properties('MP2/aug-cc-pvtz', properties = ['dipole'])
--------------------------------------------------------------------------

    Molecular point group: c1
  Charge       = 0
  Multiplicity = 1
  Basis Set: AUG-CC-PVTZ
    Blend: AUG-CC-PVTZ
  Basis Set: (AUG-CC-PVTZ AUX)
    Blend: AUG-CC-PVTZ-JKFIT

    Orbital Energies [Eh]
    ---------------------

    Doubly Occupied:

       1A    -20.556250     2A    -11.334140     3A    -11.251364
       4A    -11.237177     5A    -11.219717     6A     -1.359530
       7A     -1.095077     8A     -0.946274     9A     -0.897082
      10A     -0.766938    11A     -0.675137    12A     -0.629641
      13A     -0.626844    14A     -0.566226    15A     -0.551057
      16A     -0.530917    17A     -0.513429    18A     -0.495549
      19A     -0.474847    20A     -0.421514

  @DF-RHF Final Energy:  -231.06197861691419

   => Energetics <=

    Nuclear Repulsion Energy =            176.6092011947962419
    One-Electron Energy =                -663.0449349999353217
    Two-Electron Energy =                 255.3737551882248908
    Total Energy =                       -231.0619786169141889
  Basis Set: (AUG-CC-PVTZ AUX)
    Blend: AUG-CC-PVTZ-RI
    Molecular point group: c1

    Geometry (in Angstrom), charge = 0, multiplicity = 1:

       Center              X                  Y                   Z               Mass
    ------------   -----------------  -----------------  -----------------  -----------------
         O           -1.794097203831    -0.007028175586     0.305581982704    15.994914619570
         C            0.519176796169     0.003997824414    -0.420765017296    12.000000000000
         C            1.558993796169     0.882648824414     0.280774982704    12.000000000000
         C            0.585366796169    -1.448496175586     0.022838982704    12.000000000000
         C           -0.856700003831     0.604491624414    -0.272158117296    12.000000000000
         H            0.649965796169     0.094691324414    -1.510004117296     1.007825032230
         H            1.489554796169     1.926361824414    -0.040780017296     1.007825032230
         H            2.568855796169     0.528411824414     0.059178982704     1.007825032230
         H            1.417267796169     0.848577824414     1.365089982704     1.007825032230
         H            1.573798796169    -1.867495175586    -0.183629017296     1.007825032230
         H           -0.165289203831    -2.051330175586    -0.492114017296     1.007825032230
         H            0.392153796169    -1.526845175586     1.095465982704     1.007825032230
         H           -0.966386203831     1.651437824414    -0.507578017296     1.007825032230

  Basis Set: AUG-CC-PVTZ
    Blend: AUG-CC-PVTZ
  Basis Set: (AUG-CC-PVTZ AUX)
    Blend: AUG-CC-PVTZ-JKFIT
	 Reference Energy          =    -231.0619786169141889 [Eh]
	 Singles Energy            =      -0.0000000000000000 [Eh]
	 Same-Spin Energy          =      -0.2316244062548555 [Eh]
	 Opposite-Spin Energy      =      -0.7971839452290967 [Eh]
	 Correlation Energy        =      -1.0288083514839523 [Eh]
	 Total Energy              =    -232.0907869683981346 [Eh]

	 ================> DF-SCS-MP2 Energies <==================
	-----------------------------------------------------------
	 SCS Same-Spin Scale       =       0.3333333333333333 [-]
	 SCS Opposite-Spin Scale   =       1.2000000000000000 [-]
	 SCS Same-Spin Energy      =      -0.0772081354182852 [Eh]
	 SCS Opposite-Spin Energy  =      -0.9566207342749160 [Eh]
	 SCS Correlation Energy    =      -1.0338288696932012 [Eh]
	 SCS Total Energy          =    -232.0958074866073844 [Eh]
	-----------------------------------------------------------

  Dipole Moment: [D]
     X:     2.5088      Y:     0.9561      Z:    -1.0616     Total:     2.8871

*** Psi4 exiting successfully. Buy a developer a beer!
