                               Psi4 1.4a3.dev225

  ==> Input File <==

--------------------------------------------------------------------------
#psi4
#
memory 32 gb

molecule  {
0 1
  O       -1.8841100    -0.0754290    -0.2841020
  C        0.4339560     0.0114880     0.4275350
  C        1.5032440    -0.8397350    -0.2682130
  C        0.4423580     1.4601130    -0.0387010
  C       -0.9163840    -0.6314910     0.2188260
  H        0.6252000    -0.0321580     1.5111040
  H        1.4713110    -1.8814970     0.0665680
  H        2.5004740    -0.4466550    -0.0533610
  H        1.3573160    -0.8234960    -1.3527830
  H        1.4146230     1.9201520     0.1587670
  H       -0.3302150     2.0412490     0.4696940
  H        0.2436030     1.5145060    -1.1122270
  H       -0.9897687    -1.7099722     0.5543020
units angstrom
no_reorient  #important for SAPT in psi4, default
symmetry c1  #important for SAPT in psi4, default
}

set PROPERTIES_ORIGIN ["COM"]
properties('MP2/aug-cc-pvtz', properties = ['dipole'])
--------------------------------------------------------------------------

    Molecular point group: c1
  Charge       = 0
  Multiplicity = 1
  Basis Set: AUG-CC-PVTZ
    Blend: AUG-CC-PVTZ
  Basis Set: (AUG-CC-PVTZ AUX)
    Blend: AUG-CC-PVTZ-JKFIT

    Orbital Energies [Eh]
    ---------------------

    Doubly Occupied:

       1A    -20.558748     2A    -11.334799     3A    -11.250493
       4A    -11.235903     5A    -11.219523     6A     -1.383149
       7A     -1.094496     8A     -0.945669     9A     -0.887658
      10A     -0.758036    11A     -0.679701    12A     -0.639072
      13A     -0.624824    14A     -0.566907    15A     -0.551353
      16A     -0.532586    17A     -0.519192    18A     -0.495146
      19A     -0.481957    20A     -0.417931

  @DF-RHF Final Energy:  -231.07039608462509

   => Energetics <=

    Nuclear Repulsion Energy =            177.0004490491495801
    One-Electron Energy =                -663.7874020535168711
    Two-Electron Energy =                 255.7165569197422315
    Total Energy =                       -231.0703960846250880
  Basis Set: (AUG-CC-PVTZ AUX)
    Blend: AUG-CC-PVTZ-RI
    Molecular point group: c1

    Geometry (in Angstrom), charge = 0, multiplicity = 1:

       Center              X                  Y                   Z               Mass
    ------------   -----------------  -----------------  -----------------  -----------------
         O           -1.797563746769    -0.066890037211    -0.280953611174    15.994914619570
         C            0.520502253231     0.020026962789     0.430683388826    12.000000000000
         C            1.589790253231    -0.831196037211    -0.265064611174    12.000000000000
         C            0.528904253231     1.468651962789    -0.035552611174    12.000000000000
         C           -0.829837746769    -0.622952037211     0.221974388826    12.000000000000
         H            0.711746253231    -0.023619037211     1.514252388826     1.007825032230
         H            1.557857253231    -1.872958037211     0.069716388826     1.007825032230
         H            2.587020253231    -0.438116037211    -0.050212611174     1.007825032230
         H            1.443862253231    -0.814957037211    -1.349634611174     1.007825032230
         H            1.501169253231     1.928690962789     0.161915388826     1.007825032230
         H           -0.243668746769     2.049787962789     0.472842388826     1.007825032230
         H            0.330149253231     1.523044962789    -1.109078611174     1.007825032230
         H           -0.903222446769    -1.701433237211     0.557450388826     1.007825032230

  Basis Set: AUG-CC-PVTZ
    Blend: AUG-CC-PVTZ
  Basis Set: (AUG-CC-PVTZ AUX)
    Blend: AUG-CC-PVTZ-JKFIT
	 Reference Energy          =    -231.0703960846250880 [Eh]
	 Singles Energy            =      -0.0000000000000000 [Eh]
	 Same-Spin Energy          =      -0.2306720245129557 [Eh]
	 Opposite-Spin Energy      =      -0.7949110046719390 [Eh]
	 Correlation Energy        =      -1.0255830291848946 [Eh]
	 Total Energy              =    -232.0959791138099888 [Eh]

	 ================> DF-SCS-MP2 Energies <==================
	-----------------------------------------------------------
	 SCS Same-Spin Scale       =       0.3333333333333333 [-]
	 SCS Opposite-Spin Scale   =       1.2000000000000000 [-]
	 SCS Same-Spin Energy      =      -0.0768906748376519 [Eh]
	 SCS Opposite-Spin Energy  =      -0.9538932056063267 [Eh]
	 SCS Correlation Energy    =      -1.0307838804439786 [Eh]
	 SCS Total Energy          =    -232.1011799650690648 [Eh]
	-----------------------------------------------------------

  Dipole Moment: [D]
     X:     2.4849      Y:    -0.7178      Z:     0.9853     Total:     2.7678

*** Psi4 exiting successfully. Buy a developer a beer!
