                               Psi4 1.3.2 release

  ==> Input File <==

--------------------------------------------------------------------------
#psi4
#
memory 32 gb

molecule  {
0 1
  O       -1.7956590    -0.0045330     0.2925540
  C        0.5331182     0.0527013    -0.4537192
  C        1.5574320     0.8851440     0.2677470
  C        0.5838050    -1.4460010     0.0098110
  C       -0.8532490     0.5940380    -0.2074380
  H        0.7003720     0.0729440    -1.5172860
  H        1.4879930     1.9288570    -0.0538080
  H        2.5672940     0.5309070     0.0461510
  H        1.4157060     0.8510730     1.3520620
  H        1.5722370    -1.8650000    -0.1966570
  H       -0.1668510    -2.0488350    -0.5051420
  H        0.3905920    -1.5243500     1.0824380
  H       -0.9308571     1.6538886    -0.5319392
units angstrom
no_reorient  #important for SAPT in psi4, default
symmetry c1  #important for SAPT in psi4, default
}

set PROPERTIES_ORIGIN ["COM"]
properties('MP2/aug-cc-pvtz', properties = ['dipole'])
--------------------------------------------------------------------------

    Molecular point group: c1
  Charge       = 0
  Multiplicity = 1
  Basis Set: AUG-CC-PVTZ
    Blend: AUG-CC-PVTZ
  Basis Set: (AUG-CC-PVTZ AUX)
    Blend: AUG-CC-PVTZ-JKFIT

    Orbital Energies [Eh]
    ---------------------

    Doubly Occupied:

       1A    -20.560963     2A    -11.333496     3A    -11.247947
       4A    -11.234712     5A    -11.219983     6A     -1.384281
       7A     -1.095576     8A     -0.942239     9A     -0.891987
      10A     -0.762803    11A     -0.680822    12A     -0.642842
      13A     -0.623250    14A     -0.570733    15A     -0.551100
      16A     -0.530251    17A     -0.520444    18A     -0.492401
      19A     -0.483152    20A     -0.417457

  @DF-RHF Final Energy:  -231.06799900452862

   => Energetics <=

    Nuclear Repulsion Energy =            177.0487357895243576
    One-Electron Energy =                -663.8605885925737766
    Two-Electron Energy =                 255.7438537985208029
    Total Energy =                       -231.0679990045286161
  Basis Set: (AUG-CC-PVTZ AUX)
    Blend: AUG-CC-PVTZ-RI
    Molecular point group: c1

    Geometry (in Angstrom), charge = 0, multiplicity = 1:

       Center              X                  Y                   Z               Mass
    ------------   -----------------  -----------------  -----------------  -----------------
         O           -1.798759421080    -0.012227314841     0.296030834819    15.994914619570
         C            0.530017778920     0.045006985159    -0.450242365181    12.000000000000
         C            1.554331578920     0.877449685159     0.271223834819    12.000000000000
         C            0.580704578920    -1.453695314841     0.013287834819    12.000000000000
         C           -0.856349421080     0.586343685159    -0.203961165181    12.000000000000
         H            0.697271578920     0.065249685159    -1.513809165181     1.007825032230
         H            1.484892578920     1.921162685159    -0.050331165181     1.007825032230
         H            2.564193578920     0.523212685159     0.049627834819     1.007825032230
         H            1.412605578920     0.843378685159     1.355538834819     1.007825032230
         H            1.569136578920    -1.872694314841    -0.193180165181     1.007825032230
         H           -0.169951421080    -2.056529314841    -0.501665165181     1.007825032230
         H            0.387491578920    -1.532044314841     1.085914834819     1.007825032230
         H           -0.933957521080     1.646194285159    -0.528462365181     1.007825032230

  Basis Set: AUG-CC-PVTZ
    Blend: AUG-CC-PVTZ
  Basis Set: (AUG-CC-PVTZ AUX)
    Blend: AUG-CC-PVTZ-JKFIT
	 Reference Energy          =    -231.0679990045286161 [Eh]
	 Singles Energy            =      -0.0000000000000000 [Eh]
	 Same-Spin Energy          =      -0.2305933217231654 [Eh]
	 Opposite-Spin Energy      =      -0.7949099478218591 [Eh]
	 Correlation Energy        =      -1.0255032695450246 [Eh]
	 Total Energy              =    -232.0935022740736429 [Eh]

	 ================> DF-SCS-MP2 Energies <==================
	-----------------------------------------------------------
	 SCS Same-Spin Scale       =       0.3333333333333333 [-]
	 SCS Opposite-Spin Scale   =       1.2000000000000000 [-]
	 SCS Same-Spin Energy      =      -0.0768644405743885 [Eh]
	 SCS Opposite-Spin Energy  =      -0.9538919373862309 [Eh]
	 SCS Correlation Energy    =      -1.0307563779606195 [Eh]
	 SCS Total Energy          =    -232.0987553824892302 [Eh]
	-----------------------------------------------------------

  Dipole Moment: [D]
     X:     2.4346      Y:     0.8639      Z:    -0.9991     Total:     2.7698

*** Psi4 exiting successfully. Buy a developer a beer!
