                               Psi4 1.3.2 release

  ==> Input File <==

--------------------------------------------------------------------------
#psi4
#
memory 32 gb

molecule  {
0 1
  O       -1.7895259    -0.0132055     0.2936176
  C        0.5135279    -0.0048946    -0.4286044
  C        1.5574320     0.8851440     0.2677470
  C        0.5838050    -1.4460010     0.0098110
  C       -0.8532490     0.5940380    -0.2074380
  H        0.7003720     0.0729440    -1.5172860
  H        1.4879930     1.9288570    -0.0538080
  H        2.5672940     0.5309070     0.0461510
  H        1.4157060     0.8510730     1.3520620
  H        1.5722370    -1.8650000    -0.1966570
  H       -0.1668510    -2.0488350    -0.5051420
  H        0.3905920    -1.5243500     1.0824380
  H       -0.9679480     1.6539330    -0.5206060
units angstrom
no_reorient  #important for SAPT in psi4, default
symmetry c1  #important for SAPT in psi4, default
}

set PROPERTIES_ORIGIN ["COM"]
properties('MP2/aug-cc-pvtz', properties = ['dipole'])
--------------------------------------------------------------------------

    Molecular point group: c1
  Charge       = 0
  Multiplicity = 1
  Basis Set: AUG-CC-PVTZ
    Blend: AUG-CC-PVTZ
  Basis Set: (AUG-CC-PVTZ AUX)
    Blend: AUG-CC-PVTZ-JKFIT

    Orbital Energies [Eh]
    ---------------------

    Doubly Occupied:

       1A    -20.557652     2A    -11.331992     3A    -11.249407
       4A    -11.235585     5A    -11.218256     6A     -1.383379
       7A     -1.095062     8A     -0.946532     9A     -0.888752
      10A     -0.760292    11A     -0.681288    12A     -0.639019
      13A     -0.625647    14A     -0.566760    15A     -0.551438
      16A     -0.532982    17A     -0.518613    18A     -0.497193
      19A     -0.478935    20A     -0.418690

  @DF-RHF Final Energy:  -231.07092699413374

   => Energetics <=

    Nuclear Repulsion Energy =            177.3798274783770808
    One-Electron Energy =                -664.5465612839246887
    Two-Electron Energy =                 256.0958068114138655
    Total Energy =                       -231.0709269941337425
  Basis Set: (AUG-CC-PVTZ AUX)
    Blend: AUG-CC-PVTZ-RI
    Molecular point group: c1

    Geometry (in Angstrom), charge = 0, multiplicity = 1:

       Center              X                  Y                   Z               Mass
    ------------   -----------------  -----------------  -----------------  -----------------
         O           -1.790206499540    -0.009383709255     0.292517373365    15.994914619570
         C            0.512847300460    -0.001072809255    -0.429704626635    12.000000000000
         C            1.556751400460     0.888965790745     0.266646773365    12.000000000000
         C            0.583124400460    -1.442179209255     0.008710773365    12.000000000000
         C           -0.853929599540     0.597859790745    -0.208538226635    12.000000000000
         H            0.699691400460     0.076765790745    -1.518386226635     1.007825032230
         H            1.487312400460     1.932678790745    -0.054908226635     1.007825032230
         H            2.566613400460     0.534728790745     0.045050773365     1.007825032230
         H            1.415025400460     0.854894790745     1.350961773365     1.007825032230
         H            1.571556400460    -1.861178209255    -0.197757226635     1.007825032230
         H           -0.167531599540    -2.045013209255    -0.506242226635     1.007825032230
         H            0.389911400460    -1.520528209255     1.081337773365     1.007825032230
         H           -0.968628599540     1.657754790745    -0.521706226635     1.007825032230

  Basis Set: AUG-CC-PVTZ
    Blend: AUG-CC-PVTZ
  Basis Set: (AUG-CC-PVTZ AUX)
    Blend: AUG-CC-PVTZ-JKFIT
	 Reference Energy          =    -231.0709269941337425 [Eh]
	 Singles Energy            =      -0.0000000000000000 [Eh]
	 Same-Spin Energy          =      -0.2306894763363208 [Eh]
	 Opposite-Spin Energy      =      -0.7947243372857898 [Eh]
	 Correlation Energy        =      -1.0254138136221107 [Eh]
	 Total Energy              =    -232.0963408077558654 [Eh]

	 ================> DF-SCS-MP2 Energies <==================
	-----------------------------------------------------------
	 SCS Same-Spin Scale       =       0.3333333333333333 [-]
	 SCS Opposite-Spin Scale   =       1.2000000000000000 [-]
	 SCS Same-Spin Energy      =      -0.0768964921121069 [Eh]
	 SCS Opposite-Spin Energy  =      -0.9536692047429478 [Eh]
	 SCS Correlation Energy    =      -1.0305656968550547 [Eh]
	 SCS Total Energy          =    -232.1014926909888061 [Eh]
	-----------------------------------------------------------

  Dipole Moment: [D]
     X:     2.4311      Y:     0.8647      Z:    -0.9990     Total:     2.7669

*** Psi4 exiting successfully. Buy a developer a beer!
