                               Psi4 1.3.2 release

  ==> Input File <==

--------------------------------------------------------------------------
#psi4
#
memory 32 gb

molecule  {
0 1
  O       -1.7956590    -0.0045330     0.2925540
  C        0.5176150     0.0064930    -0.4337930
  C        1.5574320     0.8851440     0.2677470
  C        0.5838050    -1.4460010     0.0098110
  C       -0.8543459     0.5963090    -0.2203587
  H        0.6917416     0.0769989    -1.5184504
  H        1.4879930     1.9288570    -0.0538080
  H        2.5672940     0.5309070     0.0461510
  H        1.4157060     0.8510730     1.3520620
  H        1.5722370    -1.8650000    -0.1966570
  H       -0.1668510    -2.0488350    -0.5051420
  H        0.3905920    -1.5243500     1.0824380
  H       -0.9679480     1.6539330    -0.5206060
units angstrom
no_reorient  #important for SAPT in psi4, default
symmetry c1  #important for SAPT in psi4, default
}

set PROPERTIES_ORIGIN ["COM"]
properties('MP2/aug-cc-pvtz', properties = ['dipole'])
--------------------------------------------------------------------------

    Molecular point group: c1
  Charge       = 0
  Multiplicity = 1
  Basis Set: AUG-CC-PVTZ
    Blend: AUG-CC-PVTZ
  Basis Set: (AUG-CC-PVTZ AUX)
    Blend: AUG-CC-PVTZ-JKFIT

    Orbital Energies [Eh]
    ---------------------

    Doubly Occupied:

       1A    -20.557691     2A    -11.332261     3A    -11.249754
       4A    -11.235795     5A    -11.219038     6A     -1.379493
       7A     -1.095154     8A     -0.945912     9A     -0.890475
      10A     -0.761807    11A     -0.680348    12A     -0.637735
      13A     -0.625560    14A     -0.567151    15A     -0.551349
      16A     -0.532205    17A     -0.517903    18A     -0.495229
      19A     -0.481045    20A     -0.419236

  @DF-RHF Final Energy:  -231.07052579950533

   => Energetics <=

    Nuclear Repulsion Energy =            177.1439872949265180
    One-Electron Energy =                -664.0787391959567003
    Two-Electron Energy =                 255.8642261015248209
    Total Energy =                       -231.0705257995053330
  Basis Set: (AUG-CC-PVTZ AUX)
    Blend: AUG-CC-PVTZ-RI
    Molecular point group: c1

    Geometry (in Angstrom), charge = 0, multiplicity = 1:

       Center              X                  Y                   Z               Mass
    ------------   -----------------  -----------------  -----------------  -----------------
         O           -1.795355469791    -0.004967610926     0.294721958551    15.994914619570
         C            0.517918530209     0.006058389074    -0.431625041449    12.000000000000
         C            1.557735530209     0.884709389074     0.269914958551    12.000000000000
         C            0.584108530209    -1.446435610926     0.011978958551    12.000000000000
         C           -0.854042369791     0.595874389074    -0.218190741449    12.000000000000
         H            0.692045130209     0.076564289074    -1.516282441449     1.007825032230
         H            1.488296530209     1.928422389074    -0.051640041449     1.007825032230
         H            2.567597530209     0.530472389074     0.048318958551     1.007825032230
         H            1.416009530209     0.850638389074     1.354229958551     1.007825032230
         H            1.572540530209    -1.865434610926    -0.194489041449     1.007825032230
         H           -0.166547469791    -2.049269610926    -0.502974041449     1.007825032230
         H            0.390895530209    -1.524784610926     1.084605958551     1.007825032230
         H           -0.967644469791     1.653498389074    -0.518438041449     1.007825032230

  Basis Set: AUG-CC-PVTZ
    Blend: AUG-CC-PVTZ
  Basis Set: (AUG-CC-PVTZ AUX)
    Blend: AUG-CC-PVTZ-JKFIT
	 Reference Energy          =    -231.0705257995053330 [Eh]
	 Singles Energy            =      -0.0000000000000000 [Eh]
	 Same-Spin Energy          =      -0.2307364892592667 [Eh]
	 Opposite-Spin Energy      =      -0.7949841672522959 [Eh]
	 Correlation Energy        =      -1.0257206565115626 [Eh]
	 Total Energy              =    -232.0962464560168996 [Eh]

	 ================> DF-SCS-MP2 Energies <==================
	-----------------------------------------------------------
	 SCS Same-Spin Scale       =       0.3333333333333333 [-]
	 SCS Opposite-Spin Scale   =       1.2000000000000000 [-]
	 SCS Same-Spin Energy      =      -0.0769121630864222 [Eh]
	 SCS Opposite-Spin Energy  =      -0.9539810007027550 [Eh]
	 SCS Correlation Energy    =      -1.0308931637891772 [Eh]
	 SCS Total Energy          =    -232.1014189632945204 [Eh]
	-----------------------------------------------------------

  Dipole Moment: [D]
     X:     2.4572      Y:     0.8703      Z:    -1.0103     Total:     2.7957

*** Psi4 exiting successfully. Buy a developer a beer!
