                               Psi4 1.3.2 release

  ==> Input File <==

--------------------------------------------------------------------------
#psi4
#
memory 32 gb

molecule  {
0 1
  O       -1.8016765     0.0042316     0.2915906
  C        0.5176150     0.0064930    -0.4337930
  C        1.5574320     0.8851440     0.2677470
  C        0.5838050    -1.4460010     0.0098110
  C       -0.8532490     0.5940380    -0.2074380
  H        0.7003720     0.0729440    -1.5172860
  H        1.4879930     1.9288570    -0.0538080
  H        2.5672940     0.5309070     0.0461510
  H        1.4157060     0.8510730     1.3520620
  H        1.5722370    -1.8650000    -0.1966570
  H       -0.1668510    -2.0488350    -0.5051420
  H        0.3905920    -1.5243500     1.0824380
  H       -0.9771649     1.6537799    -0.5175984
units angstrom
no_reorient  #important for SAPT in psi4, default
symmetry c1  #important for SAPT in psi4, default
}

set PROPERTIES_ORIGIN ["COM"]
properties('MP2/aug-cc-pvtz', properties = ['dipole'])
--------------------------------------------------------------------------

    Molecular point group: c1
  Charge       = 0
  Multiplicity = 1
  Basis Set: AUG-CC-PVTZ
    Blend: AUG-CC-PVTZ
  Basis Set: (AUG-CC-PVTZ AUX)
    Blend: AUG-CC-PVTZ-JKFIT

    Orbital Energies [Eh]
    ---------------------

    Doubly Occupied:

       1A    -20.557806     2A    -11.331796     3A    -11.250098
       4A    -11.235703     5A    -11.219298     6A     -1.383173
       7A     -1.095531     8A     -0.946104     9A     -0.888993
      10A     -0.760979    11A     -0.681401    12A     -0.639007
      13A     -0.625494    14A     -0.567423    15A     -0.551477
      16A     -0.532974    17A     -0.519110    18A     -0.495438
      19A     -0.481960    20A     -0.418474

  @DF-RHF Final Energy:  -231.07128159081725

   => Energetics <=

    Nuclear Repulsion Energy =            177.1668861076049666
    One-Electron Energy =                -664.1118574367193332
    Two-Electron Energy =                 255.8736897382971165
    Total Energy =                       -231.0712815908172502
  Basis Set: (AUG-CC-PVTZ AUX)
    Blend: AUG-CC-PVTZ-RI
    Molecular point group: c1

    Geometry (in Angstrom), charge = 0, multiplicity = 1:

       Center              X                  Y                   Z               Mass
    ------------   -----------------  -----------------  -----------------  -----------------
         O           -1.800211707315     0.002288525992     0.291762326159    15.994914619570
         C            0.519079792685     0.004549925992    -0.433621273841    12.000000000000
         C            1.558896792685     0.883200925992     0.267918726159    12.000000000000
         C            0.585269792685    -1.447944074008     0.009982726159    12.000000000000
         C           -0.851784207315     0.592094925992    -0.207266273841    12.000000000000
         H            0.701836792685     0.071000925992    -1.517114273841     1.007825032230
         H            1.489457792685     1.926913925992    -0.053636273841     1.007825032230
         H            2.568758792685     0.528963925992     0.046322726159     1.007825032230
         H            1.417170792685     0.849129925992     1.352233726159     1.007825032230
         H            1.573701792685    -1.866943074008    -0.196485273841     1.007825032230
         H           -0.165386207315    -2.050778074008    -0.504970273841     1.007825032230
         H            0.392056792685    -1.526293074008     1.082609726159     1.007825032230
         H           -0.975700107315     1.651836825992    -0.517426673841     1.007825032230

  Basis Set: AUG-CC-PVTZ
    Blend: AUG-CC-PVTZ
  Basis Set: (AUG-CC-PVTZ AUX)
    Blend: AUG-CC-PVTZ-JKFIT
	 Reference Energy          =    -231.0712815908172502 [Eh]
	 Singles Energy            =      -0.0000000000000000 [Eh]
	 Same-Spin Energy          =      -0.2305697943501681 [Eh]
	 Opposite-Spin Energy      =      -0.7946136919848533 [Eh]
	 Correlation Energy        =      -1.0251834863350213 [Eh]
	 Total Energy              =    -232.0964650771522599 [Eh]

	 ================> DF-SCS-MP2 Energies <==================
	-----------------------------------------------------------
	 SCS Same-Spin Scale       =       0.3333333333333333 [-]
	 SCS Opposite-Spin Scale   =       1.2000000000000000 [-]
	 SCS Same-Spin Energy      =      -0.0768565981167227 [Eh]
	 SCS Opposite-Spin Energy  =      -0.9535364303818239 [Eh]
	 SCS Correlation Energy    =      -1.0303930284985465 [Eh]
	 SCS Total Energy          =    -232.1016746193157871 [Eh]
	-----------------------------------------------------------

  Dipole Moment: [D]
     X:     2.4648      Y:     0.8314      Z:    -0.9964     Total:     2.7856

*** Psi4 exiting successfully. Buy a developer a beer!
