                               Psi4 1.3.2 release

  ==> Input File <==

--------------------------------------------------------------------------
#psi4
#
memory 32 gb

molecule  {
0 1
  O       -1.7956590    -0.0045330     0.2925540
  C        0.5176150     0.0064930    -0.4337930
  C        1.5574320     0.8851440     0.2677470
  C        0.5838050    -1.4460010     0.0098110
  C       -0.9302885     0.5451064    -0.1665650
  H        0.7003720     0.0729440    -1.5172860
  H        1.4879930     1.9288570    -0.0538080
  H        2.5672940     0.5309070     0.0461510
  H        1.4157060     0.8510730     1.3520620
  H        1.5722370    -1.8650000    -0.1966570
  H       -0.1668510    -2.0488350    -0.5051420
  H        0.3905920    -1.5243500     1.0824380
  H       -0.9679480     1.6539330    -0.5206060
units angstrom
no_reorient  #important for SAPT in psi4, default
symmetry c1  #important for SAPT in psi4, default
}

set PROPERTIES_ORIGIN ["COM"]
properties('MP2/aug-cc-pvtz', properties = ['dipole'])
--------------------------------------------------------------------------

    Molecular point group: c1
  Charge       = 0
  Multiplicity = 1
  Basis Set: AUG-CC-PVTZ
    Blend: AUG-CC-PVTZ
  Basis Set: (AUG-CC-PVTZ AUX)
    Blend: AUG-CC-PVTZ-JKFIT

    Orbital Energies [Eh]
    ---------------------

    Doubly Occupied:

       1A    -20.564730     2A    -11.325491     3A    -11.245078
       4A    -11.231212     5A    -11.216433     6A     -1.458454
       7A     -1.084687     8A     -0.942274     9A     -0.869574
      10A     -0.753629    11A     -0.690348    12A     -0.662956
      13A     -0.627018    14A     -0.576688    15A     -0.551571
      16A     -0.548751    17A     -0.536982    18A     -0.492645
      19A     -0.486727    20A     -0.393852

  @DF-RHF Final Energy:  -231.06277531619929

   => Energetics <=

    Nuclear Repulsion Energy =            178.1409253363763412
    One-Electron Energy =                -665.8892054888229950
    Two-Electron Energy =                 256.6855048362473894
    Total Energy =                       -231.0627753161992928
  Basis Set: (AUG-CC-PVTZ AUX)
    Blend: AUG-CC-PVTZ-RI
    Molecular point group: c1

    Geometry (in Angstrom), charge = 0, multiplicity = 1:

       Center              X                  Y                   Z               Mass
    ------------   -----------------  -----------------  -----------------  -----------------
         O           -1.782829180640     0.003616057700     0.285747212300    15.994914619570
         C            0.530444819360     0.014642057700    -0.440599787700    12.000000000000
         C            1.570261819360     0.893293057700     0.260940212300    12.000000000000
         C            0.596634819360    -1.437851942300     0.003004212300    12.000000000000
         C           -0.917458680640     0.553255457700    -0.173371787700    12.000000000000
         H            0.713201819360     0.081093057700    -1.524092787700     1.007825032230
         H            1.500822819360     1.937006057700    -0.060614787700     1.007825032230
         H            2.580123819360     0.539056057700     0.039344212300     1.007825032230
         H            1.428535819360     0.859222057700     1.345255212300     1.007825032230
         H            1.585066819360    -1.856850942300    -0.203463787700     1.007825032230
         H           -0.154021180640    -2.040685942300    -0.511948787700     1.007825032230
         H            0.403421819360    -1.516200942300     1.075631212300     1.007825032230
         H           -0.955118180640     1.662082057700    -0.527412787700     1.007825032230

  Basis Set: AUG-CC-PVTZ
    Blend: AUG-CC-PVTZ
  Basis Set: (AUG-CC-PVTZ AUX)
    Blend: AUG-CC-PVTZ-JKFIT
	 Reference Energy          =    -231.0627753161992928 [Eh]
	 Singles Energy            =      -0.0000000000000000 [Eh]
	 Same-Spin Energy          =      -0.2281947578425344 [Eh]
	 Opposite-Spin Energy      =      -0.7890972379580049 [Eh]
	 Correlation Energy        =      -1.0172919958005393 [Eh]
	 Total Energy              =    -232.0800673119998407 [Eh]

	 ================> DF-SCS-MP2 Energies <==================
	-----------------------------------------------------------
	 SCS Same-Spin Scale       =       0.3333333333333333 [-]
	 SCS Opposite-Spin Scale   =       1.2000000000000000 [-]
	 SCS Same-Spin Energy      =      -0.0760649192808448 [Eh]
	 SCS Opposite-Spin Energy  =      -0.9469166855496058 [Eh]
	 SCS Correlation Energy    =      -1.0229816048304508 [Eh]
	 SCS Total Energy          =    -232.0857569210297413 [Eh]
	-----------------------------------------------------------

  Dipole Moment: [D]
     X:     1.9992      Y:     0.5907      Z:    -0.7929     Total:     2.2303

*** Psi4 exiting successfully. Buy a developer a beer!
