                               Psi4 1.3.2 release

  ==> Input File <==

--------------------------------------------------------------------------
#psi4
#
memory 32 gb

molecule  {
0 1
  O       -1.7956590    -0.0045330     0.2925540
  C        0.5402375     0.0760563    -0.4635713
  C        1.5574320     0.8851440     0.2677470
  C        0.5838050    -1.4460010     0.0098110
  C       -0.8532490     0.5940380    -0.2074380
  H        0.7003720     0.0729440    -1.5172860
  H        1.4879930     1.9288570    -0.0538080
  H        2.5672940     0.5309070     0.0461510
  H        1.4157060     0.8510730     1.3520620
  H        1.5722370    -1.8650000    -0.1966570
  H       -0.1668510    -2.0488350    -0.5051420
  H        0.3905920    -1.5243500     1.0824380
  H       -0.9122734     1.6533822    -0.5374584
units angstrom
no_reorient  #important for SAPT in psi4, default
symmetry c1  #important for SAPT in psi4, default
}

set PROPERTIES_ORIGIN ["COM"]
properties('MP2/aug-cc-pvtz', properties = ['dipole'])
--------------------------------------------------------------------------

    Molecular point group: c1
  Charge       = 0
  Multiplicity = 1
  Basis Set: AUG-CC-PVTZ
    Blend: AUG-CC-PVTZ
  Basis Set: (AUG-CC-PVTZ AUX)
    Blend: AUG-CC-PVTZ-JKFIT

    Orbital Energies [Eh]
    ---------------------

    Doubly Occupied:

       1A    -20.562401     2A    -11.334331     3A    -11.247454
       4A    -11.234402     5A    -11.220413     6A     -1.384788
       7A     -1.096268     8A     -0.940473     9A     -0.893436
      10A     -0.763947    11A     -0.680476    12A     -0.644713
      13A     -0.622349    14A     -0.573101    15A     -0.551056
      16A     -0.529674    17A     -0.521160    18A     -0.496798
      19A     -0.476597    20A     -0.416286

  @DF-RHF Final Energy:  -231.06405706140768

   => Energetics <=

    Nuclear Repulsion Energy =            176.9557706000053940
    One-Electron Energy =                -663.6594104587679794
    Two-Electron Energy =                 255.6395827973549046
    Total Energy =                       -231.0640570614076807
  Basis Set: (AUG-CC-PVTZ AUX)
    Blend: AUG-CC-PVTZ-RI
    Molecular point group: c1

    Geometry (in Angstrom), charge = 0, multiplicity = 1:

       Center              X                  Y                   Z               Mass
    ------------   -----------------  -----------------  -----------------  -----------------
         O           -1.800204943011    -0.016109625213     0.297748734585    15.994914619570
         C            0.535691556989     0.064479674787    -0.458376565415    12.000000000000
         C            1.552886056989     0.873567374787     0.272941734585    12.000000000000
         C            0.579259056989    -1.457577625213     0.015005734585    12.000000000000
         C           -0.857794943011     0.582461374787    -0.202243265415    12.000000000000
         H            0.695826056989     0.061367374787    -1.512091265415     1.007825032230
         H            1.483447056989     1.917280374787    -0.048613265415     1.007825032230
         H            2.562748056989     0.519330374787     0.051345734585     1.007825032230
         H            1.411160056989     0.839496374787     1.357256734585     1.007825032230
         H            1.567691056989    -1.876576625213    -0.191462265415     1.007825032230
         H           -0.171396943011    -2.060411625213    -0.499947265415     1.007825032230
         H            0.386046056989    -1.535926625213     1.087632734585     1.007825032230
         H           -0.916819343011     1.641805574787    -0.532263665415     1.007825032230

  Basis Set: AUG-CC-PVTZ
    Blend: AUG-CC-PVTZ
  Basis Set: (AUG-CC-PVTZ AUX)
    Blend: AUG-CC-PVTZ-JKFIT
	 Reference Energy          =    -231.0640570614076807 [Eh]
	 Singles Energy            =      -0.0000000000000000 [Eh]
	 Same-Spin Energy          =      -0.2306811645614524 [Eh]
	 Opposite-Spin Energy      =      -0.7952118611146198 [Eh]
	 Correlation Energy        =      -1.0258930256760723 [Eh]
	 Total Energy              =    -232.0899500870837642 [Eh]

	 ================> DF-SCS-MP2 Energies <==================
	-----------------------------------------------------------
	 SCS Same-Spin Scale       =       0.3333333333333333 [-]
	 SCS Opposite-Spin Scale   =       1.2000000000000000 [-]
	 SCS Same-Spin Energy      =      -0.0768937215204841 [Eh]
	 SCS Opposite-Spin Energy  =      -0.9542542333375438 [Eh]
	 SCS Correlation Energy    =      -1.0311479548580280 [Eh]
	 SCS Total Energy          =    -232.0952050162657088 [Eh]
	-----------------------------------------------------------

  Dipole Moment: [D]
     X:     2.4290      Y:     0.8698      Z:    -0.9984     Total:     2.7665

*** Psi4 exiting successfully. Buy a developer a beer!
