                               Psi4 1.3.2 release

  ==> Input File <==

--------------------------------------------------------------------------
#psi4
#
memory 32 gb

molecule  {
0 1
  O       -1.7956590    -0.0045330     0.2925540
  C        0.5176150     0.0064930    -0.4337930
  C        1.5574320     0.8851440     0.2677470
  C        0.5838050    -1.4460010     0.0098110
  C       -0.7623759     0.5550903    -0.2224428
  H        0.7003720     0.0729440    -1.5172860
  H        1.4879930     1.9288570    -0.0538080
  H        2.5672940     0.5309070     0.0461510
  H        1.4157060     0.8510730     1.3520620
  H        1.5722370    -1.8650000    -0.1966570
  H       -0.1668510    -2.0488350    -0.5051420
  H        0.3905920    -1.5243500     1.0824380
  H       -0.9679480     1.6539330    -0.5206060
units angstrom
no_reorient  #important for SAPT in psi4, default
symmetry c1  #important for SAPT in psi4, default
}

set PROPERTIES_ORIGIN ["COM"]
properties('MP2/aug-cc-pvtz', properties = ['dipole'])
--------------------------------------------------------------------------

    Molecular point group: c1
  Charge       = 0
  Multiplicity = 1
  Basis Set: AUG-CC-PVTZ
    Blend: AUG-CC-PVTZ
  Basis Set: (AUG-CC-PVTZ AUX)
    Blend: AUG-CC-PVTZ-JKFIT

    Orbital Energies [Eh]
    ---------------------

    Doubly Occupied:

       1A    -20.553042     2A    -11.338263     3A    -11.250942
       4A    -11.242162     5A    -11.222939     6A     -1.345115
       7A     -1.116433     8A     -0.951686     9A     -0.907812
      10A     -0.752625    11A     -0.685787    12A     -0.631462
      13A     -0.626543    14A     -0.565354    15A     -0.553362
      16A     -0.533419    17A     -0.514595    18A     -0.497994
      19A     -0.467272    20A     -0.425643

  @DF-RHF Final Energy:  -231.05045234943796

   => Energetics <=

    Nuclear Repulsion Energy =            177.7969008873058101
    One-Electron Energy =                -665.3298076406904329
    Two-Electron Energy =                 256.4824544039466900
    Total Energy =                       -231.0504523494379328
  Basis Set: (AUG-CC-PVTZ AUX)
    Blend: AUG-CC-PVTZ-RI
    Molecular point group: c1

    Geometry (in Angstrom), charge = 0, multiplicity = 1:

       Center              X                  Y                   Z               Mass
    ------------   -----------------  -----------------  -----------------  -----------------
         O           -1.810792276556     0.001953402525     0.295052745542    15.994914619570
         C            0.502481723444     0.012979402525    -0.431294254458    12.000000000000
         C            1.542298723444     0.891630402525     0.270245745542    12.000000000000
         C            0.568671723444    -1.439514597475     0.012309745542    12.000000000000
         C           -0.777509176556     0.561576702525    -0.219944054458    12.000000000000
         H            0.685238723444     0.079430402525    -1.514787254458     1.007825032230
         H            1.472859723444     1.935343402525    -0.051309254458     1.007825032230
         H            2.552160723444     0.537393402525     0.048649745542     1.007825032230
         H            1.400572723444     0.857559402525     1.354560745542     1.007825032230
         H            1.557103723444    -1.858513597475    -0.194158254458     1.007825032230
         H           -0.181984276556    -2.042348597475    -0.502643254458     1.007825032230
         H            0.375458723444    -1.517863597475     1.084936745542     1.007825032230
         H           -0.983081276556     1.660419402525    -0.518107254458     1.007825032230

  Basis Set: AUG-CC-PVTZ
    Blend: AUG-CC-PVTZ
  Basis Set: (AUG-CC-PVTZ AUX)
    Blend: AUG-CC-PVTZ-JKFIT
	 Reference Energy          =    -231.0504523494379612 [Eh]
	 Singles Energy            =      -0.0000000000000000 [Eh]
	 Same-Spin Energy          =      -0.2334871585175659 [Eh]
	 Opposite-Spin Energy      =      -0.7997955932181510 [Eh]
	 Correlation Energy        =      -1.0332827517357168 [Eh]
	 Total Energy              =    -232.0837351011736871 [Eh]

	 ================> DF-SCS-MP2 Energies <==================
	-----------------------------------------------------------
	 SCS Same-Spin Scale       =       0.3333333333333333 [-]
	 SCS Opposite-Spin Scale   =       1.2000000000000000 [-]
	 SCS Same-Spin Energy      =      -0.0778290528391886 [Eh]
	 SCS Opposite-Spin Energy  =      -0.9597547118617811 [Eh]
	 SCS Correlation Energy    =      -1.0375837647009698 [Eh]
	 SCS Total Energy          =    -232.0880361141389301 [Eh]
	-----------------------------------------------------------

  Dipole Moment: [D]
     X:     2.9043      Y:     0.7376      Z:    -1.0634     Total:     3.1796

*** Psi4 exiting successfully. Buy a developer a beer!
