                               Psi4 1.3.2 release

  ==> Input File <==

--------------------------------------------------------------------------
#psi4
#
memory 32 gb

molecule  {
0 1
  O       -1.7956590    -0.0045330     0.2925540
  C        0.5176150     0.0064930    -0.4337930
  C        1.4976850     0.9327391     0.2921108
  C        0.5838050    -1.4460010     0.0098110
  C       -0.8193315     0.6516866    -0.1654403
  H        0.7003720     0.0729440    -1.5172860
  H        1.4879930     1.9288570    -0.0538080
  H        2.5672940     0.5309070     0.0461510
  H        1.4157060     0.8510730     1.3520620
  H        1.5722370    -1.8650000    -0.1966570
  H       -0.1668510    -2.0488350    -0.5051420
  H        0.3905920    -1.5243500     1.0824380
  H       -0.9679480     1.6539330    -0.5206060
units angstrom
no_reorient  #important for SAPT in psi4, default
symmetry c1  #important for SAPT in psi4, default
}

set PROPERTIES_ORIGIN ["COM"]
properties('MP2/aug-cc-pvtz', properties = ['dipole'])
--------------------------------------------------------------------------

    Molecular point group: c1
  Charge       = 0
  Multiplicity = 1
  Basis Set: AUG-CC-PVTZ
    Blend: AUG-CC-PVTZ
  Basis Set: (AUG-CC-PVTZ AUX)
    Blend: AUG-CC-PVTZ-JKFIT

    Orbital Energies [Eh]
    ---------------------

    Doubly Occupied:

       1A    -20.555489     2A    -11.333431     3A    -11.251870
       4A    -11.236682     5A    -11.220477     6A     -1.357304
       7A     -1.097279     8A     -0.949408     9A     -0.890707
      10A     -0.769937    11A     -0.682079    12A     -0.631676
      13A     -0.626116    14A     -0.575108    15A     -0.538881
      16A     -0.525703    17A     -0.510414    18A     -0.501268
      19A     -0.474930    20A     -0.419515

  @DF-RHF Final Energy:  -231.05456373713216

   => Energetics <=

    Nuclear Repulsion Energy =            176.9626989537415795
    One-Electron Energy =                -663.7379767695811097
    Two-Electron Energy =                 255.7207140787074025
    Total Energy =                       -231.0545637371321561
  Basis Set: (AUG-CC-PVTZ AUX)
    Blend: AUG-CC-PVTZ-RI
    Molecular point group: c1

    Geometry (in Angstrom), charge = 0, multiplicity = 1:

       Center              X                  Y                   Z               Mass
    ------------   -----------------  -----------------  -----------------  -----------------
         O           -1.791357368173    -0.022059315690     0.281502519703    15.994914619570
         C            0.521916631827    -0.011033315690    -0.444844480297    12.000000000000
         C            1.501986631827     0.915212784310     0.281059319703    12.000000000000
         C            0.588106631827    -1.463527315690    -0.001240480297    12.000000000000
         C           -0.815029868173     0.634160284310    -0.176491780297    12.000000000000
         H            0.704673631827     0.055417684310    -1.528337480297     1.007825032230
         H            1.492294631827     1.911330684310    -0.064859480297     1.007825032230
         H            2.571595631827     0.513380684310     0.035099519703     1.007825032230
         H            1.420007631827     0.833546684310     1.341010519703     1.007825032230
         H            1.576538631827    -1.882526315690    -0.207708480297     1.007825032230
         H           -0.162549368173    -2.066361315690    -0.516193480297     1.007825032230
         H            0.394893631827    -1.541876315690     1.071386519703     1.007825032230
         H           -0.963646368173     1.636406684310    -0.531657480297     1.007825032230

  Basis Set: AUG-CC-PVTZ
    Blend: AUG-CC-PVTZ
  Basis Set: (AUG-CC-PVTZ AUX)
    Blend: AUG-CC-PVTZ-JKFIT
	 Reference Energy          =    -231.0545637371321561 [Eh]
	 Singles Energy            =      -0.0000000000000000 [Eh]
	 Same-Spin Energy          =      -0.2319559522611140 [Eh]
	 Opposite-Spin Energy      =      -0.7978628987270161 [Eh]
	 Correlation Energy        =      -1.0298188509881301 [Eh]
	 Total Energy              =    -232.0843825881202918 [Eh]

	 ================> DF-SCS-MP2 Energies <==================
	-----------------------------------------------------------
	 SCS Same-Spin Scale       =       0.3333333333333333 [-]
	 SCS Opposite-Spin Scale   =       1.2000000000000000 [-]
	 SCS Same-Spin Energy      =      -0.0773186507537047 [Eh]
	 SCS Opposite-Spin Energy  =      -0.9574354784724193 [Eh]
	 SCS Correlation Energy    =      -1.0347541292261240 [Eh]
	 SCS Total Energy          =    -232.0893178663582717 [Eh]
	-----------------------------------------------------------

  Dipole Moment: [D]
     X:     2.5018      Y:     0.9745      Z:    -1.0414     Total:     2.8798

*** Psi4 exiting successfully. Buy a developer a beer!
