                               Psi4 1.3.2 release

  ==> Input File <==

--------------------------------------------------------------------------
#psi4
#
memory 32 gb

molecule  {
0 1
  O       -1.7956590    -0.0045330     0.2925540
  C        0.5176150     0.0064930    -0.4337930
  C        1.5574320     0.8851440     0.2677470
  C        0.5838050    -1.4460010     0.0098110
  C       -0.8478184     0.5845084    -0.1559375
  H        0.7347478     0.0566770    -1.5118041
  H        1.4879930     1.9288570    -0.0538080
  H        2.5672940     0.5309070     0.0461510
  H        1.4157060     0.8510730     1.3520620
  H        1.5722370    -1.8650000    -0.1966570
  H       -0.1668510    -2.0488350    -0.5051420
  H        0.3905920    -1.5243500     1.0824380
  H       -0.9679480     1.6539330    -0.5206060
units angstrom
no_reorient  #important for SAPT in psi4, default
symmetry c1  #important for SAPT in psi4, default
}

set PROPERTIES_ORIGIN ["COM"]
properties('MP2/aug-cc-pvtz', properties = ['dipole'])
--------------------------------------------------------------------------

    Molecular point group: c1
  Charge       = 0
  Multiplicity = 1
  Basis Set: AUG-CC-PVTZ
    Blend: AUG-CC-PVTZ
  Basis Set: (AUG-CC-PVTZ AUX)
    Blend: AUG-CC-PVTZ-JKFIT

    Orbital Energies [Eh]
    ---------------------

    Doubly Occupied:

       1A    -20.560048     2A    -11.331791     3A    -11.248741
       4A    -11.234509     5A    -11.218569     6A     -1.398319
       7A     -1.095659     8A     -0.945731     9A     -0.884368
      10A     -0.757417    11A     -0.684796    12A     -0.645855
      13A     -0.624387    14A     -0.568248    15A     -0.551645
      16A     -0.533893    17A     -0.523915    18A     -0.494859
      19A     -0.483829    20A     -0.415181

  @DF-RHF Final Energy:  -231.07081999090127

   => Energetics <=

    Nuclear Repulsion Energy =            177.6348346599359900
    One-Electron Energy =                -665.0077905407913477
    Two-Electron Energy =                 256.3021358899540587
    Total Energy =                       -231.0708199909012706
  Basis Set: (AUG-CC-PVTZ AUX)
    Blend: AUG-CC-PVTZ-RI
    Molecular point group: c1

    Geometry (in Angstrom), charge = 0, multiplicity = 1:

       Center              X                  Y                   Z               Mass
    ------------   -----------------  -----------------  -----------------  -----------------
         O           -1.797044019904    -0.002718183926     0.283900704046    15.994914619570
         C            0.516229980096     0.008307816074    -0.442446295954    12.000000000000
         C            1.556046980096     0.886958816074     0.259093704046    12.000000000000
         C            0.582419980096    -1.444186183926     0.001157704046    12.000000000000
         C           -0.849203419904     0.586323216074    -0.164590795954    12.000000000000
         H            0.733362780096     0.058491816074    -1.520457395954     1.007825032230
         H            1.486607980096     1.930671816074    -0.062461295954     1.007825032230
         H            2.565908980096     0.532721816074     0.037497704046     1.007825032230
         H            1.414320980096     0.852887816074     1.343408704046     1.007825032230
         H            1.570851980096    -1.863185183926    -0.205310295954     1.007825032230
         H           -0.168236019904    -2.047020183926    -0.513795295954     1.007825032230
         H            0.389206980096    -1.522535183926     1.073784704046     1.007825032230
         H           -0.969333019904     1.655747816074    -0.529259295954     1.007825032230

  Basis Set: AUG-CC-PVTZ
    Blend: AUG-CC-PVTZ
  Basis Set: (AUG-CC-PVTZ AUX)
    Blend: AUG-CC-PVTZ-JKFIT
	 Reference Energy          =    -231.0708199909012706 [Eh]
	 Singles Energy            =      -0.0000000000000000 [Eh]
	 Same-Spin Energy          =      -0.2302402558175429 [Eh]
	 Opposite-Spin Energy      =      -0.7937409183530013 [Eh]
	 Correlation Energy        =      -1.0239811741705442 [Eh]
	 Total Energy              =    -232.0948011650718286 [Eh]

	 ================> DF-SCS-MP2 Energies <==================
	-----------------------------------------------------------
	 SCS Same-Spin Scale       =       0.3333333333333333 [-]
	 SCS Opposite-Spin Scale   =       1.2000000000000000 [-]
	 SCS Same-Spin Energy      =      -0.0767467519391810 [Eh]
	 SCS Opposite-Spin Energy  =      -0.9524891020236015 [Eh]
	 SCS Correlation Energy    =      -1.0292358539627824 [Eh]
	 SCS Total Energy          =    -232.1000558448640447 [Eh]
	-----------------------------------------------------------

  Dipole Moment: [D]
     X:     2.4044      Y:     0.7601      Z:    -0.9440     Total:     2.6926

*** Psi4 exiting successfully. Buy a developer a beer!
