                               Psi4 1.3.2 release

  ==> Input File <==

--------------------------------------------------------------------------
#psi4
#
memory 32 gb

molecule  {
0 1
  O       -1.7956590    -0.0045330     0.2925540
  C        0.5176150     0.0064930    -0.4337930
  C        1.5574320     0.8851440     0.2677470
  C        0.5838050    -1.4460010     0.0098110
  C       -0.6991699     0.6919012    -0.2891841
  H        0.7003720     0.0729440    -1.5172860
  H        1.4879930     1.9288570    -0.0538080
  H        2.5672940     0.5309070     0.0461510
  H        1.4157060     0.8510730     1.3520620
  H        1.5722370    -1.8650000    -0.1966570
  H       -0.1668510    -2.0488350    -0.5051420
  H        0.3905920    -1.5243500     1.0824380
  H       -0.9679480     1.6539330    -0.5206060
units angstrom
no_reorient  #important for SAPT in psi4, default
symmetry c1  #important for SAPT in psi4, default
}

set PROPERTIES_ORIGIN ["COM"]
properties('MP2/aug-cc-pvtz', properties = ['dipole'])
--------------------------------------------------------------------------

    Molecular point group: c1
  Charge       = 0
  Multiplicity = 1
  Basis Set: AUG-CC-PVTZ
    Blend: AUG-CC-PVTZ
  Basis Set: (AUG-CC-PVTZ AUX)
    Blend: AUG-CC-PVTZ-JKFIT

    Orbital Energies [Eh]
    ---------------------

    Doubly Occupied:

       1A    -20.545121     2A    -11.346467     3A    -11.257174
       4A    -11.245128     5A    -11.225203     6A     -1.274658
       7A     -1.117960     8A     -0.954928     9A     -0.922097
      10A     -0.787992    11A     -0.688869    12A     -0.632892
      13A     -0.606316    14A     -0.561257    15A     -0.547408
      16A     -0.535017    17A     -0.511044    18A     -0.487996
      19A     -0.431114    20A     -0.426219

  @DF-RHF Final Energy:  -230.99807579825398

   => Energetics <=

    Nuclear Repulsion Energy =            176.1855627945922151
    One-Electron Energy =                -662.1575552270697926
    Two-Electron Energy =                 254.9739166342235990
    Total Energy =                       -230.9980757982539785
  Basis Set: (AUG-CC-PVTZ AUX)
    Blend: AUG-CC-PVTZ-RI
    Molecular point group: c1

    Geometry (in Angstrom), charge = 0, multiplicity = 1:

       Center              X                  Y                   Z               Mass
    ------------   -----------------  -----------------  -----------------  -----------------
         O           -1.821318201594    -0.020830214184     0.306167416945    15.994914619570
         C            0.491955798406    -0.009804214184    -0.420179583055    12.000000000000
         C            1.531772798406     0.868846785816     0.281360416945    12.000000000000
         C            0.558145798406    -1.462298214184     0.023424416945    12.000000000000
         C           -0.724829101594     0.675603985816    -0.275570683055    12.000000000000
         H            0.674712798406     0.056646785816    -1.503672583055     1.007825032230
         H            1.462333798406     1.912559785816    -0.040194583055     1.007825032230
         H            2.541634798406     0.514609785816     0.059764416945     1.007825032230
         H            1.390046798406     0.834775785816     1.365675416945     1.007825032230
         H            1.546577798406    -1.881297214184    -0.183043583055     1.007825032230
         H           -0.192510201594    -2.065132214184    -0.491528583055     1.007825032230
         H            0.364932798406    -1.540647214184     1.096051416945     1.007825032230
         H           -0.993607201594     1.637635785816    -0.506992583055     1.007825032230

  Basis Set: AUG-CC-PVTZ
    Blend: AUG-CC-PVTZ
  Basis Set: (AUG-CC-PVTZ AUX)
    Blend: AUG-CC-PVTZ-JKFIT
	 Reference Energy          =    -230.9980757982539785 [Eh]
	 Singles Energy            =      -0.0000000000000000 [Eh]
	 Same-Spin Energy          =      -0.2379977188710404 [Eh]
	 Opposite-Spin Energy      =      -0.8101673737757678 [Eh]
	 Correlation Energy        =      -1.0481650926468080 [Eh]
	 Total Energy              =    -232.0462408909007763 [Eh]

	 ================> DF-SCS-MP2 Energies <==================
	-----------------------------------------------------------
	 SCS Same-Spin Scale       =       0.3333333333333333 [-]
	 SCS Opposite-Spin Scale   =       1.2000000000000000 [-]
	 SCS Same-Spin Energy      =      -0.0793325729570135 [Eh]
	 SCS Opposite-Spin Energy  =      -0.9722008485309213 [Eh]
	 SCS Correlation Energy    =      -1.0515334214879348 [Eh]
	 SCS Total Energy          =    -232.0496092197419102 [Eh]
	-----------------------------------------------------------

  Dipole Moment: [D]
     X:     3.0499      Y:     1.0274      Z:    -1.2083     Total:     3.4376

*** Psi4 exiting successfully. Buy a developer a beer!
