                               Psi4 1.3.2 release

  ==> Input File <==

--------------------------------------------------------------------------
#psi4
#
memory 32 gb

molecule  {
0 1
  O       -1.7956590    -0.0045330     0.2925540
  C        0.5176150     0.0064930    -0.4337930
  C        1.5574320     0.8851440     0.2677470
  C        0.5838050    -1.4460010     0.0098110
  C       -0.8444787     0.5794788    -0.1303103
  H        0.7518391     0.0485194    -1.5085701
  H        1.4879930     1.9288570    -0.0538080
  H        2.5672940     0.5309070     0.0461510
  H        1.4157060     0.8510730     1.3520620
  H        1.5722370    -1.8650000    -0.1966570
  H       -0.1668510    -2.0488350    -0.5051420
  H        0.3905920    -1.5243500     1.0824380
  H       -0.9679480     1.6539330    -0.5206060
units angstrom
no_reorient  #important for SAPT in psi4, default
symmetry c1  #important for SAPT in psi4, default
}

set PROPERTIES_ORIGIN ["COM"]
properties('MP2/aug-cc-pvtz', properties = ['dipole'])
--------------------------------------------------------------------------

    Molecular point group: c1
  Charge       = 0
  Multiplicity = 1
  Basis Set: AUG-CC-PVTZ
    Blend: AUG-CC-PVTZ
  Basis Set: (AUG-CC-PVTZ AUX)
    Blend: AUG-CC-PVTZ-JKFIT

    Orbital Energies [Eh]
    ---------------------

    Doubly Occupied:

       1A    -20.561250     2A    -11.332026     3A    -11.248528
       4A    -11.234032     5A    -11.218449     6A     -1.405373
       7A     -1.095988     8A     -0.945719     9A     -0.882104
      10A     -0.756002    11A     -0.686339    12A     -0.648873
      13A     -0.624068    14A     -0.568808    15A     -0.551799
      16A     -0.534682    17A     -0.526299    18A     -0.494752
      19A     -0.484233    20A     -0.413060

  @DF-RHF Final Energy:  -231.06870529157669

   => Energetics <=

    Nuclear Repulsion Energy =            177.8159295681649041
    One-Electron Energy =                -665.3445010713268175
    Two-Electron Energy =                 256.4598662115852221
    Total Energy =                       -231.0687052915766913
  Basis Set: (AUG-CC-PVTZ AUX)
    Blend: AUG-CC-PVTZ-RI
    Molecular point group: c1

    Geometry (in Angstrom), charge = 0, multiplicity = 1:

       Center              X                  Y                   Z               Mass
    ------------   -----------------  -----------------  -----------------  -----------------
         O           -1.797839238003    -0.001766490912     0.279587681224    15.994914619570
         C            0.515434761997     0.009259509088    -0.446759318776    12.000000000000
         C            1.555251761997     0.887910509088     0.254780681224    12.000000000000
         C            0.581624761997    -1.443234490912    -0.003155318776    12.000000000000
         C           -0.846658938003     0.582245309088    -0.143276618776    12.000000000000
         H            0.749658861997     0.051285909088    -1.521536418776     1.007825032230
         H            1.485812761997     1.931623509088    -0.066774318776     1.007825032230
         H            2.565113761997     0.533673509088     0.033184681224     1.007825032230
         H            1.413525761997     0.853839509088     1.339095681224     1.007825032230
         H            1.570056761997    -1.862233490912    -0.209623318776     1.007825032230
         H           -0.169031238003    -2.046068490912    -0.518108318776     1.007825032230
         H            0.388411761997    -1.521583490912     1.069471681224     1.007825032230
         H           -0.970128238003     1.656699509088    -0.533572318776     1.007825032230

  Basis Set: AUG-CC-PVTZ
    Blend: AUG-CC-PVTZ
  Basis Set: (AUG-CC-PVTZ AUX)
    Blend: AUG-CC-PVTZ-JKFIT
	 Reference Energy          =    -231.0687052915766913 [Eh]
	 Singles Energy            =      -0.0000000000000000 [Eh]
	 Same-Spin Energy          =      -0.2301468214448021 [Eh]
	 Opposite-Spin Energy      =      -0.7935024080100535 [Eh]
	 Correlation Energy        =      -1.0236492294548556 [Eh]
	 Total Energy              =    -232.0923545210315524 [Eh]

	 ================> DF-SCS-MP2 Energies <==================
	-----------------------------------------------------------
	 SCS Same-Spin Scale       =       0.3333333333333333 [-]
	 SCS Opposite-Spin Scale   =       1.2000000000000000 [-]
	 SCS Same-Spin Energy      =      -0.0767156071482674 [Eh]
	 SCS Opposite-Spin Energy  =      -0.9522028896120641 [Eh]
	 SCS Correlation Energy    =      -1.0289184967603315 [Eh]
	 SCS Total Energy          =    -232.0976237883370175 [Eh]
	-----------------------------------------------------------

  Dipole Moment: [D]
     X:     2.3842      Y:     0.7093      Z:    -0.9142     Total:     2.6501

*** Psi4 exiting successfully. Buy a developer a beer!
