                               Psi4 1.3.2 release

  ==> Input File <==

--------------------------------------------------------------------------
#psi4
#
memory 32 gb

molecule  {
0 1
  O       -1.7956590    -0.0045330     0.2925540
  C        0.5176150     0.0064930    -0.4337930
  C        1.5574320     0.8851440     0.2677470
  C        0.5838050    -1.4460010     0.0098110
  C       -0.8532490     0.5940380    -0.2074380
  H        0.7003720     0.0729440    -1.5172860
  H        1.4879930     1.9288570    -0.0538080
  H        2.5672940     0.5309070     0.0461510
  H        1.4157060     0.8510730     1.3520620
  H        1.5722370    -1.8650000    -0.1966570
  H       -0.1668510    -2.0488350    -0.5051420
  H        0.3905920    -1.5243500     1.0824380
  H       -0.9782707     1.7493220    -0.5487907
units angstrom
no_reorient  #important for SAPT in psi4, default
symmetry c1  #important for SAPT in psi4, default
}

set PROPERTIES_ORIGIN ["COM"]
properties('MP2/aug-cc-pvtz', properties = ['dipole'])
--------------------------------------------------------------------------

    Molecular point group: c1
  Charge       = 0
  Multiplicity = 1
  Basis Set: AUG-CC-PVTZ
    Blend: AUG-CC-PVTZ
  Basis Set: (AUG-CC-PVTZ AUX)
    Blend: AUG-CC-PVTZ-JKFIT

    Orbital Energies [Eh]
    ---------------------

    Doubly Occupied:

       1A    -20.561266     2A    -11.343534     3A    -11.251942
       4A    -11.235735     5A    -11.220286     6A     -1.385545
       7A     -1.095996     8A     -0.946408     9A     -0.884034
      10A     -0.749023    11A     -0.675691    12A     -0.639351
      13A     -0.625377    14A     -0.566439    15A     -0.551356
      16A     -0.533734    17A     -0.520629    18A     -0.495754
      19A     -0.483356    20A     -0.415244

  @DF-RHF Final Energy:  -231.06446891416709

   => Energetics <=

    Nuclear Repulsion Energy =            176.8145077740929878
    One-Electron Energy =                -663.3965520018017514
    Two-Electron Energy =                 255.5175753135416699
    Total Energy =                       -231.0644689141670938
  Basis Set: (AUG-CC-PVTZ AUX)
    Blend: AUG-CC-PVTZ-RI
    Molecular point group: c1

    Geometry (in Angstrom), charge = 0, multiplicity = 1:

       Center              X                  Y                   Z               Mass
    ------------   -----------------  -----------------  -----------------  -----------------
         O           -1.795514471357    -0.005866848048     0.292948144043    15.994914619570
         C            0.517759528643     0.005159151952    -0.433398855957    12.000000000000
         C            1.557576528643     0.883810151952     0.268141144043    12.000000000000
         C            0.583949528643    -1.447334848048     0.010205144043    12.000000000000
         C           -0.853104471357     0.592704151952    -0.207043855957    12.000000000000
         H            0.700516528643     0.071610151952    -1.516891855957     1.007825032230
         H            1.488137528643     1.927523151952    -0.053413855957     1.007825032230
         H            2.567438528643     0.529573151952     0.046545144043     1.007825032230
         H            1.415850528643     0.849739151952     1.352456144043     1.007825032230
         H            1.572381528643    -1.866333848048    -0.196262855957     1.007825032230
         H           -0.166706471357    -2.050168848048    -0.504747855957     1.007825032230
         H            0.390736528643    -1.525683848048     1.082832144043     1.007825032230
         H           -0.978126171357     1.747988151952    -0.548396555957     1.007825032230

  Basis Set: AUG-CC-PVTZ
    Blend: AUG-CC-PVTZ
  Basis Set: (AUG-CC-PVTZ AUX)
    Blend: AUG-CC-PVTZ-JKFIT
	 Reference Energy          =    -231.0644689141670938 [Eh]
	 Singles Energy            =      -0.0000000000000000 [Eh]
	 Same-Spin Energy          =      -0.2310538476989510 [Eh]
	 Opposite-Spin Energy      =      -0.7957213998843048 [Eh]
	 Correlation Energy        =      -1.0267752475832559 [Eh]
	 Total Energy              =    -232.0912441617503532 [Eh]

	 ================> DF-SCS-MP2 Energies <==================
	-----------------------------------------------------------
	 SCS Same-Spin Scale       =       0.3333333333333333 [-]
	 SCS Opposite-Spin Scale   =       1.2000000000000000 [-]
	 SCS Same-Spin Energy      =      -0.0770179492329837 [Eh]
	 SCS Opposite-Spin Energy  =      -0.9548656798611657 [Eh]
	 SCS Correlation Energy    =      -1.0318836290941493 [Eh]
	 SCS Total Energy          =    -232.0963525432612471 [Eh]
	-----------------------------------------------------------

  Dipole Moment: [D]
     X:     2.4596      Y:     0.7040      Z:    -0.9491     Total:     2.7288

*** Psi4 exiting successfully. Buy a developer a beer!
