                               Psi4 1.4a3.dev225

  ==> Input File <==

--------------------------------------------------------------------------
#psi4
#
memory 32 gb

molecule  {
0 1
  O       -1.8841100    -0.0754290    -0.2841020
  C        0.4339560     0.0114880     0.4275350
  C        1.5032440    -0.8397350    -0.2682130
  C        0.4423580     1.4601130    -0.0387010
  C       -0.8716737    -0.6102017     0.2257364
  H        0.6252000    -0.0321580     1.5111040
  H        1.4713110    -1.8814970     0.0665680
  H        2.5004740    -0.4466550    -0.0533610
  H        1.3573160    -0.8234960    -1.3527830
  H        1.4146230     1.9201520     0.1587670
  H       -0.3302150     2.0412490     0.4696940
  H        0.2436030     1.5145060    -1.1122270
  H       -0.9884720    -1.6909150     0.5483740
units angstrom
no_reorient  #important for SAPT in psi4, default
symmetry c1  #important for SAPT in psi4, default
}

set PROPERTIES_ORIGIN ["COM"]
properties('MP2/aug-cc-pvtz', properties = ['dipole'])
--------------------------------------------------------------------------

    Molecular point group: c1
  Charge       = 0
  Multiplicity = 1
  Basis Set: AUG-CC-PVTZ
    Blend: AUG-CC-PVTZ
  Basis Set: (AUG-CC-PVTZ AUX)
    Blend: AUG-CC-PVTZ-JKFIT

    Orbital Energies [Eh]
    ---------------------

    Doubly Occupied:

       1A    -20.555786     2A    -11.335485     3A    -11.251108
       4A    -11.239063     5A    -11.221234     6A     -1.363503
       7A     -1.104345     8A     -0.948421     9A     -0.897849
      10A     -0.756749    11A     -0.682497    12A     -0.633066
      13A     -0.626791    14A     -0.566343    15A     -0.552498
      16A     -0.532365    17A     -0.515036    18A     -0.496738
      19A     -0.476036    20A     -0.423624

  @DF-RHF Final Energy:  -231.06409889022811

   => Energetics <=

    Nuclear Repulsion Energy =            177.3461490548257586
    One-Electron Energy =                -664.4634229776268057
    Two-Electron Energy =                 256.0531750325728808
    Total Energy =                       -231.0640988902281379
  Basis Set: (AUG-CC-PVTZ AUX)
    Blend: AUG-CC-PVTZ-RI
    Molecular point group: c1

    Geometry (in Angstrom), charge = 0, multiplicity = 1:

       Center              X                  Y                   Z               Mass
    ------------   -----------------  -----------------  -----------------  -----------------
         O           -1.805027651785    -0.070701963332    -0.282021513854    15.994914619570
         C            0.513038348215     0.016215036668     0.429615486146    12.000000000000
         C            1.582326348215    -0.835007963332    -0.266132513854    12.000000000000
         C            0.521440348215     1.464840036668    -0.036620513854    12.000000000000
         C           -0.792591351785    -0.605474663332     0.227816886146    12.000000000000
         H            0.704282348215    -0.027430963332     1.513184486146     1.007825032230
         H            1.550393348215    -1.876769963332     0.068648486146     1.007825032230
         H            2.579556348215    -0.441927963332    -0.051280513854     1.007825032230
         H            1.436398348215    -0.818768963332    -1.350702513854     1.007825032230
         H            1.493705348215     1.924879036668     0.160847486146     1.007825032230
         H           -0.251132651785     2.045976036668     0.471774486146     1.007825032230
         H            0.322685348215     1.519233036668    -1.110146513854     1.007825032230
         H           -0.909389651785    -1.686187963332     0.550454486146     1.007825032230

  Basis Set: AUG-CC-PVTZ
    Blend: AUG-CC-PVTZ
  Basis Set: (AUG-CC-PVTZ AUX)
    Blend: AUG-CC-PVTZ-JKFIT
	 Reference Energy          =    -231.0640988902281094 [Eh]
	 Singles Energy            =      -0.0000000000000000 [Eh]
	 Same-Spin Energy          =      -0.2318871350112059 [Eh]
	 Opposite-Spin Energy      =      -0.7970566476663909 [Eh]
	 Correlation Energy        =      -1.0289437826775969 [Eh]
	 Total Energy              =    -232.0930426729057103 [Eh]

	 ================> DF-SCS-MP2 Energies <==================
	-----------------------------------------------------------
	 SCS Same-Spin Scale       =       0.3333333333333333 [-]
	 SCS Opposite-Spin Scale   =       1.2000000000000000 [-]
	 SCS Same-Spin Energy      =      -0.0772957116704019 [Eh]
	 SCS Opposite-Spin Energy  =      -0.9564679771996691 [Eh]
	 SCS Correlation Energy    =      -1.0337636888700712 [Eh]
	 SCS Total Energy          =    -232.0978625790981766 [Eh]
	-----------------------------------------------------------

  Dipole Moment: [D]
     X:     2.7146      Y:    -0.6787      Z:     1.0259     Total:     2.9803

*** Psi4 exiting successfully. Buy a developer a beer!
