                               Psi4 1.3.2 release

  ==> Input File <==

--------------------------------------------------------------------------
#psi4
#
memory 32 gb

molecule  {
0 1
  O       -1.7956590    -0.0045330     0.2925540
  C        0.5176150     0.0064930    -0.4337930
  C        1.5956898     0.8520677     0.2504318
  C        0.5838050    -1.4460010     0.0098110
  C       -0.8737785     0.5547010    -0.2357884
  H        0.7003720     0.0729440    -1.5172860
  H        1.4879930     1.9288570    -0.0538080
  H        2.5672940     0.5309070     0.0461510
  H        1.4157060     0.8510730     1.3520620
  H        1.5722370    -1.8650000    -0.1966570
  H       -0.1668510    -2.0488350    -0.5051420
  H        0.3905920    -1.5243500     1.0824380
  H       -0.9679480     1.6539330    -0.5206060
units angstrom
no_reorient  #important for SAPT in psi4, default
symmetry c1  #important for SAPT in psi4, default
}

set PROPERTIES_ORIGIN ["COM"]
properties('MP2/aug-cc-pvtz', properties = ['dipole'])
--------------------------------------------------------------------------

    Molecular point group: c1
  Charge       = 0
  Multiplicity = 1
  Basis Set: AUG-CC-PVTZ
    Blend: AUG-CC-PVTZ
  Basis Set: (AUG-CC-PVTZ AUX)
    Blend: AUG-CC-PVTZ-JKFIT

    Orbital Energies [Eh]
    ---------------------

    Doubly Occupied:

       1A    -20.560683     2A    -11.332525     3A    -11.248924
       4A    -11.236366     5A    -11.218221     6A     -1.400187
       7A     -1.094868     8A     -0.944801     9A     -0.889066
      10A     -0.755539    11A     -0.681393    12A     -0.646970
      13A     -0.624826    14A     -0.572122    15A     -0.554638
      16A     -0.533605    17A     -0.527233    18A     -0.488806
      19A     -0.482116    20A     -0.415581

  @DF-RHF Final Energy:  -231.06774094922278

   => Energetics <=

    Nuclear Repulsion Energy =            177.4325491693513754
    One-Electron Energy =                -664.5836406266554377
    Two-Electron Energy =                 256.0833505080812529
    Total Energy =                       -231.0677409492228094
  Basis Set: (AUG-CC-PVTZ AUX)
    Blend: AUG-CC-PVTZ-RI
    Molecular point group: c1

    Geometry (in Angstrom), charge = 0, multiplicity = 1:

       Center              X                  Y                   Z               Mass
    ------------   -----------------  -----------------  -----------------  -----------------
         O           -1.798611207011     0.007526550596     0.300158800068    15.994914619570
         C            0.514662792989     0.018552550596    -0.426188199932    12.000000000000
         C            1.592737592989     0.864127250596     0.258036600068    12.000000000000
         C            0.580852792989    -1.433941449404     0.017415800068    12.000000000000
         C           -0.876730707011     0.566760550596    -0.228183599932    12.000000000000
         H            0.697419792989     0.085003550596    -1.509681199932     1.007825032230
         H            1.485040792989     1.940916550596    -0.046203199932     1.007825032230
         H            2.564341792989     0.542966550596     0.053755800068     1.007825032230
         H            1.412753792989     0.863132550596     1.359666800068     1.007825032230
         H            1.569284792989    -1.852940449404    -0.189052199932     1.007825032230
         H           -0.169803207011    -2.036775449404    -0.497537199932     1.007825032230
         H            0.387639792989    -1.512290449404     1.090042800068     1.007825032230
         H           -0.970900207011     1.665992550596    -0.513001199932     1.007825032230

  Basis Set: AUG-CC-PVTZ
    Blend: AUG-CC-PVTZ
  Basis Set: (AUG-CC-PVTZ AUX)
    Blend: AUG-CC-PVTZ-JKFIT
	 Reference Energy          =    -231.0677409492227810 [Eh]
	 Singles Energy            =      -0.0000000000000000 [Eh]
	 Same-Spin Energy          =      -0.2301781716243296 [Eh]
	 Opposite-Spin Energy      =      -0.7936769108825320 [Eh]
	 Correlation Energy        =      -1.0238550825068615 [Eh]
	 Total Energy              =    -232.0915960317296367 [Eh]

	 ================> DF-SCS-MP2 Energies <==================
	-----------------------------------------------------------
	 SCS Same-Spin Scale       =       0.3333333333333333 [-]
	 SCS Opposite-Spin Scale   =       1.2000000000000000 [-]
	 SCS Same-Spin Energy      =      -0.0767260572081099 [Eh]
	 SCS Opposite-Spin Energy  =      -0.9524122930590384 [Eh]
	 SCS Correlation Energy    =      -1.0291383502671483 [Eh]
	 SCS Total Energy          =    -232.0968792994899275 [Eh]
	-----------------------------------------------------------

  Dipole Moment: [D]
     X:     2.3965      Y:     0.7378      Z:    -0.9646     Total:     2.6866

*** Psi4 exiting successfully. Buy a developer a beer!
