                               Psi4 1.3.2 release

  ==> Input File <==

--------------------------------------------------------------------------
#psi4
#
memory 32 gb

molecule  {
0 1
  O       -1.7895697    -0.0132521     0.2934793
  C        0.5176150     0.0064930    -0.4337930
  C        1.5574320     0.8851440     0.2677470
  C        0.5838050    -1.4460010     0.0098110
  C       -0.8532490     0.5940380    -0.2074380
  H        0.7003720     0.0729440    -1.5172860
  H        1.4879930     1.9288570    -0.0538080
  H        2.5672940     0.5309070     0.0461510
  H        1.4157060     0.8510730     1.3520620
  H        1.5722370    -1.8650000    -0.1966570
  H       -0.1668510    -2.0488350    -0.5051420
  H        0.3905920    -1.5243500     1.0824380
  H       -0.9587224     1.6540054    -0.5235897
units angstrom
no_reorient  #important for SAPT in psi4, default
symmetry c1  #important for SAPT in psi4, default
}

set PROPERTIES_ORIGIN ["COM"]
properties('MP2/aug-cc-pvtz', properties = ['dipole'])
--------------------------------------------------------------------------

    Molecular point group: c1
  Charge       = 0
  Multiplicity = 1
  Basis Set: AUG-CC-PVTZ
    Blend: AUG-CC-PVTZ
  Basis Set: (AUG-CC-PVTZ AUX)
    Blend: AUG-CC-PVTZ-JKFIT

    Orbital Energies [Eh]
    ---------------------

    Doubly Occupied:

       1A    -20.558369     2A    -11.332305     3A    -11.248899
       4A    -11.235353     5A    -11.218552     6A     -1.383583
       7A     -1.094906     8A     -0.945616     9A     -0.889425
      10A     -0.760713    11A     -0.681216    12A     -0.639800
      13A     -0.625078    14A     -0.567272    15A     -0.551331
      16A     -0.532053    17A     -0.518948    18A     -0.494862
      19A     -0.481735    20A     -0.418621

  @DF-RHF Final Energy:  -231.07110292576817

   => Energetics <=

    Nuclear Repulsion Energy =            177.3266130520232764
    One-Electron Energy =                -664.4381554609392424
    Two-Electron Energy =                 256.0404394831477930
    Total Energy =                       -231.0711029257681730
  Basis Set: (AUG-CC-PVTZ AUX)
    Blend: AUG-CC-PVTZ-RI
    Molecular point group: c1

    Geometry (in Angstrom), charge = 0, multiplicity = 1:

       Center              X                  Y                   Z               Mass
    ------------   -----------------  -----------------  -----------------  -----------------
         O           -1.791050249600    -0.011317396309     0.293315580048    15.994914619570
         C            0.516134450400     0.008427703691    -0.433956719952    12.000000000000
         C            1.555951450400     0.887078703691     0.267583280048    12.000000000000
         C            0.582324450400    -1.444066296309     0.009647280048    12.000000000000
         C           -0.854729549600     0.595972703691    -0.207601719952    12.000000000000
         H            0.698891450400     0.074878703691    -1.517449719952     1.007825032230
         H            1.486512450400     1.930791703691    -0.053971719952     1.007825032230
         H            2.565813450400     0.532841703691     0.045987280048     1.007825032230
         H            1.414225450400     0.853007703691     1.351898280048     1.007825032230
         H            1.570756450400    -1.863065296309    -0.196820719952     1.007825032230
         H           -0.168331549600    -2.046900296309    -0.505305719952     1.007825032230
         H            0.389111450400    -1.522415296309     1.082274280048     1.007825032230
         H           -0.960202949600     1.655940103691    -0.523753419952     1.007825032230

  Basis Set: AUG-CC-PVTZ
    Blend: AUG-CC-PVTZ
  Basis Set: (AUG-CC-PVTZ AUX)
    Blend: AUG-CC-PVTZ-JKFIT
	 Reference Energy          =    -231.0711029257681730 [Eh]
	 Singles Energy            =      -0.0000000000000000 [Eh]
	 Same-Spin Energy          =      -0.2306467635366869 [Eh]
	 Opposite-Spin Energy      =      -0.7947131703982545 [Eh]
	 Correlation Energy        =      -1.0253599339349415 [Eh]
	 Total Energy              =    -232.0964628597031094 [Eh]

	 ================> DF-SCS-MP2 Energies <==================
	-----------------------------------------------------------
	 SCS Same-Spin Scale       =       0.3333333333333333 [-]
	 SCS Opposite-Spin Scale   =       1.2000000000000000 [-]
	 SCS Same-Spin Energy      =      -0.0768822545122290 [Eh]
	 SCS Opposite-Spin Energy  =      -0.9536558044779053 [Eh]
	 SCS Correlation Energy    =      -1.0305380589901343 [Eh]
	 SCS Total Energy          =    -232.1016409847583191 [Eh]
	-----------------------------------------------------------

  Dipole Moment: [D]
     X:     2.4281      Y:     0.8687      Z:    -0.9997     Total:     2.7658

*** Psi4 exiting successfully. Buy a developer a beer!
