                               Psi4 1.3.2 release

  ==> Input File <==

--------------------------------------------------------------------------
#psi4
#
memory 32 gb

molecule  {
0 1
  O       -1.7580631    -0.0561405     0.2975325
  C        0.5176150     0.0064930    -0.4337930
  C        1.5574320     0.8851440     0.2677470
  C        0.5838050    -1.4460010     0.0098110
  C       -0.8532490     0.5940380    -0.2074380
  H        0.7003720     0.0729440    -1.5172860
  H        1.4879930     1.9288570    -0.0538080
  H        2.5672940     0.5309070     0.0461510
  H        1.4157060     0.8510730     1.3520620
  H        1.5722370    -1.8650000    -0.1966570
  H       -0.1668510    -2.0488350    -0.5051420
  H        0.3905920    -1.5243500     1.0824380
  H       -0.9124878     1.6531568    -0.5381428
units angstrom
no_reorient  #important for SAPT in psi4, default
symmetry c1  #important for SAPT in psi4, default
}

set PROPERTIES_ORIGIN ["COM"]
properties('MP2/aug-cc-pvtz', properties = ['dipole'])
--------------------------------------------------------------------------

    Molecular point group: c1
  Charge       = 0
  Multiplicity = 1
  Basis Set: AUG-CC-PVTZ
    Blend: AUG-CC-PVTZ
  Basis Set: (AUG-CC-PVTZ AUX)
    Blend: AUG-CC-PVTZ-JKFIT

    Orbital Energies [Eh]
    ---------------------

    Doubly Occupied:

       1A    -20.559724     2A    -11.333593     3A    -11.245854
       4A    -11.234466     5A    -11.216653     6A     -1.384788
       7A     -1.093340     8A     -0.944395     9A     -0.890560
      10A     -0.759903    11A     -0.680917    12A     -0.641720
      13A     -0.624072    14A     -0.566938    15A     -0.550951
      16A     -0.529620    17A     -0.518534    18A     -0.493398
      19A     -0.481151    20A     -0.418265

  @DF-RHF Final Energy:  -231.06907676601685

   => Energetics <=

    Nuclear Repulsion Energy =            177.7490723506269035
    One-Electron Energy =                -665.2986135545718298
    Two-Electron Energy =                 256.4804644379281058
    Total Energy =                       -231.0690767660168490
  Basis Set: (AUG-CC-PVTZ AUX)
    Blend: AUG-CC-PVTZ-RI
    Molecular point group: c1

    Geometry (in Angstrom), charge = 0, multiplicity = 1:

       Center              X                  Y                   Z               Mass
    ------------   -----------------  -----------------  -----------------  -----------------
         O           -1.767183959776    -0.044673805959     0.296672619355    15.994914619570
         C            0.508494140224     0.017959694041    -0.434652880645    12.000000000000
         C            1.548311140224     0.896610694041     0.266887119355    12.000000000000
         C            0.574684140224    -1.434534305959     0.008951119355    12.000000000000
         C           -0.862369859776     0.605504694041    -0.208297880645    12.000000000000
         H            0.691251140224     0.084410694041    -1.518145880645     1.007825032230
         H            1.478872140224     1.940323694041    -0.054667880645     1.007825032230
         H            2.558173140224     0.542373694041     0.045291119355     1.007825032230
         H            1.406585140224     0.862539694041     1.351202119355     1.007825032230
         H            1.563116140224    -1.853533305959    -0.197516880645     1.007825032230
         H           -0.175971859776    -2.037368305959    -0.506001880645     1.007825032230
         H            0.381471140224    -1.512883305959     1.081578119355     1.007825032230
         H           -0.921608659776     1.664623494041    -0.539002680645     1.007825032230

  Basis Set: AUG-CC-PVTZ
    Blend: AUG-CC-PVTZ
  Basis Set: (AUG-CC-PVTZ AUX)
    Blend: AUG-CC-PVTZ-JKFIT
	 Reference Energy          =    -231.0690767660168490 [Eh]
	 Singles Energy            =      -0.0000000000000000 [Eh]
	 Same-Spin Energy          =      -0.2308980939084883 [Eh]
	 Opposite-Spin Energy      =      -0.7950686133358792 [Eh]
	 Correlation Energy        =      -1.0259667072443674 [Eh]
	 Total Energy              =    -232.0950434732612280 [Eh]

	 ================> DF-SCS-MP2 Energies <==================
	-----------------------------------------------------------
	 SCS Same-Spin Scale       =       0.3333333333333333 [-]
	 SCS Opposite-Spin Scale   =       1.2000000000000000 [-]
	 SCS Same-Spin Energy      =      -0.0769660313028294 [Eh]
	 SCS Opposite-Spin Energy  =      -0.9540823360030550 [Eh]
	 SCS Correlation Energy    =      -1.0310483673058846 [Eh]
	 SCS Total Energy          =    -232.1001251333227344 [Eh]
	-----------------------------------------------------------

  Dipole Moment: [D]
     X:     2.3335      Y:     0.9580      Z:    -1.0058     Total:     2.7156

*** Psi4 exiting successfully. Buy a developer a beer!
