                               Psi4 1.3.2 release

  ==> Input File <==

--------------------------------------------------------------------------
#psi4
#
memory 32 gb

molecule  {
0 1
  O        0.8013680    -0.3194430    -0.6593080
  O       -0.5076550    -0.8220740    -0.2452740
  O       -1.0728670     1.3987690    -0.0973370
  C        1.6031630    -0.2426310     0.5338170
  C        2.9657370     0.2196450     0.0595640
  C       -1.3789950     0.2279050    -0.0301100
  C       -2.6699311    -0.3499782     0.5561759
  H        1.1531750     0.4718980     1.2294250
  H        1.6470430    -1.2298650     1.0038120
  H        3.6380680     0.2976270     0.9176960
  H        3.3895360    -0.4934290    -0.6504970
  H        2.8952950     1.1995690    -0.4169390
  H       -3.2299570    -0.5922870    -0.6804890
  H       -2.6567000    -1.2579100     0.8585660
  H       -3.3255750     0.4009600     0.7925810
units angstrom
no_reorient  #important for SAPT in psi4, default
symmetry c1  #important for SAPT in psi4, default
}

set PROPERTIES_ORIGIN ["COM"]
properties('MP2/aug-cc-pvtz', properties = ['dipole'])
--------------------------------------------------------------------------

    Molecular point group: c1
  Charge       = 0
  Multiplicity = 1
  Basis Set: AUG-CC-PVTZ
    Blend: AUG-CC-PVTZ
  Basis Set: (AUG-CC-PVTZ AUX)
    Blend: AUG-CC-PVTZ-JKFIT

    Orbital Energies [Eh]
    ---------------------

    Doubly Occupied:

       1A    -20.656485     2A    -20.641077     3A    -20.553747
       4A    -11.399388     5A    -11.290698     6A    -11.266831
       7A    -11.227734     8A     -1.507620     9A     -1.390655
      10A     -1.268059    11A     -1.035856    12A     -1.006271
      13A     -0.854529    14A     -0.799992    15A     -0.718578
      16A     -0.699396    17A     -0.672143    18A     -0.658226
      19A     -0.633099    20A     -0.610628    21A     -0.576247
      22A     -0.544961    23A     -0.535809    24A     -0.514607
      25A     -0.489684    26A     -0.478856    27A     -0.462268
      28A     -0.447012

  @DF-RHF Final Energy:  -380.70329509433753

   => Energetics <=

    Nuclear Repulsion Energy =            315.7424700906346402
    One-Electron Energy =               -1147.0106207122760225
    Two-Electron Energy =                 450.5648555273037914
    Total Energy =                       -380.7032950943375340
  Basis Set: (AUG-CC-PVTZ AUX)
    Blend: AUG-CC-PVTZ-RI
    Molecular point group: c1

    Geometry (in Angstrom), charge = 0, multiplicity = 1:

       Center              X                  Y                   Z               Mass
    ------------   -----------------  -----------------  -----------------  -----------------
         O            0.827168342527    -0.330602914290    -0.663977103327    15.994914619570
         O           -0.481854657473    -0.833233914290    -0.249943103327    15.994914619570
         O           -1.047066657473     1.387609085710    -0.102006103327    15.994914619570
         C            1.628963342527    -0.253790914290     0.529147896673    12.000000000000
         C            2.991537342527     0.208485085710     0.054894896673    12.000000000000
         C           -1.353194657473     0.216745085710    -0.034779103327    12.000000000000
         C           -2.644130757473    -0.361138114290     0.551506796673    12.000000000000
         H            1.178975342527     0.460738085710     1.224755896673     1.007825032230
         H            1.672843342527    -1.241024914290     0.999142896673     1.007825032230
         H            3.663868342527     0.286467085710     0.913026896673     1.007825032230
         H            3.415336342527    -0.504588914290    -0.655166103327     1.007825032230
         H            2.921095342527     1.188409085710    -0.421608103327     1.007825032230
         H           -3.204156657473    -0.603446914290    -0.685158103327     1.007825032230
         H           -2.630899657473    -1.269069914290     0.853896896673     1.007825032230
         H           -3.299774657473     0.389800085710     0.787911896673     1.007825032230

  Basis Set: AUG-CC-PVTZ
    Blend: AUG-CC-PVTZ
  Basis Set: (AUG-CC-PVTZ AUX)
    Blend: AUG-CC-PVTZ-JKFIT
	 Reference Energy          =    -380.7032950943375340 [Eh]
	 Singles Energy            =      -0.0000000000000000 [Eh]
	 Same-Spin Energy          =      -0.3656802090634165 [Eh]
	 Opposite-Spin Energy      =      -1.1751308764924908 [Eh]
	 Correlation Energy        =      -1.5408110855559074 [Eh]
	 Total Energy              =    -382.2441061798934356 [Eh]

	 ================> DF-SCS-MP2 Energies <==================
	-----------------------------------------------------------
	 SCS Same-Spin Scale       =       0.3333333333333333 [-]
	 SCS Opposite-Spin Scale   =       1.2000000000000000 [-]
	 SCS Same-Spin Energy      =      -0.1218934030211388 [Eh]
	 SCS Opposite-Spin Energy  =      -1.4101570517909889 [Eh]
	 SCS Correlation Energy    =      -1.5320504548121279 [Eh]
	 SCS Total Energy          =    -382.2353455491496561 [Eh]
	-----------------------------------------------------------

  Dipole Moment: [D]
     X:    -0.2609      Y:    -1.5259      Z:     1.7553     Total:     2.3404

*** Psi4 exiting successfully. Buy a developer a beer!
