                               Psi4 1.3.2 release

  ==> Input File <==

--------------------------------------------------------------------------
#psi4
#
memory 32 gb

molecule  {
0 1
  O        0.8013680    -0.3194430    -0.6593080
  O       -0.5076550    -0.8220740    -0.2452740
  O       -1.0728670     1.3987690    -0.0973370
  C        1.6031630    -0.2426310     0.5338170
  C        2.9657370     0.2196450     0.0595640
  C       -1.3789950     0.2279050    -0.0301100
  C       -2.7251385    -0.3477872     0.3123576
  H        1.1531750     0.4718980     1.2294250
  H        1.6470430    -1.2298650     1.0038120
  H        3.6380680     0.2976270     0.9176960
  H        3.3895360    -0.4934290    -0.6504970
  H        2.8952950     1.1995690    -0.4169390
  H       -3.2299570    -0.5922870    -0.6804890
  H       -2.6567000    -1.2579100     0.8585660
  H       -3.3255750     0.4009600     0.7925810
units angstrom
no_reorient  #important for SAPT in psi4, default
symmetry c1  #important for SAPT in psi4, default
}

set PROPERTIES_ORIGIN ["COM"]
properties('MP2/aug-cc-pvtz', properties = ['dipole'])
--------------------------------------------------------------------------

    Molecular point group: c1
  Charge       = 0
  Multiplicity = 1
  Basis Set: AUG-CC-PVTZ
    Blend: AUG-CC-PVTZ
  Basis Set: (AUG-CC-PVTZ AUX)
    Blend: AUG-CC-PVTZ-JKFIT

    Orbital Energies [Eh]
    ---------------------

    Doubly Occupied:

       1A    -20.656588     2A    -20.640493     3A    -20.554764
       4A    -11.393413     5A    -11.290196     6A    -11.252718
       7A    -11.227337     8A     -1.507442     9A     -1.390744
      10A     -1.267934    11A     -1.034738    12A     -1.004374
      13A     -0.853990    14A     -0.797021    15A     -0.707894
      16A     -0.694143    17A     -0.674537    18A     -0.644905
      19A     -0.611051    20A     -0.600712    21A     -0.589278
      22A     -0.546483    23A     -0.535392    24A     -0.529276
      25A     -0.513159    26A     -0.481279    27A     -0.467655
      28A     -0.452599

  @DF-RHF Final Energy:  -380.76694317819539

   => Energetics <=

    Nuclear Repulsion Energy =            316.0520750571389499
    One-Electron Energy =               -1147.7978094512409371
    Two-Electron Energy =                 450.9787912159065968
    Total Energy =                       -380.7669431781953904
  Basis Set: (AUG-CC-PVTZ AUX)
    Blend: AUG-CC-PVTZ-RI
    Molecular point group: c1

    Geometry (in Angstrom), charge = 0, multiplicity = 1:

       Center              X                  Y                   Z               Mass
    ------------   -----------------  -----------------  -----------------  -----------------
         O            0.833535528596    -0.330855606948    -0.635857023715    15.994914619570
         O           -0.475487471404    -0.833486606948    -0.221823023715    15.994914619570
         O           -1.040699471404     1.387356393052    -0.073886023715    15.994914619570
         C            1.635330528596    -0.254043606948     0.557267976285    12.000000000000
         C            2.997904528596     0.208232393052     0.083014976285    12.000000000000
         C           -1.346827471404     0.216492393052    -0.006659023715    12.000000000000
         C           -2.692970971404    -0.359199806948     0.335808576285    12.000000000000
         H            1.185342528596     0.460485393052     1.252875976285     1.007825032230
         H            1.679210528596    -1.241277606948     1.027262976285     1.007825032230
         H            3.670235528596     0.286214393052     0.941146976285     1.007825032230
         H            3.421703528596    -0.504841606948    -0.627046023715     1.007825032230
         H            2.927462528596     1.188156393052    -0.393488023715     1.007825032230
         H           -3.197789471404    -0.603699606948    -0.657038023715     1.007825032230
         H           -2.624532471404    -1.269322606948     0.882016976285     1.007825032230
         H           -3.293407471404     0.389547393052     0.816031976285     1.007825032230

  Basis Set: AUG-CC-PVTZ
    Blend: AUG-CC-PVTZ
  Basis Set: (AUG-CC-PVTZ AUX)
    Blend: AUG-CC-PVTZ-JKFIT
	 Reference Energy          =    -380.7669431781953904 [Eh]
	 Singles Energy            =      -0.0000000000000000 [Eh]
	 Same-Spin Energy          =      -0.3647175136822972 [Eh]
	 Opposite-Spin Energy      =      -1.1720155224887421 [Eh]
	 Correlation Energy        =      -1.5367330361710394 [Eh]
	 Total Energy              =    -382.3036762143664191 [Eh]

	 ================> DF-SCS-MP2 Energies <==================
	-----------------------------------------------------------
	 SCS Same-Spin Scale       =       0.3333333333333333 [-]
	 SCS Opposite-Spin Scale   =       1.2000000000000000 [-]
	 SCS Same-Spin Energy      =      -0.1215725045607657 [Eh]
	 SCS Opposite-Spin Energy  =      -1.4064186269864904 [Eh]
	 SCS Correlation Energy    =      -1.5279911315472563 [Eh]
	 SCS Total Energy          =    -382.2949343097426436 [Eh]
	-----------------------------------------------------------

  Dipole Moment: [D]
     X:    -0.2471      Y:    -1.5163      Z:     1.6929     Total:     2.2861

*** Psi4 exiting successfully. Buy a developer a beer!
