                               Psi4 1.3.2 release

  ==> Input File <==

--------------------------------------------------------------------------
#psi4
#
memory 32 gb

molecule  {
0 1
  O        0.8013680    -0.3194430    -0.6593080
  O       -0.5076550    -0.8220740    -0.2452740
  O       -1.0728670     1.3987690    -0.0973370
  C        1.6031630    -0.2426310     0.5338170
  C        2.9657370     0.2196450     0.0595640
  C       -1.3789950     0.2279050    -0.0301100
  C       -2.7030555    -0.3486636     0.4098849
  H        1.1531750     0.4718980     1.2294250
  H        1.6470430    -1.2298650     1.0038120
  H        3.6380680     0.2976270     0.9176960
  H        3.3895360    -0.4934290    -0.6504970
  H        2.8952950     1.1995690    -0.4169390
  H       -3.2299570    -0.5922870    -0.6804890
  H       -2.6567000    -1.2579100     0.8585660
  H       -3.3255750     0.4009600     0.7925810
units angstrom
no_reorient  #important for SAPT in psi4, default
symmetry c1  #important for SAPT in psi4, default
}

set PROPERTIES_ORIGIN ["COM"]
properties('MP2/aug-cc-pvtz', properties = ['dipole'])
--------------------------------------------------------------------------

    Molecular point group: c1
  Charge       = 0
  Multiplicity = 1
  Basis Set: AUG-CC-PVTZ
    Blend: AUG-CC-PVTZ
  Basis Set: (AUG-CC-PVTZ AUX)
    Blend: AUG-CC-PVTZ-JKFIT

    Orbital Energies [Eh]
    ---------------------

    Doubly Occupied:

       1A    -20.656466     2A    -20.640653     3A    -20.554112
       4A    -11.394961     5A    -11.290347     6A    -11.256362
       7A    -11.227457     8A     -1.507437     9A     -1.390531
      10A     -1.267942    11A     -1.035167    12A     -1.004932
      13A     -0.854118    14A     -0.798071    15A     -0.710823
      16A     -0.695998    17A     -0.673017    18A     -0.648361
      19A     -0.617685    20A     -0.608581    21A     -0.584869
      22A     -0.544942    23A     -0.535481    24A     -0.514294
      25A     -0.513635    26A     -0.481026    27A     -0.466509
      28A     -0.451852

  @DF-RHF Final Energy:  -380.74999509222670

   => Energetics <=

    Nuclear Repulsion Energy =            316.0092629471441228
    One-Electron Energy =               -1147.6672594583631053
    Two-Electron Energy =                 450.9080014189922281
    Total Energy =                       -380.7499950922266976
  Basis Set: (AUG-CC-PVTZ AUX)
    Blend: AUG-CC-PVTZ-RI
    Molecular point group: c1

    Geometry (in Angstrom), charge = 0, multiplicity = 1:

       Center              X                  Y                   Z               Mass
    ------------   -----------------  -----------------  -----------------  -----------------
         O            0.830988649555    -0.330754529885    -0.647105053253    15.994914619570
         O           -0.478034350445    -0.833385529885    -0.233071053253    15.994914619570
         O           -1.043246350445     1.387457470115    -0.085134053253    15.994914619570
         C            1.632783649555    -0.253942529885     0.546019946747    12.000000000000
         C            2.995357649555     0.208333470115     0.071766946747    12.000000000000
         C           -1.349374350445     0.216593470115    -0.017907053253    12.000000000000
         C           -2.673434850445    -0.359975129885     0.422087846747    12.000000000000
         H            1.182795649555     0.460586470115     1.241627946747     1.007825032230
         H            1.676663649555    -1.241176529885     1.016014946747     1.007825032230
         H            3.667688649555     0.286315470115     0.929898946747     1.007825032230
         H            3.419156649555    -0.504740529885    -0.638294053253     1.007825032230
         H            2.924915649555     1.188257470115    -0.404736053253     1.007825032230
         H           -3.200336350445    -0.603598529885    -0.668286053253     1.007825032230
         H           -2.627079350445    -1.269221529885     0.870768946747     1.007825032230
         H           -3.295954350445     0.389648470115     0.804783946747     1.007825032230

  Basis Set: AUG-CC-PVTZ
    Blend: AUG-CC-PVTZ
  Basis Set: (AUG-CC-PVTZ AUX)
    Blend: AUG-CC-PVTZ-JKFIT
	 Reference Energy          =    -380.7499950922266976 [Eh]
	 Singles Energy            =      -0.0000000000000000 [Eh]
	 Same-Spin Energy          =      -0.3649263389489127 [Eh]
	 Opposite-Spin Energy      =      -1.1726039737622913 [Eh]
	 Correlation Energy        =      -1.5375303127112039 [Eh]
	 Total Energy              =    -382.2875254049379237 [Eh]

	 ================> DF-SCS-MP2 Energies <==================
	-----------------------------------------------------------
	 SCS Same-Spin Scale       =       0.3333333333333333 [-]
	 SCS Opposite-Spin Scale   =       1.2000000000000000 [-]
	 SCS Same-Spin Energy      =      -0.1216421129829709 [Eh]
	 SCS Opposite-Spin Energy  =      -1.4071247685147494 [Eh]
	 SCS Correlation Energy    =      -1.5287668814977202 [Eh]
	 SCS Total Energy          =    -382.2787619737244427 [Eh]
	-----------------------------------------------------------

  Dipole Moment: [D]
     X:    -0.2561      Y:    -1.5255      Z:     1.7214     Total:     2.3143

*** Psi4 exiting successfully. Buy a developer a beer!
