                               Psi4 1.3.2 release

  ==> Input File <==

--------------------------------------------------------------------------
#psi4
#
memory 32 gb

molecule  {
0 1
  O        0.8013680    -0.3194430    -0.6593080
  O       -0.5076550    -0.8220740    -0.2452740
  O       -1.0728670     1.3987690    -0.0973370
  C        1.6031630    -0.2426310     0.5338170
  C        2.9657370     0.2196450     0.0595640
  C       -1.3789950     0.2279050    -0.0301100
  C       -2.7140970    -0.3482254     0.3611213
  H        1.1531750     0.4718980     1.2294250
  H        1.6470430    -1.2298650     1.0038120
  H        3.6380680     0.2976270     0.9176960
  H        3.3895360    -0.4934290    -0.6504970
  H        2.8952950     1.1995690    -0.4169390
  H       -3.2299570    -0.5922870    -0.6804890
  H       -2.6567000    -1.2579100     0.8585660
  H       -3.3255750     0.4009600     0.7925810
units angstrom
no_reorient  #important for SAPT in psi4, default
symmetry c1  #important for SAPT in psi4, default
}

set PROPERTIES_ORIGIN ["COM"]
properties('MP2/aug-cc-pvtz', properties = ['dipole'])
--------------------------------------------------------------------------

    Molecular point group: c1
  Charge       = 0
  Multiplicity = 1
  Basis Set: AUG-CC-PVTZ
    Blend: AUG-CC-PVTZ
  Basis Set: (AUG-CC-PVTZ AUX)
    Blend: AUG-CC-PVTZ-JKFIT

    Orbital Energies [Eh]
    ---------------------

    Doubly Occupied:

       1A    -20.656509     2A    -20.640554     3A    -20.554390
       4A    -11.394019     5A    -11.290259     6A    -11.254187
       7A    -11.227387     8A     -1.507421     9A     -1.390600
      10A     -1.267926    11A     -1.034935    12A     -1.004598
      13A     -0.854032    14A     -0.797471    15A     -0.709112
      16A     -0.694974    17A     -0.673677    18A     -0.646337
      19A     -0.611065    20A     -0.606563    21A     -0.588346
      22A     -0.545422    23A     -0.535404    24A     -0.522638
      25A     -0.513598    26A     -0.481165    27A     -0.467165
      28A     -0.452343

  @DF-RHF Final Energy:  -380.76031734009075

   => Energetics <=

    Nuclear Repulsion Energy =            316.0429286660449293
    One-Electron Energy =               -1147.7622974036530650
    Two-Electron Energy =                 450.9590513975174417
    Total Energy =                       -380.7603173400907508
  Basis Set: (AUG-CC-PVTZ AUX)
    Blend: AUG-CC-PVTZ-RI
    Molecular point group: c1

    Geometry (in Angstrom), charge = 0, multiplicity = 1:

       Center              X                  Y                   Z               Mass
    ------------   -----------------  -----------------  -----------------  -----------------
         O            0.832262089076    -0.330805068416    -0.641481044251    15.994914619570
         O           -0.476760910924    -0.833436068416    -0.227447044251    15.994914619570
         O           -1.041972910924     1.387406931584    -0.079510044251    15.994914619570
         C            1.634057089076    -0.253993068416     0.551643955749    12.000000000000
         C            2.996631089076     0.208282931584     0.077390955749    12.000000000000
         C           -1.348100910924     0.216542931584    -0.012283044251    12.000000000000
         C           -2.683202910924    -0.359587468416     0.378948255749    12.000000000000
         H            1.184069089076     0.460535931584     1.247251955749     1.007825032230
         H            1.677937089076    -1.241227068416     1.021638955749     1.007825032230
         H            3.668962089076     0.286264931584     0.935522955749     1.007825032230
         H            3.420430089076    -0.504791068416    -0.632670044251     1.007825032230
         H            2.926189089076     1.188206931584    -0.399112044251     1.007825032230
         H           -3.199062910924    -0.603649068416    -0.662662044251     1.007825032230
         H           -2.625805910924    -1.269272068416     0.876392955749     1.007825032230
         H           -3.294680910924     0.389597931584     0.810407955749     1.007825032230

  Basis Set: AUG-CC-PVTZ
    Blend: AUG-CC-PVTZ
  Basis Set: (AUG-CC-PVTZ AUX)
    Blend: AUG-CC-PVTZ-JKFIT
	 Reference Energy          =    -380.7603173400907508 [Eh]
	 Singles Energy            =      -0.0000000000000000 [Eh]
	 Same-Spin Energy          =      -0.3647928385335177 [Eh]
	 Opposite-Spin Energy      =      -1.1722029525941227 [Eh]
	 Correlation Energy        =      -1.5369957911276404 [Eh]
	 Total Energy              =    -382.2973131312184023 [Eh]

	 ================> DF-SCS-MP2 Energies <==================
	-----------------------------------------------------------
	 SCS Same-Spin Scale       =       0.3333333333333333 [-]
	 SCS Opposite-Spin Scale   =       1.2000000000000000 [-]
	 SCS Same-Spin Energy      =      -0.1215976128445059 [Eh]
	 SCS Opposite-Spin Energy  =      -1.4066435431129471 [Eh]
	 SCS Correlation Energy    =      -1.5282411559574531 [Eh]
	 SCS Total Energy          =    -382.2885584960482106 [Eh]
	-----------------------------------------------------------

  Dipole Moment: [D]
     X:    -0.2529      Y:    -1.5221      Z:     1.7070     Total:     2.3010

*** Psi4 exiting successfully. Buy a developer a beer!
