                               Psi4 1.3.2 release

  ==> Input File <==

--------------------------------------------------------------------------
#psi4
#
memory 32 gb

molecule  {
0 1
  O        0.8013680    -0.3194430    -0.6593080
  O       -0.5076550    -0.8220740    -0.2452740
  O       -1.0728670     1.3987690    -0.0973370
  C        1.6031630    -0.2426310     0.5338170
  C        2.9657370     0.2196450     0.0595640
  C       -1.3789950     0.2279050    -0.0301100
  C       -2.7361800    -0.3473490     0.2635940
  H        1.1531750     0.4718980     1.2294250
  H        1.6470430    -1.2298650     1.0038120
  H        3.6380680     0.2976270     0.9176960
  H        3.3895360    -0.4934290    -0.6504970
  H        2.8952950     1.1995690    -0.4169390
  H       -3.2299570    -0.5922870    -0.6804890
  H       -2.6567000    -1.2579100     0.8585660
  H       -3.3255750     0.4009600     0.7925810
units angstrom
no_reorient  #important for SAPT in psi4, default
symmetry c1  #important for SAPT in psi4, default
}

set PROPERTIES_ORIGIN ["COM"]
properties('MP2/aug-cc-pvtz', properties = ['dipole'])
--------------------------------------------------------------------------

    Molecular point group: c1
  Charge       = 0
  Multiplicity = 1
  Basis Set: AUG-CC-PVTZ
    Blend: AUG-CC-PVTZ
  Basis Set: (AUG-CC-PVTZ AUX)
    Blend: AUG-CC-PVTZ-JKFIT

    Orbital Energies [Eh]
    ---------------------

    Doubly Occupied:

       1A    -20.656710     2A    -20.640477     3A    -20.555242
       4A    -11.393179     5A    -11.290162     6A    -11.251954
       7A    -11.227310     8A     -1.507507     9A     -1.390974
      10A     -1.267975    11A     -1.034597    12A     -1.004297
      13A     -0.854001    14A     -0.796829    15A     -0.707372
      16A     -0.693517    17A     -0.675578    18A     -0.644114
      19A     -0.615217    20A     -0.598598    21A     -0.583083
      22A     -0.548069    23A     -0.535637    24A     -0.532971
      25A     -0.512560    26A     -0.481411    27A     -0.468041
      28A     -0.452685

  @DF-RHF Final Energy:  -380.76917599728762

   => Energetics <=

    Nuclear Repulsion Energy =            316.0389224474311050
    One-Electron Energy =               -1147.7760639048517533
    Two-Electron Energy =                 450.9679654601330299
    Total Energy =                       -380.7691759972876184
  Basis Set: (AUG-CC-PVTZ AUX)
    Blend: AUG-CC-PVTZ-RI
    Molecular point group: c1

    Geometry (in Angstrom), charge = 0, multiplicity = 1:

       Center              X                  Y                   Z               Mass
    ------------   -----------------  -----------------  -----------------  -----------------
         O            0.834808968117    -0.330906145480    -0.630233014712    15.994914619570
         O           -0.474214031883    -0.833537145480    -0.216199014712    15.994914619570
         O           -1.039426031883     1.387305854520    -0.068262014712    15.994914619570
         C            1.636603968117    -0.254094145480     0.562891985288    12.000000000000
         C            2.999177968117     0.208181854520     0.088638985288    12.000000000000
         C           -1.345554031883     0.216441854520    -0.001035014712    12.000000000000
         C           -2.702739031883    -0.358812145480     0.292668985288    12.000000000000
         H            1.186615968117     0.460434854520     1.258499985288     1.007825032230
         H            1.680483968117    -1.241328145480     1.032886985288     1.007825032230
         H            3.671508968117     0.286163854520     0.946770985288     1.007825032230
         H            3.422976968117    -0.504892145480    -0.621422014712     1.007825032230
         H            2.928735968117     1.188105854520    -0.387864014712     1.007825032230
         H           -3.196516031883    -0.603750145480    -0.651414014712     1.007825032230
         H           -2.623259031883    -1.269373145480     0.887640985288     1.007825032230
         H           -3.292134031883     0.389496854520     0.821655985288     1.007825032230

  Basis Set: AUG-CC-PVTZ
    Blend: AUG-CC-PVTZ
  Basis Set: (AUG-CC-PVTZ AUX)
    Blend: AUG-CC-PVTZ-JKFIT
	 Reference Energy          =    -380.7691759972876184 [Eh]
	 Singles Energy            =      -0.0000000000000000 [Eh]
	 Same-Spin Energy          =      -0.3647025967623157 [Eh]
	 Opposite-Spin Energy      =      -1.1720444479417227 [Eh]
	 Correlation Energy        =      -1.5367470447040383 [Eh]
	 Total Energy              =    -382.3059230419916616 [Eh]

	 ================> DF-SCS-MP2 Energies <==================
	-----------------------------------------------------------
	 SCS Same-Spin Scale       =       0.3333333333333333 [-]
	 SCS Opposite-Spin Scale   =       1.2000000000000000 [-]
	 SCS Same-Spin Energy      =      -0.1215675322541052 [Eh]
	 SCS Opposite-Spin Energy  =      -1.4064533375300672 [Eh]
	 SCS Correlation Energy    =      -1.5280208697841724 [Eh]
	 SCS Total Energy          =    -382.2971968670718184 [Eh]
	-----------------------------------------------------------

  Dipole Moment: [D]
     X:    -0.2375      Y:    -1.5076      Z:     1.6798     Total:     2.2696

*** Psi4 exiting successfully. Buy a developer a beer!
