                               Psi4 1.3.2 release

  ==> Input File <==

--------------------------------------------------------------------------
#psi4
#
memory 32 gb

molecule  {
0 1
  O        0.8013680    -0.3194430    -0.6593080
  O       -0.5076550    -0.8220740    -0.2452740
  O       -1.0728670     1.3987690    -0.0973370
  C        1.6031630    -0.2426310     0.5338170
  C        2.9657370     0.2196450     0.0595640
  C       -1.3789950     0.2279050    -0.0301100
  C       -2.6920140    -0.3491018     0.4586486
  H        1.1531750     0.4718980     1.2294250
  H        1.6470430    -1.2298650     1.0038120
  H        3.6380680     0.2976270     0.9176960
  H        3.3895360    -0.4934290    -0.6504970
  H        2.8952950     1.1995690    -0.4169390
  H       -3.2299570    -0.5922870    -0.6804890
  H       -2.6567000    -1.2579100     0.8585660
  H       -3.3255750     0.4009600     0.7925810
units angstrom
no_reorient  #important for SAPT in psi4, default
symmetry c1  #important for SAPT in psi4, default
}

set PROPERTIES_ORIGIN ["COM"]
properties('MP2/aug-cc-pvtz', properties = ['dipole'])
--------------------------------------------------------------------------

    Molecular point group: c1
  Charge       = 0
  Multiplicity = 1
  Basis Set: AUG-CC-PVTZ
    Blend: AUG-CC-PVTZ
  Basis Set: (AUG-CC-PVTZ AUX)
    Blend: AUG-CC-PVTZ-JKFIT

    Orbital Energies [Eh]
    ---------------------

    Doubly Occupied:

       1A    -20.656452     2A    -20.640780     3A    -20.553919
       4A    -11.396203     5A    -11.290454     6A    -11.259226
       7A    -11.227541     8A     -1.507482     9A     -1.390526
      10A     -1.267975    11A     -1.035412    12A     -1.005342
      13A     -0.854237    14A     -0.798735    15A     -0.712970
      16A     -0.697160    17A     -0.672551    18A     -0.651090
      19A     -0.624736    20A     -0.609360    21A     -0.581507
      22A     -0.544806    23A     -0.535582    24A     -0.514237
      25A     -0.504613    26A     -0.480770    27A     -0.465578
      28A     -0.450998

  @DF-RHF Final Energy:  -380.73663327440147

   => Energetics <=

    Nuclear Repulsion Energy =            315.9490827385732246
    One-Electron Energy =               -1147.5109500586256672
    Two-Electron Energy =                 450.8252340456509728
    Total Energy =                       -380.7366332744014699
  Basis Set: (AUG-CC-PVTZ AUX)
    Blend: AUG-CC-PVTZ-RI
    Molecular point group: c1

    Geometry (in Angstrom), charge = 0, multiplicity = 1:

       Center              X                  Y                   Z               Mass
    ------------   -----------------  -----------------  -----------------  -----------------
         O            0.829715210035    -0.330703991353    -0.652729073789    15.994914619570
         O           -0.479307789965    -0.833334991353    -0.238695073789    15.994914619570
         O           -1.044519789965     1.387508008647    -0.090758073789    15.994914619570
         C            1.631510210035    -0.253891991353     0.540395926211    12.000000000000
         C            2.994084210035     0.208384008647     0.066142926211    12.000000000000
         C           -1.350647789965     0.216644008647    -0.023531073789    12.000000000000
         C           -2.663666789965    -0.360362791353     0.465227526211    12.000000000000
         H            1.181522210035     0.460637008647     1.236003926211     1.007825032230
         H            1.675390210035    -1.241125991353     1.010390926211     1.007825032230
         H            3.666415210035     0.286366008647     0.924274926211     1.007825032230
         H            3.417883210035    -0.504689991353    -0.643918073789     1.007825032230
         H            2.923642210035     1.188308008647    -0.410360073789     1.007825032230
         H           -3.201609789965    -0.603547991353    -0.673910073789     1.007825032230
         H           -2.628352789965    -1.269170991353     0.865144926211     1.007825032230
         H           -3.297227789965     0.389699008647     0.799159926211     1.007825032230

  Basis Set: AUG-CC-PVTZ
    Blend: AUG-CC-PVTZ
  Basis Set: (AUG-CC-PVTZ AUX)
    Blend: AUG-CC-PVTZ-JKFIT
	 Reference Energy          =    -380.7366332744014699 [Eh]
	 Singles Energy            =      -0.0000000000000000 [Eh]
	 Same-Spin Energy          =      -0.3651175527695058 [Eh]
	 Opposite-Spin Energy      =      -1.1732208773000976 [Eh]
	 Correlation Energy        =      -1.5383384300696035 [Eh]
	 Total Energy              =    -382.2749717044710565 [Eh]

	 ================> DF-SCS-MP2 Energies <==================
	-----------------------------------------------------------
	 SCS Same-Spin Scale       =       0.3333333333333333 [-]
	 SCS Opposite-Spin Scale   =       1.2000000000000000 [-]
	 SCS Same-Spin Energy      =      -0.1217058509231686 [Eh]
	 SCS Opposite-Spin Energy  =      -1.4078650527601171 [Eh]
	 SCS Correlation Energy    =      -1.5295709036832856 [Eh]
	 SCS Total Energy          =    -382.2662041780847630 [Eh]
	-----------------------------------------------------------

  Dipole Moment: [D]
     X:    -0.2578      Y:    -1.5269      Z:     1.7352     Total:     2.3257

*** Psi4 exiting successfully. Buy a developer a beer!
