                               Psi4 1.3.2 release

  ==> Input File <==

--------------------------------------------------------------------------
#psi4
#
memory 32 gb

molecule  {
0 1
  O        0.8013680    -0.3194430    -0.6593080
  O       -0.5076550    -0.8220740    -0.2452740
  O       -1.0728670     1.3987690    -0.0973370
  C        1.6031630    -0.2426310     0.5338170
  C        2.9657370     0.2196450     0.0595640
  C       -1.3789950     0.2279050    -0.0301100
  C       -2.6809725    -0.3495400     0.5074122
  H        1.1531750     0.4718980     1.2294250
  H        1.6470430    -1.2298650     1.0038120
  H        3.6380680     0.2976270     0.9176960
  H        3.3895360    -0.4934290    -0.6504970
  H        2.8952950     1.1995690    -0.4169390
  H       -3.2299570    -0.5922870    -0.6804890
  H       -2.6567000    -1.2579100     0.8585660
  H       -3.3255750     0.4009600     0.7925810
units angstrom
no_reorient  #important for SAPT in psi4, default
symmetry c1  #important for SAPT in psi4, default
}

set PROPERTIES_ORIGIN ["COM"]
properties('MP2/aug-cc-pvtz', properties = ['dipole'])
--------------------------------------------------------------------------

    Molecular point group: c1
  Charge       = 0
  Multiplicity = 1
  Basis Set: AUG-CC-PVTZ
    Blend: AUG-CC-PVTZ
  Basis Set: (AUG-CC-PVTZ AUX)
    Blend: AUG-CC-PVTZ-JKFIT

    Orbital Energies [Eh]
    ---------------------

    Doubly Occupied:

       1A    -20.656461     2A    -20.640925     3A    -20.553801
       4A    -11.397696     5A    -11.290573     6A    -11.262737
       7A    -11.227635     8A     -1.507546     9A     -1.390572
      10A     -1.268018    11A     -1.035651    12A     -1.005799
      13A     -0.854378    14A     -0.799395    15A     -0.715564
      16A     -0.698346    17A     -0.672265    18A     -0.654515
      19A     -0.629903    20A     -0.610047    21A     -0.578653
      22A     -0.544842    23A     -0.535694    24A     -0.514446
      25A     -0.495997    26A     -0.480188    27A     -0.464209
      28A     -0.449533

  @DF-RHF Final Energy:  -380.72086321981647

   => Energetics <=

    Nuclear Repulsion Energy =            315.8606425870702310
    One-Electron Energy =               -1147.2922318735606950
    Two-Electron Energy =                 450.7107260666739421
    Total Energy =                       -380.7208632198164651
  Basis Set: (AUG-CC-PVTZ AUX)
    Blend: AUG-CC-PVTZ-RI
    Molecular point group: c1

    Geometry (in Angstrom), charge = 0, multiplicity = 1:

       Center              X                  Y                   Z               Mass
    ------------   -----------------  -----------------  -----------------  -----------------
         O            0.828441770514    -0.330653452821    -0.658353082791    15.994914619570
         O           -0.480581229486    -0.833284452821    -0.244319082791    15.994914619570
         O           -1.045793229486     1.387558547179    -0.096382082791    15.994914619570
         C            1.630236770514    -0.253841452821     0.534771917209    12.000000000000
         C            2.992810770514     0.208434547179     0.060518917209    12.000000000000
         C           -1.351921229486     0.216694547179    -0.029155082791    12.000000000000
         C           -2.653898729486    -0.360750452821     0.508367117209    12.000000000000
         H            1.180248770514     0.460687547179     1.230379917209     1.007825032230
         H            1.674116770514    -1.241075452821     1.004766917209     1.007825032230
         H            3.665141770514     0.286416547179     0.918650917209     1.007825032230
         H            3.416609770514    -0.504639452821    -0.649542082791     1.007825032230
         H            2.922368770514     1.188358547179    -0.415984082791     1.007825032230
         H           -3.202883229486    -0.603497452821    -0.679534082791     1.007825032230
         H           -2.629626229486    -1.269120452821     0.859520917209     1.007825032230
         H           -3.298501229486     0.389749547179     0.793535917209     1.007825032230

  Basis Set: AUG-CC-PVTZ
    Blend: AUG-CC-PVTZ
  Basis Set: (AUG-CC-PVTZ AUX)
    Blend: AUG-CC-PVTZ-JKFIT
	 Reference Energy          =    -380.7208632198164651 [Eh]
	 Singles Energy            =      -0.0000000000000000 [Eh]
	 Same-Spin Energy          =      -0.3653678901080010 [Eh]
	 Opposite-Spin Energy      =      -1.1740603831674690 [Eh]
	 Correlation Energy        =      -1.5394282732754698 [Eh]
	 Total Energy              =    -382.2602914930919269 [Eh]

	 ================> DF-SCS-MP2 Energies <==================
	-----------------------------------------------------------
	 SCS Same-Spin Scale       =       0.3333333333333333 [-]
	 SCS Opposite-Spin Scale   =       1.2000000000000000 [-]
	 SCS Same-Spin Energy      =      -0.1217892967026670 [Eh]
	 SCS Opposite-Spin Energy  =      -1.4088724598009628 [Eh]
	 SCS Correlation Energy    =      -1.5306617565036298 [Eh]
	 SCS Total Energy          =    -382.2515249763200700 [Eh]
	-----------------------------------------------------------

  Dipole Moment: [D]
     X:    -0.2590      Y:    -1.5268      Z:     1.7470     Total:     2.3346

*** Psi4 exiting successfully. Buy a developer a beer!
