                               Psi4 1.3.2 release

  ==> Input File <==

--------------------------------------------------------------------------
#psi4
#
memory 32 gb

molecule  {
0 1
  O       -1.4344650     1.0675660     0.2191520
  O        1.4425540    -1.0727980    -0.0074420
  O        1.2409190     1.1848430    -0.0695910
  C       -0.7088138    -0.1436332     0.4604015
  C       -1.3608000    -1.1844980    -0.5490290
  C        0.7386720     0.0808740     0.0596700
  H       -0.7692630    -0.5063940     1.4052130
  H       -1.2645370    -0.8668950    -1.5888250
  H       -2.4222350    -1.2600450    -0.3075440
  H       -0.8906180    -2.1601930    -0.4204410
  H       -0.7794970     1.7838810     0.3439450
  H        2.3720270    -0.8088230    -0.1742930
units angstrom
no_reorient  #important for SAPT in psi4, default
symmetry c1  #important for SAPT in psi4, default
}

set PROPERTIES_ORIGIN ["COM"]
properties('MP2/aug-cc-pvtz', properties = ['dipole'])
--------------------------------------------------------------------------

    Molecular point group: c1
  Charge       = 0
  Multiplicity = 1
  Basis Set: AUG-CC-PVTZ
    Blend: AUG-CC-PVTZ
  Basis Set: (AUG-CC-PVTZ AUX)
    Blend: AUG-CC-PVTZ-JKFIT

    Orbital Energies [Eh]
    ---------------------

    Doubly Occupied:

       1A    -20.634116     2A    -20.570432     3A    -20.566750
       4A    -11.404192     5A    -11.308332     6A    -11.234043
       7A     -1.480049     8A     -1.384100     9A     -1.357746
      10A     -1.044513    11A     -0.916021    12A     -0.820517
      13A     -0.734921    14A     -0.724300    15A     -0.696094
      16A     -0.638077    17A     -0.622816    18A     -0.575451
      19A     -0.558011    20A     -0.546646    21A     -0.528382
      22A     -0.499023    23A     -0.466284    24A     -0.464015

  @DF-RHF Final Energy:  -341.82603673506230

   => Energetics <=

    Nuclear Repulsion Energy =            248.9289848988495919
    One-Electron Energy =                -961.9603785753325838
    Two-Electron Energy =                 371.2053569414207459
    Total Energy =                       -341.8260367350623028
  Basis Set: (AUG-CC-PVTZ AUX)
    Blend: AUG-CC-PVTZ-RI
    Molecular point group: c1

    Geometry (in Angstrom), charge = 0, multiplicity = 1:

       Center              X                  Y                   Z               Mass
    ------------   -----------------  -----------------  -----------------  -----------------
         O           -1.436941634346     1.066984624887     0.206068379396    15.994914619570
         O            1.440077365654    -1.073379375113    -0.020525620604    15.994914619570
         O            1.238442365654     1.184261624887    -0.082674620604    15.994914619570
         C           -0.711290434346    -0.144214575113     0.447317879396    12.000000000000
         C           -1.363276634346    -1.185079375113    -0.562112620604    12.000000000000
         C            0.736195365654     0.080292624887     0.046586379396    12.000000000000
         H           -0.771739634346    -0.506975375113     1.392129379396     1.007825032230
         H           -1.267013634346    -0.867476375113    -1.601908620604     1.007825032230
         H           -2.424711634346    -1.260626375113    -0.320627620604     1.007825032230
         H           -0.893094634346    -2.160774375113    -0.433524620604     1.007825032230
         H           -0.781973634346     1.783299624887     0.330861379396     1.007825032230
         H            2.369550365654    -0.809404375113    -0.187376620604     1.007825032230

  Basis Set: AUG-CC-PVTZ
    Blend: AUG-CC-PVTZ
  Basis Set: (AUG-CC-PVTZ AUX)
    Blend: AUG-CC-PVTZ-JKFIT
	 Reference Energy          =    -341.8260367350623028 [Eh]
	 Singles Energy            =      -0.0000000000000000 [Eh]
	 Same-Spin Energy          =      -0.3269600922578101 [Eh]
	 Opposite-Spin Energy      =      -1.0124438626052654 [Eh]
	 Correlation Energy        =      -1.3394039548630756 [Eh]
	 Total Energy              =    -343.1654406899253900 [Eh]

	 ================> DF-SCS-MP2 Energies <==================
	-----------------------------------------------------------
	 SCS Same-Spin Scale       =       0.3333333333333333 [-]
	 SCS Opposite-Spin Scale   =       1.2000000000000000 [-]
	 SCS Same-Spin Energy      =      -0.1089866974192700 [Eh]
	 SCS Opposite-Spin Energy  =      -1.2149326351263185 [Eh]
	 SCS Correlation Energy    =      -1.3239193325455887 [Eh]
	 SCS Total Energy          =    -343.1499560676078886 [Eh]
	-----------------------------------------------------------

  Dipole Moment: [D]
     X:     1.2687      Y:    -1.8394      Z:     0.4446     Total:     2.2783

*** Psi4 exiting successfully. Buy a developer a beer!
