                               Psi4 1.3.2 release

  ==> Input File <==

--------------------------------------------------------------------------
#psi4
#
memory 32 gb

molecule  {
0 1
  O       -1.4344650     1.0675660     0.2191520
  O        1.4425540    -1.0727980    -0.0074420
  O        1.2409190     1.1848430    -0.0695910
  C       -0.6995228    -0.1414523     0.5094822
  C       -1.3608000    -1.1844980    -0.5490290
  C        0.7386720     0.0808740     0.0596700
  H       -0.7692630    -0.5063940     1.4052130
  H       -1.2645370    -0.8668950    -1.5888250
  H       -2.4222350    -1.2600450    -0.3075440
  H       -0.8906180    -2.1601930    -0.4204410
  H       -0.7794970     1.7838810     0.3439450
  H        2.3720270    -0.8088230    -0.1742930
units angstrom
no_reorient  #important for SAPT in psi4, default
symmetry c1  #important for SAPT in psi4, default
}

set PROPERTIES_ORIGIN ["COM"]
properties('MP2/aug-cc-pvtz', properties = ['dipole'])
--------------------------------------------------------------------------

    Molecular point group: c1
  Charge       = 0
  Multiplicity = 1
  Basis Set: AUG-CC-PVTZ
    Blend: AUG-CC-PVTZ
  Basis Set: (AUG-CC-PVTZ AUX)
    Blend: AUG-CC-PVTZ-JKFIT

    Orbital Energies [Eh]
    ---------------------

    Doubly Occupied:

       1A    -20.634071     2A    -20.570350     3A    -20.566946
       4A    -11.405099     5A    -11.307487     6A    -11.235623
       7A     -1.479892     8A     -1.382954     9A     -1.354914
      10A     -1.041566    11A     -0.914773    12A     -0.826499
      13A     -0.734035    14A     -0.725456    15A     -0.697242
      16A     -0.638105    17A     -0.623204    18A     -0.571259
      19A     -0.556795    20A     -0.549084    21A     -0.525936
      22A     -0.498223    23A     -0.466887    24A     -0.459878

  @DF-RHF Final Energy:  -341.81138337370032

   => Energetics <=

    Nuclear Repulsion Energy =            248.5298878388952630
    One-Electron Energy =                -961.1499863887509036
    Two-Electron Energy =                 370.8087151761552605
    Total Energy =                       -341.8113833737003233
  Basis Set: (AUG-CC-PVTZ AUX)
    Blend: AUG-CC-PVTZ-RI
    Molecular point group: c1

    Geometry (in Angstrom), charge = 0, multiplicity = 1:

       Center              X                  Y                   Z               Mass
    ------------   -----------------  -----------------  -----------------  -----------------
         O           -1.438179998248     1.066693940587     0.199526589794    15.994914619570
         O            1.438839001752    -1.073670059413    -0.027067410206    15.994914619570
         O            1.237204001752     1.183970940587    -0.089216410206    15.994914619570
         C           -0.703237798248    -0.142324359413     0.489856789794    12.000000000000
         C           -1.364514998248    -1.185370059413    -0.568654410206    12.000000000000
         C            0.734957001752     0.080001940587     0.040044589794    12.000000000000
         H           -0.772977998248    -0.507266059413     1.385587589794     1.007825032230
         H           -1.268251998248    -0.867767059413    -1.608450410206     1.007825032230
         H           -2.425949998248    -1.260917059413    -0.327169410206     1.007825032230
         H           -0.894332998248    -2.161065059413    -0.440066410206     1.007825032230
         H           -0.783211998248     1.783008940587     0.324319589794     1.007825032230
         H            2.368312001752    -0.809695059413    -0.193918410206     1.007825032230

  Basis Set: AUG-CC-PVTZ
    Blend: AUG-CC-PVTZ
  Basis Set: (AUG-CC-PVTZ AUX)
    Blend: AUG-CC-PVTZ-JKFIT
	 Reference Energy          =    -341.8113833737003233 [Eh]
	 Singles Energy            =      -0.0000000000000000 [Eh]
	 Same-Spin Energy          =      -0.3270535262175893 [Eh]
	 Opposite-Spin Energy      =      -1.0133116049261084 [Eh]
	 Correlation Energy        =      -1.3403651311436977 [Eh]
	 Total Energy              =    -343.1517485048440221 [Eh]

	 ================> DF-SCS-MP2 Energies <==================
	-----------------------------------------------------------
	 SCS Same-Spin Scale       =       0.3333333333333333 [-]
	 SCS Opposite-Spin Scale   =       1.2000000000000000 [-]
	 SCS Same-Spin Energy      =      -0.1090178420725298 [Eh]
	 SCS Opposite-Spin Energy  =      -1.2159739259113300 [Eh]
	 SCS Correlation Energy    =      -1.3249917679838599 [Eh]
	 SCS Total Energy          =    -343.1363751416841978 [Eh]
	-----------------------------------------------------------

  Dipole Moment: [D]
     X:     1.2837      Y:    -1.8371      Z:     0.4983     Total:     2.2959

*** Psi4 exiting successfully. Buy a developer a beer!
