                               Psi4 1.3.2 release

  ==> Input File <==

--------------------------------------------------------------------------
#psi4
#
memory 32 gb

molecule  {
0 1
  O       -1.4344650     1.0675660     0.2191520
  O        1.4425540    -1.0727980    -0.0074420
  O        1.2409190     1.1848430    -0.0695910
  C       -0.7273960    -0.1479950     0.3622400
  C       -1.3608000    -1.1844980    -0.5490290
  C        0.7386720     0.0808740     0.0596700
  H       -0.7692630    -0.5063940     1.4052130
  H       -1.2645370    -0.8668950    -1.5888250
  H       -2.4222350    -1.2600450    -0.3075440
  H       -0.8906180    -2.1601930    -0.4204410
  H       -0.7794970     1.7838810     0.3439450
  H        2.3720270    -0.8088230    -0.1742930
units angstrom
no_reorient  #important for SAPT in psi4, default
symmetry c1  #important for SAPT in psi4, default
}

set PROPERTIES_ORIGIN ["COM"]
properties('MP2/aug-cc-pvtz', properties = ['dipole'])
--------------------------------------------------------------------------

    Molecular point group: c1
  Charge       = 0
  Multiplicity = 1
  Basis Set: AUG-CC-PVTZ
    Blend: AUG-CC-PVTZ
  Basis Set: (AUG-CC-PVTZ AUX)
    Blend: AUG-CC-PVTZ-JKFIT

    Orbital Energies [Eh]
    ---------------------

    Doubly Occupied:

       1A    -20.634064     2A    -20.570476     3A    -20.567031
       4A    -11.403498     5A    -11.311492     6A    -11.231475
       7A     -1.480225     8A     -1.386655     9A     -1.362176
      10A     -1.053334    11A     -0.918623    12A     -0.811942
      13A     -0.738631    14A     -0.722172    15A     -0.691128
      16A     -0.639242    17A     -0.621555    18A     -0.585109
      19A     -0.561430    20A     -0.542341    21A     -0.534130
      22A     -0.500182    23A     -0.474311    24A     -0.454612

  @DF-RHF Final Energy:  -341.83689939845715

   => Energetics <=

    Nuclear Repulsion Energy =            249.6522888814805299
    One-Electron Energy =                -963.3867085601362987
    Two-Electron Energy =                 371.8975202801985915
    Total Energy =                       -341.8368993984571489
  Basis Set: (AUG-CC-PVTZ AUX)
    Blend: AUG-CC-PVTZ-RI
    Molecular point group: c1

    Geometry (in Angstrom), charge = 0, multiplicity = 1:

       Center              X                  Y                   Z               Mass
    ------------   -----------------  -----------------  -----------------  -----------------
         O           -1.434464879883     1.067565993488     0.219151971929    15.994914619570
         O            1.442554120117    -1.072798006512    -0.007442028071    15.994914619570
         O            1.240919120117     1.184842993488    -0.069591028071    15.994914619570
         C           -0.727395879883    -0.147995006512     0.362239971929    12.000000000000
         C           -1.360799879883    -1.184498006512    -0.549029028071    12.000000000000
         C            0.738672120117     0.080873993488     0.059669971929    12.000000000000
         H           -0.769262879883    -0.506394006512     1.405212971929     1.007825032230
         H           -1.264536879883    -0.866895006512    -1.588825028071     1.007825032230
         H           -2.422234879883    -1.260045006512    -0.307544028071     1.007825032230
         H           -0.890617879883    -2.160193006512    -0.420441028071     1.007825032230
         H           -0.779496879883     1.783880993488     0.343944971929     1.007825032230
         H            2.372027120117    -0.808823006512    -0.174293028071     1.007825032230

  Basis Set: AUG-CC-PVTZ
    Blend: AUG-CC-PVTZ
  Basis Set: (AUG-CC-PVTZ AUX)
    Blend: AUG-CC-PVTZ-JKFIT
	 Reference Energy          =    -341.8368993984571489 [Eh]
	 Singles Energy            =      -0.0000000000000000 [Eh]
	 Same-Spin Energy          =      -0.3271375135801680 [Eh]
	 Opposite-Spin Energy      =      -1.0117529209169931 [Eh]
	 Correlation Energy        =      -1.3388904344971611 [Eh]
	 Total Energy              =    -343.1757898329543082 [Eh]

	 ================> DF-SCS-MP2 Energies <==================
	-----------------------------------------------------------
	 SCS Same-Spin Scale       =       0.3333333333333333 [-]
	 SCS Opposite-Spin Scale   =       1.2000000000000000 [-]
	 SCS Same-Spin Energy      =      -0.1090458378600560 [Eh]
	 SCS Opposite-Spin Energy  =      -1.2141035051003917 [Eh]
	 SCS Correlation Energy    =      -1.3231493429604477 [Eh]
	 SCS Total Energy          =    -343.1600487414175973 [Eh]
	-----------------------------------------------------------

  Dipole Moment: [D]
     X:     1.2239      Y:    -1.8411      Z:     0.3085     Total:     2.2322

*** Psi4 exiting successfully. Buy a developer a beer!
