                               Psi4 1.3.2 release

  ==> Input File <==

--------------------------------------------------------------------------
#psi4
#
memory 32 gb

molecule  {
0 1
  O       -1.4344650     1.0675660     0.2191520
  O        1.4425540    -1.0727980    -0.0074420
  O        1.2409190     1.1848430    -0.0695910
  C       -0.6716495    -0.1349095     0.6567245
  C       -1.3608000    -1.1844980    -0.5490290
  C        0.7386720     0.0808740     0.0596700
  H       -0.7692630    -0.5063940     1.4052130
  H       -1.2645370    -0.8668950    -1.5888250
  H       -2.4222350    -1.2600450    -0.3075440
  H       -0.8906180    -2.1601930    -0.4204410
  H       -0.7794970     1.7838810     0.3439450
  H        2.3720270    -0.8088230    -0.1742930
units angstrom
no_reorient  #important for SAPT in psi4, default
symmetry c1  #important for SAPT in psi4, default
}

set PROPERTIES_ORIGIN ["COM"]
properties('MP2/aug-cc-pvtz', properties = ['dipole'])
--------------------------------------------------------------------------

    Molecular point group: c1
  Charge       = 0
  Multiplicity = 1
  Basis Set: AUG-CC-PVTZ
    Blend: AUG-CC-PVTZ
  Basis Set: (AUG-CC-PVTZ AUX)
    Blend: AUG-CC-PVTZ-JKFIT

    Orbital Energies [Eh]
    ---------------------

    Doubly Occupied:

       1A    -20.633737     2A    -20.569988     3A    -20.568646
       4A    -11.410017     5A    -11.307962     6A    -11.241473
       7A     -1.479228     8A     -1.380263     9A     -1.344271
      10A     -1.039372    11A     -0.912779    12A     -0.849924
      13A     -0.738438    14A     -0.724529    15A     -0.693303
      16A     -0.640306    17A     -0.622406    18A     -0.560735
      19A     -0.557504    20A     -0.551871    21A     -0.520743
      22A     -0.495456    23A     -0.469885    24A     -0.435170

  @DF-RHF Final Energy:  -341.72099149693918

   => Energetics <=

    Nuclear Repulsion Energy =            247.2207393588807918
    One-Electron Energy =                -958.3874525095751551
    Two-Electron Energy =                 369.4457216537551858
    Total Energy =                       -341.7209914969391775
  Basis Set: (AUG-CC-PVTZ AUX)
    Blend: AUG-CC-PVTZ-RI
    Molecular point group: c1

    Geometry (in Angstrom), charge = 0, multiplicity = 1:

       Center              X                  Y                   Z               Mass
    ------------   -----------------  -----------------  -----------------  -----------------
         O           -1.441895129942     1.065821874357     0.179901194331    15.994914619570
         O            1.435123870058    -1.074542125643    -0.046692805669    15.994914619570
         O            1.233488870058     1.183098874357    -0.108841805669    15.994914619570
         C           -0.679079629942    -0.136653625643     0.617473694331    12.000000000000
         C           -1.368230129942    -1.186242125643    -0.588279805669    12.000000000000
         C            0.731241870058     0.079129874357     0.020419194331    12.000000000000
         H           -0.776693129942    -0.508138125643     1.365962194331     1.007825032230
         H           -1.271967129942    -0.868639125643    -1.628075805669     1.007825032230
         H           -2.429665129942    -1.261789125643    -0.346794805669     1.007825032230
         H           -0.898048129942    -2.161937125643    -0.459691805669     1.007825032230
         H           -0.786927129942     1.782136874357     0.304694194331     1.007825032230
         H            2.364596870058    -0.810567125643    -0.213543805669     1.007825032230

  Basis Set: AUG-CC-PVTZ
    Blend: AUG-CC-PVTZ
  Basis Set: (AUG-CC-PVTZ AUX)
    Blend: AUG-CC-PVTZ-JKFIT
	 Reference Energy          =    -341.7209914969391775 [Eh]
	 Singles Energy            =      -0.0000000000000000 [Eh]
	 Same-Spin Energy          =      -0.3280682962840952 [Eh]
	 Opposite-Spin Energy      =      -1.0181556640646643 [Eh]
	 Correlation Energy        =      -1.3462239603487594 [Eh]
	 Total Energy              =    -343.0672154572879435 [Eh]

	 ================> DF-SCS-MP2 Energies <==================
	-----------------------------------------------------------
	 SCS Same-Spin Scale       =       0.3333333333333333 [-]
	 SCS Opposite-Spin Scale   =       1.2000000000000000 [-]
	 SCS Same-Spin Energy      =      -0.1093560987613651 [Eh]
	 SCS Opposite-Spin Energy  =      -1.2217867968775971 [Eh]
	 SCS Correlation Energy    =      -1.3311428956389622 [Eh]
	 SCS Total Energy          =    -343.0521343925781252 [Eh]
	-----------------------------------------------------------

  Dipole Moment: [D]
     X:     1.3037      Y:    -1.8252      Z:     0.5991     Total:     2.3216

*** Psi4 exiting successfully. Buy a developer a beer!
