                               Psi4 1.3.2 release

  ==> Input File <==

--------------------------------------------------------------------------
#psi4
#
memory 32 gb

molecule  {
0 1
  O       -1.4344650     1.0675660     0.2191520
  O        1.4425540    -1.0727980    -0.0074420
  O        1.2409190     1.1848430    -0.0695910
  C       -0.6902317    -0.1392713     0.5585630
  C       -1.3608000    -1.1844980    -0.5490290
  C        0.7386720     0.0808740     0.0596700
  H       -0.7692630    -0.5063940     1.4052130
  H       -1.2645370    -0.8668950    -1.5888250
  H       -2.4222350    -1.2600450    -0.3075440
  H       -0.8906180    -2.1601930    -0.4204410
  H       -0.7794970     1.7838810     0.3439450
  H        2.3720270    -0.8088230    -0.1742930
units angstrom
no_reorient  #important for SAPT in psi4, default
symmetry c1  #important for SAPT in psi4, default
}

set PROPERTIES_ORIGIN ["COM"]
properties('MP2/aug-cc-pvtz', properties = ['dipole'])
--------------------------------------------------------------------------

    Molecular point group: c1
  Charge       = 0
  Multiplicity = 1
  Basis Set: AUG-CC-PVTZ
    Blend: AUG-CC-PVTZ
  Basis Set: (AUG-CC-PVTZ AUX)
    Blend: AUG-CC-PVTZ-JKFIT

    Orbital Energies [Eh]
    ---------------------

    Doubly Occupied:

       1A    -20.633987     2A    -20.570242     3A    -20.567342
       4A    -11.406376     5A    -11.307124     6A    -11.237387
       7A     -1.479697     8A     -1.381930     9A     -1.351695
      10A     -1.039656    11A     -0.913718    12A     -0.833609
      13A     -0.734600    14A     -0.725822    15A     -0.697107
      16A     -0.638545    17A     -0.623257    18A     -0.567384
      19A     -0.556004    20A     -0.551242    21A     -0.523883
      22A     -0.497337    23A     -0.468569    24A     -0.452460

  @DF-RHF Final Energy:  -341.78961489433010

   => Energetics <=

    Nuclear Repulsion Energy =            248.1099127645388478
    One-Electron Energy =                -960.2811086811274208
    Two-Electron Energy =                 370.3815810222584446
    Total Energy =                       -341.7896148943301000
  Basis Set: (AUG-CC-PVTZ AUX)
    Blend: AUG-CC-PVTZ-RI
    Molecular point group: c1

    Geometry (in Angstrom), charge = 0, multiplicity = 1:

       Center              X                  Y                   Z               Mass
    ------------   -----------------  -----------------  -----------------  -----------------
         O           -1.439418375479     1.066403242957     0.192984786864    15.994914619570
         O            1.437600624521    -1.073960757043    -0.033609213136    15.994914619570
         O            1.235965624521     1.183680242957    -0.095758213136    15.994914619570
         C           -0.695185075479    -0.140434057043     0.532395786864    12.000000000000
         C           -1.365753375479    -1.185660757043    -0.575196213136    12.000000000000
         C            0.733718624521     0.079711242957     0.033502786864    12.000000000000
         H           -0.774216375479    -0.507556757043     1.379045786864     1.007825032230
         H           -1.269490375479    -0.868057757043    -1.614992213136     1.007825032230
         H           -2.427188375479    -1.261207757043    -0.333711213136     1.007825032230
         H           -0.895571375479    -2.161355757043    -0.446608213136     1.007825032230
         H           -0.784450375479     1.782718242957     0.317777786864     1.007825032230
         H            2.367073624521    -0.809985757043    -0.200460213136     1.007825032230

  Basis Set: AUG-CC-PVTZ
    Blend: AUG-CC-PVTZ
  Basis Set: (AUG-CC-PVTZ AUX)
    Blend: AUG-CC-PVTZ-JKFIT
	 Reference Energy          =    -341.7896148943301000 [Eh]
	 Singles Energy            =      -0.0000000000000000 [Eh]
	 Same-Spin Energy          =      -0.3272689908354169 [Eh]
	 Opposite-Spin Energy      =      -1.0145479215904931 [Eh]
	 Correlation Energy        =      -1.3418169124259101 [Eh]
	 Total Energy              =    -343.1314318067559839 [Eh]

	 ================> DF-SCS-MP2 Energies <==================
	-----------------------------------------------------------
	 SCS Same-Spin Scale       =       0.3333333333333333 [-]
	 SCS Opposite-Spin Scale   =       1.2000000000000000 [-]
	 SCS Same-Spin Energy      =      -0.1090896636118056 [Eh]
	 SCS Opposite-Spin Energy  =      -1.2174575059085917 [Eh]
	 SCS Correlation Energy    =      -1.3265471695203974 [Eh]
	 SCS Total Energy          =    -343.1161620638504814 [Eh]
	-----------------------------------------------------------

  Dipole Moment: [D]
     X:     1.2943      Y:    -1.8338      Z:     0.5423     Total:     2.3091

*** Psi4 exiting successfully. Buy a developer a beer!
