                               Psi4 1.3.2 release

  ==> Input File <==

--------------------------------------------------------------------------
#psi4
#
memory 32 gb

molecule  {
0 1
  O       -1.4344650     1.0675660     0.2191520
  O        1.4425540    -1.0727980    -0.0074420
  O        1.2409190     1.1848430    -0.0695910
  C       -0.7181049    -0.1458141     0.4113207
  C       -1.3608000    -1.1844980    -0.5490290
  C        0.7386720     0.0808740     0.0596700
  H       -0.7692630    -0.5063940     1.4052130
  H       -1.2645370    -0.8668950    -1.5888250
  H       -2.4222350    -1.2600450    -0.3075440
  H       -0.8906180    -2.1601930    -0.4204410
  H       -0.7794970     1.7838810     0.3439450
  H        2.3720270    -0.8088230    -0.1742930
units angstrom
no_reorient  #important for SAPT in psi4, default
symmetry c1  #important for SAPT in psi4, default
}

set PROPERTIES_ORIGIN ["COM"]
properties('MP2/aug-cc-pvtz', properties = ['dipole'])
--------------------------------------------------------------------------

    Molecular point group: c1
  Charge       = 0
  Multiplicity = 1
  Basis Set: AUG-CC-PVTZ
    Blend: AUG-CC-PVTZ
  Basis Set: (AUG-CC-PVTZ AUX)
    Blend: AUG-CC-PVTZ-JKFIT

    Orbital Energies [Eh]
    ---------------------

    Doubly Occupied:

       1A    -20.634116     2A    -20.570477     3A    -20.566773
       4A    -11.403659     5A    -11.309660     6A    -11.232655
       7A     -1.480162     8A     -1.385347     9A     -1.360166
      10A     -1.048442    11A     -0.917340    12A     -0.815700
      13A     -0.736621    14A     -0.723090    15A     -0.693901
      16A     -0.638468    17A     -0.622206    18A     -0.580037
      19A     -0.559548    20A     -0.544309    21A     -0.531181
      22A     -0.499686    23A     -0.470977    24A     -0.460149

  @DF-RHF Final Energy:  -341.83433325039806

   => Energetics <=

    Nuclear Repulsion Energy =            249.3040790213849505
    One-Electron Energy =                -962.7074806729106058
    Two-Electron Energy =                 371.5690684011275948
    Total Energy =                       -341.8343332503980605
  Basis Set: (AUG-CC-PVTZ AUX)
    Blend: AUG-CC-PVTZ-RI
    Molecular point group: c1

    Geometry (in Angstrom), charge = 0, multiplicity = 1:

       Center              X                  Y                   Z               Mass
    ------------   -----------------  -----------------  -----------------  -----------------
         O           -1.435703257114     1.067275309187     0.212610182327    15.994914619570
         O            1.441315742886    -1.073088690813    -0.013983817673    15.994914619570
         O            1.239680742886     1.184552309187    -0.076132817673    15.994914619570
         C           -0.719343157114    -0.146104790813     0.404778882327    12.000000000000
         C           -1.362038257114    -1.184788690813    -0.555570817673    12.000000000000
         C            0.737433742886     0.080583309187     0.053128182327    12.000000000000
         H           -0.770501257114    -0.506684690813     1.398671182327     1.007825032230
         H           -1.265775257114    -0.867185690813    -1.595366817673     1.007825032230
         H           -2.423473257114    -1.260335690813    -0.314085817673     1.007825032230
         H           -0.891856257114    -2.160483690813    -0.426982817673     1.007825032230
         H           -0.780735257114     1.783590309187     0.337403182327     1.007825032230
         H            2.370788742886    -0.809113690813    -0.180834817673     1.007825032230

  Basis Set: AUG-CC-PVTZ
    Blend: AUG-CC-PVTZ
  Basis Set: (AUG-CC-PVTZ AUX)
    Blend: AUG-CC-PVTZ-JKFIT
	 Reference Energy          =    -341.8343332503980605 [Eh]
	 Singles Energy            =      -0.0000000000000000 [Eh]
	 Same-Spin Energy          =      -0.3269882808887593 [Eh]
	 Opposite-Spin Energy      =      -1.0119302224011575 [Eh]
	 Correlation Energy        =      -1.3389185032899169 [Eh]
	 Total Energy              =    -343.1732517536879641 [Eh]

	 ================> DF-SCS-MP2 Energies <==================
	-----------------------------------------------------------
	 SCS Same-Spin Scale       =       0.3333333333333333 [-]
	 SCS Opposite-Spin Scale   =       1.2000000000000000 [-]
	 SCS Same-Spin Energy      =      -0.1089960936295864 [Eh]
	 SCS Opposite-Spin Energy  =      -1.2143162668813889 [Eh]
	 SCS Correlation Energy    =      -1.3233123605109753 [Eh]
	 SCS Total Energy          =    -343.1576456109090145 [Eh]
	-----------------------------------------------------------

  Dipole Moment: [D]
     X:     1.2489      Y:    -1.8407      Z:     0.3813     Total:     2.2569

*** Psi4 exiting successfully. Buy a developer a beer!
