                               Psi4 1.3.2 release

  ==> Input File <==

--------------------------------------------------------------------------
#psi4
#
memory 32 gb

molecule  {
0 1
  O       -1.4344650     1.0675660     0.2191520
  O        1.4425540    -1.0727980    -0.0074420
  O        1.2409190     1.1848430    -0.0695910
  C       -0.6809406    -0.1370904     0.6076437
  C       -1.3608000    -1.1844980    -0.5490290
  C        0.7386720     0.0808740     0.0596700
  H       -0.7692630    -0.5063940     1.4052130
  H       -1.2645370    -0.8668950    -1.5888250
  H       -2.4222350    -1.2600450    -0.3075440
  H       -0.8906180    -2.1601930    -0.4204410
  H       -0.7794970     1.7838810     0.3439450
  H        2.3720270    -0.8088230    -0.1742930
units angstrom
no_reorient  #important for SAPT in psi4, default
symmetry c1  #important for SAPT in psi4, default
}

set PROPERTIES_ORIGIN ["COM"]
properties('MP2/aug-cc-pvtz', properties = ['dipole'])
--------------------------------------------------------------------------

    Molecular point group: c1
  Charge       = 0
  Multiplicity = 1
  Basis Set: AUG-CC-PVTZ
    Blend: AUG-CC-PVTZ
  Basis Set: (AUG-CC-PVTZ AUX)
    Blend: AUG-CC-PVTZ-JKFIT

    Orbital Energies [Eh]
    ---------------------

    Doubly Occupied:

       1A    -20.633872     2A    -20.570118     3A    -20.567917
       4A    -11.408019     5A    -11.307264     6A    -11.239335
       7A     -1.479473     8A     -1.381035     9A     -1.348129
      10A     -1.038881    11A     -0.912998    12A     -0.841589
      13A     -0.736374    14A     -0.725325    15A     -0.695729
      16A     -0.639317    17A     -0.622969    18A     -0.563814
      19A     -0.556184    20A     -0.552333    21A     -0.522175
      22A     -0.496407    23A     -0.469516    24A     -0.444118

  @DF-RHF Final Energy:  -341.75983157206724

   => Energetics <=

    Nuclear Repulsion Energy =            247.6723810654933402
    One-Electron Energy =                -959.3586477055979458
    Two-Electron Energy =                 369.9264350680373354
    Total Energy =                       -341.7598315720672417
  Basis Set: (AUG-CC-PVTZ AUX)
    Blend: AUG-CC-PVTZ-RI
    Molecular point group: c1

    Geometry (in Angstrom), charge = 0, multiplicity = 1:

       Center              X                  Y                   Z               Mass
    ------------   -----------------  -----------------  -----------------  -----------------
         O           -1.440656752711     1.066112558657     0.186442997262    15.994914619570
         O            1.436362247289    -1.074251441343    -0.040151002738    15.994914619570
         O            1.234727247289     1.183389558657    -0.102300002738    15.994914619570
         C           -0.687132352711    -0.138543841343     0.574934697262    12.000000000000
         C           -1.366991752711    -1.185951441343    -0.581738002738    12.000000000000
         C            0.732480247289     0.079420558657     0.026960997262    12.000000000000
         H           -0.775454752711    -0.507847441343     1.372503997262     1.007825032230
         H           -1.270728752711    -0.868348441343    -1.621534002738     1.007825032230
         H           -2.428426752711    -1.261498441343    -0.340253002738     1.007825032230
         H           -0.896809752711    -2.161646441343    -0.453150002738     1.007825032230
         H           -0.785688752711     1.782427558657     0.311235997262     1.007825032230
         H            2.365835247289    -0.810276441343    -0.207002002738     1.007825032230

  Basis Set: AUG-CC-PVTZ
    Blend: AUG-CC-PVTZ
  Basis Set: (AUG-CC-PVTZ AUX)
    Blend: AUG-CC-PVTZ-JKFIT
	 Reference Energy          =    -341.7598315720672417 [Eh]
	 Singles Energy            =      -0.0000000000000000 [Eh]
	 Same-Spin Energy          =      -0.3276068997179653 [Eh]
	 Opposite-Spin Energy      =      -1.0161617060935821 [Eh]
	 Correlation Energy        =      -1.3437686058115474 [Eh]
	 Total Energy              =    -343.1036001778787750 [Eh]

	 ================> DF-SCS-MP2 Energies <==================
	-----------------------------------------------------------
	 SCS Same-Spin Scale       =       0.3333333333333333 [-]
	 SCS Opposite-Spin Scale   =       1.2000000000000000 [-]
	 SCS Same-Spin Energy      =      -0.1092022999059884 [Eh]
	 SCS Opposite-Spin Energy  =      -1.2193940473122986 [Eh]
	 SCS Correlation Energy    =      -1.3285963472182871 [Eh]
	 SCS Total Energy          =    -343.0884279192855502 [Eh]
	-----------------------------------------------------------

  Dipole Moment: [D]
     X:     1.3009      Y:    -1.8297      Z:     0.5761     Total:     2.3177

*** Psi4 exiting successfully. Buy a developer a beer!
