                               Psi4 1.3.2 release

  ==> Input File <==

--------------------------------------------------------------------------
#psi4
#
memory 32 gb

molecule  {
0 1
 Cl        3.0582810    -0.0000320     0.2153210
 Cl        1.0892650     1.4501210    -1.3457080
 Cl        1.0892300    -1.4499710    -1.3458710
  S        0.2835450    -0.0000560     1.1319340
  O        0.5217130     1.2849120     1.7899600
  O        0.5217120    -1.2850930     1.7898260
  C       -1.3508290    -0.0000210     0.4539040
  C        1.4090800     0.0000190    -0.3971410
  C       -1.9834610    -1.2238950     0.2202880
  C       -1.9461427     1.2238815     0.1276042
  C       -3.2836100    -1.2122960    -0.2842060
  C       -3.2836000     1.2123300    -0.2841110
  C       -3.9288570     0.0000300    -0.5427800
  H       -1.4734280    -2.1539290     0.4522940
  H       -1.4734140     2.1538900     0.4524690
  H       -3.7956980    -2.1526110    -0.4704350
  H       -3.7956790     2.1526630    -0.4702660
  H       -4.9427330     0.0000490    -0.9349330
units angstrom
no_reorient  #important for SAPT in psi4, default
symmetry c1  #important for SAPT in psi4, default
}

set PROPERTIES_ORIGIN ["COM"]
properties('MP2/aug-cc-pvtz', properties = ['dipole'])
--------------------------------------------------------------------------

    Molecular point group: c1
  Charge       = 0
  Multiplicity = 1
  Basis Set: AUG-CC-PVTZ
    Blend: AUG-CC-PVTZ
  Basis Set: (AUG-CC-PVTZ AUX)
    Blend: AUG-CC-PVTZ-JKFIT

    Orbital Energies [Eh]
    ---------------------

    Doubly Occupied:

       1A   -104.880775     2A   -104.880575     3A   -104.876538
       4A    -92.211724     5A    -20.569071     6A    -20.568939
       7A    -11.466853     8A    -11.295680     9A    -11.283089
      10A    -11.282100    11A    -11.277821    12A    -11.268962
      13A    -11.268337    14A    -10.605078    15A    -10.604896
      16A    -10.600647    17A     -9.180076    18A     -8.071866
      19A     -8.071681    20A     -8.069641    21A     -8.069601
      22A     -8.069456    23A     -8.069415    24A     -8.067453
      25A     -8.065147    26A     -8.065117    27A     -6.864787
      28A     -6.864098    29A     -6.863786    30A     -1.463146
      31A     -1.354416    32A     -1.260008    33A     -1.192781
      34A     -1.130704    35A     -1.128550    36A     -1.072768
      37A     -1.052431    38A     -0.958083    39A     -0.870726
      40A     -0.865099    41A     -0.802309    42A     -0.744551
      43A     -0.713621    44A     -0.686015    45A     -0.676723
      46A     -0.654197    47A     -0.650286    48A     -0.639338
      49A     -0.631139    50A     -0.624248    51A     -0.558181
      52A     -0.546912    53A     -0.542559    54A     -0.532684
      55A     -0.522307    56A     -0.517528    57A     -0.516835
      58A     -0.498245    59A     -0.495081    60A     -0.475832
      61A     -0.470027    62A     -0.460561    63A     -0.437228
      64A     -0.381470    65A     -0.369142

  @DF-RHF Final Energy: -2193.86460081195128

   => Energetics <=

    Nuclear Repulsion Energy =           1337.8578040416753083
    One-Electron Energy =               -5687.7869212551286182
    Two-Electron Energy =                2156.0645164015022601
    Total Energy =                      -2193.8646008119512771
  Basis Set: (AUG-CC-PVTZ AUX)
    Blend: AUG-CC-PVTZ-RI
    Molecular point group: c1

    Geometry (in Angstrom), charge = 0, multiplicity = 1:

       Center              X                  Y                   Z               Mass
    ------------   -----------------  -----------------  -----------------  -----------------
         CL           2.977368544696    -0.000032330716     0.225398350289    34.968852682000
         CL           1.008352544696     1.450120669284    -1.335630649711    34.968852682000
         CL           1.008317544696    -1.449971330716    -1.335793649711    34.968852682000
         S            0.202632544696    -0.000056330716     1.142011350289    31.972071174400
         O            0.440800544696     1.284911669284     1.800037350289    15.994914619570
         O            0.440799544696    -1.285093330716     1.799903350289    15.994914619570
         C           -1.431741455304    -0.000021330716     0.463981350289    12.000000000000
         C            1.328167544696     0.000018669284    -0.387063649711    12.000000000000
         C           -2.064373455304    -1.223895330716     0.230365350289    12.000000000000
         C           -2.027055155304     1.223881169284     0.137681550289    12.000000000000
         C           -3.364522455304    -1.212296330716    -0.274128649711    12.000000000000
         C           -3.364512455304     1.212329669284    -0.274033649711    12.000000000000
         C           -4.009769455304     0.000029669284    -0.532702649711    12.000000000000
         H           -1.554340455304    -2.153929330716     0.462371350289     1.007825032230
         H           -1.554326455304     2.153889669284     0.462546350289     1.007825032230
         H           -3.876610455304    -2.152611330716    -0.460357649711     1.007825032230
         H           -3.876591455304     2.152662669284    -0.460188649711     1.007825032230
         H           -5.023645455304     0.000048669284    -0.924855649711     1.007825032230

  Basis Set: AUG-CC-PVTZ
    Blend: AUG-CC-PVTZ
  Basis Set: (AUG-CC-PVTZ AUX)
    Blend: AUG-CC-PVTZ-JKFIT
	 Reference Energy          =   -2193.8646008119512771 [Eh]
	 Singles Energy            =      -0.0000000000000000 [Eh]
	 Same-Spin Energy          =      -0.7061922021124672 [Eh]
	 Opposite-Spin Energy      =      -2.0138286571668198 [Eh]
	 Correlation Energy        =      -2.7200208592792872 [Eh]
	 Total Energy              =   -2196.5846216712307069 [Eh]

	 ================> DF-SCS-MP2 Energies <==================
	-----------------------------------------------------------
	 SCS Same-Spin Scale       =       0.3333333333333333 [-]
	 SCS Opposite-Spin Scale   =       1.2000000000000000 [-]
	 SCS Same-Spin Energy      =      -0.2353974007041557 [Eh]
	 SCS Opposite-Spin Energy  =      -2.4165943886001835 [Eh]
	 SCS Correlation Energy    =      -2.6519917893043394 [Eh]
	 SCS Total Energy          =   -2196.5165926012555246 [Eh]
	-----------------------------------------------------------

  Dipole Moment: [D]
     X:    -3.7411      Y:    -0.0137      Z:    -2.9838     Total:     4.7853

*** Psi4 exiting successfully. Buy a developer a beer!
