                               Psi4 1.3.2 release

  ==> Input File <==

--------------------------------------------------------------------------
#psi4
#
memory 32 gb

molecule  {
0 1
 Cl        3.0582810    -0.0000320     0.2153210
 Cl        1.0892650     1.4501210    -1.3457080
 Cl        1.0892300    -1.4499710    -1.3458710
  S        0.2835450    -0.0000560     1.1319340
  O        0.5217130     1.2849120     1.7899600
  O        0.5217120    -1.2850930     1.7898260
  C       -1.3508290    -0.0000210     0.4539040
  C        1.4090800     0.0000190    -0.3971410
  C       -1.9834610    -1.2238950     0.2202880
  C       -1.8901803     1.2238867    -0.0115655
  C       -3.2836100    -1.2122960    -0.2842060
  C       -3.2836000     1.2123300    -0.2841110
  C       -3.9288570     0.0000300    -0.5427800
  H       -1.4734280    -2.1539290     0.4522940
  H       -1.4734140     2.1538900     0.4524690
  H       -3.7956980    -2.1526110    -0.4704350
  H       -3.7956790     2.1526630    -0.4702660
  H       -4.9427330     0.0000490    -0.9349330
units angstrom
no_reorient  #important for SAPT in psi4, default
symmetry c1  #important for SAPT in psi4, default
}

set PROPERTIES_ORIGIN ["COM"]
properties('MP2/aug-cc-pvtz', properties = ['dipole'])
--------------------------------------------------------------------------

    Molecular point group: c1
  Charge       = 0
  Multiplicity = 1
  Basis Set: AUG-CC-PVTZ
    Blend: AUG-CC-PVTZ
  Basis Set: (AUG-CC-PVTZ AUX)
    Blend: AUG-CC-PVTZ-JKFIT

    Orbital Energies [Eh]
    ---------------------

    Doubly Occupied:

       1A   -104.880555     2A   -104.879831     3A   -104.876357
       4A    -92.211461     5A    -20.569115     6A    -20.568808
       7A    -11.466594     8A    -11.299178     9A    -11.287428
      10A    -11.281710    11A    -11.277360    12A    -11.273851
      13A    -11.270843    14A    -10.604859    15A    -10.604182
      16A    -10.600461    17A     -9.179883    18A     -8.071646
      19A     -8.070961    20A     -8.069422    21A     -8.069383
      22A     -8.068736    23A     -8.068693    24A     -8.067267
      25A     -8.064961    26A     -8.064930    27A     -6.864608
      28A     -6.863892    29A     -6.863572    30A     -1.463038
      31A     -1.354287    32A     -1.259735    33A     -1.190943
      34A     -1.130353    35A     -1.128300    36A     -1.072447
      37A     -1.050069    38A     -0.957427    39A     -0.869485
      40A     -0.863638    41A     -0.800834    42A     -0.742449
      43A     -0.713339    44A     -0.684528    45A     -0.674850
      46A     -0.652829    47A     -0.649078    48A     -0.639380
      49A     -0.630519    50A     -0.619755    51A     -0.556779
      52A     -0.546278    53A     -0.542483    54A     -0.528623
      55A     -0.520881    56A     -0.517235    57A     -0.516351
      58A     -0.497664    59A     -0.494799    60A     -0.475172
      61A     -0.469789    62A     -0.460293    63A     -0.436977
      64A     -0.380087    65A     -0.368391

  @DF-RHF Final Energy: -2193.84664264488674

   => Energetics <=

    Nuclear Repulsion Energy =           1338.1040060746747713
    One-Electron Energy =               -5688.3020343496609712
    Two-Electron Energy =                2156.3513856300996849
    Total Energy =                      -2193.8466426448867423
  Basis Set: (AUG-CC-PVTZ AUX)
    Blend: AUG-CC-PVTZ-RI
    Molecular point group: c1

    Geometry (in Angstrom), charge = 0, multiplicity = 1:

       Center              X                  Y                   Z               Mass
    ------------   -----------------  -----------------  -----------------  -----------------
         CL           2.974764709669    -0.000032572663     0.231873679074    34.968852682000
         CL           1.005748709669     1.450120427337    -1.329155320926    34.968852682000
         CL           1.005713709669    -1.449971572663    -1.329318320926    34.968852682000
         S            0.200028709669    -0.000056572663     1.148486679074    31.972071174400
         O            0.438196709669     1.284911427337     1.806512679074    15.994914619570
         O            0.438195709669    -1.285093572663     1.806378679074    15.994914619570
         C           -1.434345290331    -0.000021572663     0.470456679074    12.000000000000
         C            1.325563709669     0.000018427337    -0.380588320926    12.000000000000
         C           -2.066977290331    -1.223895572663     0.236840679074    12.000000000000
         C           -1.973696590331     1.223886127337     0.004987179074    12.000000000000
         C           -3.367126290331    -1.212296572663    -0.267653320926    12.000000000000
         C           -3.367116290331     1.212329427337    -0.267558320926    12.000000000000
         C           -4.012373290331     0.000029427337    -0.526227320926    12.000000000000
         H           -1.556944290331    -2.153929572663     0.468846679074     1.007825032230
         H           -1.556930290331     2.153889427337     0.469021679074     1.007825032230
         H           -3.879214290331    -2.152611572663    -0.453882320926     1.007825032230
         H           -3.879195290331     2.152662427337    -0.453713320926     1.007825032230
         H           -5.026249290331     0.000048427337    -0.918380320926     1.007825032230

  Basis Set: AUG-CC-PVTZ
    Blend: AUG-CC-PVTZ
  Basis Set: (AUG-CC-PVTZ AUX)
    Blend: AUG-CC-PVTZ-JKFIT
	 Reference Energy          =   -2193.8466426448867423 [Eh]
	 Singles Energy            =      -0.0000000000000000 [Eh]
	 Same-Spin Energy          =      -0.7075625715599221 [Eh]
	 Opposite-Spin Energy      =      -2.0170692797418215 [Eh]
	 Correlation Energy        =      -2.7246318513017433 [Eh]
	 Total Energy              =   -2196.5712744961883800 [Eh]

	 ================> DF-SCS-MP2 Energies <==================
	-----------------------------------------------------------
	 SCS Same-Spin Scale       =       0.3333333333333333 [-]
	 SCS Opposite-Spin Scale   =       1.2000000000000000 [-]
	 SCS Same-Spin Energy      =      -0.2358541905199740 [Eh]
	 SCS Opposite-Spin Energy  =      -2.4204831356901857 [Eh]
	 SCS Correlation Energy    =      -2.6563373262101599 [Eh]
	 SCS Total Energy          =   -2196.5029799710969201 [Eh]
	-----------------------------------------------------------

  Dipole Moment: [D]
     X:    -3.8286      Y:    -0.0823      Z:    -2.9523     Total:     4.8354

*** Psi4 exiting successfully. Buy a developer a beer!
