                               Psi4 1.3.2 release

  ==> Input File <==

--------------------------------------------------------------------------
#psi4
#
memory 32 gb

molecule  {
0 1
 Cl        3.0582810    -0.0000320     0.2153210
 Cl        1.0892650     1.4501210    -1.3457080
 Cl        1.0892300    -1.4499710    -1.3458710
  S        0.2835450    -0.0000560     1.1319340
  O        0.5217130     1.2849120     1.7899600
  O        0.5217120    -1.2850930     1.7898260
  C       -1.3508290    -0.0000210     0.4539040
  C        1.4090800     0.0000190    -0.3971410
  C       -1.9834610    -1.2238950     0.2202880
  C       -1.8715262     1.2238885    -0.0579554
  C       -3.2836100    -1.2122960    -0.2842060
  C       -3.2836000     1.2123300    -0.2841110
  C       -3.9288570     0.0000300    -0.5427800
  H       -1.4734280    -2.1539290     0.4522940
  H       -1.4734140     2.1538900     0.4524690
  H       -3.7956980    -2.1526110    -0.4704350
  H       -3.7956790     2.1526630    -0.4702660
  H       -4.9427330     0.0000490    -0.9349330
units angstrom
no_reorient  #important for SAPT in psi4, default
symmetry c1  #important for SAPT in psi4, default
}

set PROPERTIES_ORIGIN ["COM"]
properties('MP2/aug-cc-pvtz', properties = ['dipole'])
--------------------------------------------------------------------------

    Molecular point group: c1
  Charge       = 0
  Multiplicity = 1
  Basis Set: AUG-CC-PVTZ
    Blend: AUG-CC-PVTZ
  Basis Set: (AUG-CC-PVTZ AUX)
    Blend: AUG-CC-PVTZ-JKFIT

    Orbital Energies [Eh]
    ---------------------

    Doubly Occupied:

       1A   -104.880455     2A   -104.879472     3A   -104.876274
       4A    -92.211329     5A    -20.569090     6A    -20.568736
       7A    -11.466485     8A    -11.300913     9A    -11.289533
      10A    -11.281558    11A    -11.277390    12A    -11.276016
      13A    -11.272135    14A    -10.604759    15A    -10.603835
      16A    -10.600377    17A     -9.179784    18A     -8.071546
      19A     -8.070611    20A     -8.069323    21A     -8.069283
      22A     -8.068387    23A     -8.068343    24A     -8.067183
      25A     -8.064876    26A     -8.064846    27A     -6.864513
      28A     -6.863788    29A     -6.863462    30A     -1.462973
      31A     -1.354210    32A     -1.259598    33A     -1.190022
      34A     -1.130179    35A     -1.128177    36A     -1.072254
      37A     -1.048858    38A     -0.957098    39A     -0.868988
      40A     -0.862863    41A     -0.800123    42A     -0.741626
      43A     -0.713151    44A     -0.683943    45A     -0.674001
      46A     -0.652403    47A     -0.648242    48A     -0.639320
      49A     -0.630133    50A     -0.617573    51A     -0.556075
      52A     -0.546072    53A     -0.542242    54A     -0.527025
      55A     -0.519529    56A     -0.517072    57A     -0.516058
      58A     -0.497405    59A     -0.494628    60A     -0.474864
      61A     -0.469652    62A     -0.460153    63A     -0.436852
      64A     -0.379425    65A     -0.368028

  @DF-RHF Final Energy: -2193.83717139426290

   => Energetics <=

    Nuclear Repulsion Energy =           1338.0782831074607202
    One-Electron Energy =               -5688.2606792675233010
    Two-Electron Energy =                2156.3452247657992302
    Total Energy =                      -2193.8371713942628958
  Basis Set: (AUG-CC-PVTZ AUX)
    Blend: AUG-CC-PVTZ-RI
    Molecular point group: c1

    Geometry (in Angstrom), charge = 0, multiplicity = 1:

       Center              X                  Y                   Z               Mass
    ------------   -----------------  -----------------  -----------------  -----------------
         CL           2.973896766210    -0.000032656414     0.234032122002    34.968852682000
         CL           1.004880766210     1.450120343586    -1.326996877998    34.968852682000
         CL           1.004845766210    -1.449971656414    -1.327159877998    34.968852682000
         S            0.199160766210    -0.000056656414     1.150645122002    31.972071174400
         O            0.437328766210     1.284911343586     1.808671122002    15.994914619570
         O            0.437327766210    -1.285093656414     1.808537122002    15.994914619570
         C           -1.435213233790    -0.000021656414     0.472615122002    12.000000000000
         C            1.324695766210     0.000018343586    -0.378429877998    12.000000000000
         C           -2.067845233790    -1.223895656414     0.238999122002    12.000000000000
         C           -1.955910433790     1.223887843586    -0.039244277998    12.000000000000
         C           -3.367994233790    -1.212296656414    -0.265494877998    12.000000000000
         C           -3.367984233790     1.212329343586    -0.265399877998    12.000000000000
         C           -4.013241233790     0.000029343586    -0.524068877998    12.000000000000
         H           -1.557812233790    -2.153929656414     0.471005122002     1.007825032230
         H           -1.557798233790     2.153889343586     0.471180122002     1.007825032230
         H           -3.880082233790    -2.152611656414    -0.451723877998     1.007825032230
         H           -3.880063233790     2.152662343586    -0.451554877998     1.007825032230
         H           -5.027117233790     0.000048343586    -0.916221877998     1.007825032230

  Basis Set: AUG-CC-PVTZ
    Blend: AUG-CC-PVTZ
  Basis Set: (AUG-CC-PVTZ AUX)
    Blend: AUG-CC-PVTZ-JKFIT
	 Reference Energy          =   -2193.8371713942628958 [Eh]
	 Singles Energy            =      -0.0000000000000000 [Eh]
	 Same-Spin Energy          =      -0.7082158328815992 [Eh]
	 Opposite-Spin Energy      =      -2.0186886087637914 [Eh]
	 Correlation Energy        =      -2.7269044416453907 [Eh]
	 Total Energy              =   -2196.5640758359081701 [Eh]

	 ================> DF-SCS-MP2 Energies <==================
	-----------------------------------------------------------
	 SCS Same-Spin Scale       =       0.3333333333333333 [-]
	 SCS Opposite-Spin Scale   =       1.2000000000000000 [-]
	 SCS Same-Spin Energy      =      -0.2360719442938664 [Eh]
	 SCS Opposite-Spin Energy  =      -2.4224263305165494 [Eh]
	 SCS Correlation Energy    =      -2.6584982748104160 [Eh]
	 SCS Total Energy          =   -2196.4956696690733224 [Eh]
	-----------------------------------------------------------

  Dipole Moment: [D]
     X:    -3.8665      Y:    -0.1171      Z:    -2.9430     Total:     4.8606

*** Psi4 exiting successfully. Buy a developer a beer!
