                               Psi4 1.3.2 release

  ==> Input File <==

--------------------------------------------------------------------------
#psi4
#
memory 32 gb

molecule  {
0 1
 Cl        3.0582810    -0.0000320     0.2153210
 Cl        1.0892650     1.4501210    -1.3457080
 Cl        1.0892300    -1.4499710    -1.3458710
  S        0.2835450    -0.0000560     1.1319340
  O        0.5217130     1.2849120     1.7899600
  O        0.5217120    -1.2850930     1.7898260
  C       -1.3508290    -0.0000210     0.4539040
  C        1.4090800     0.0000190    -0.3971410
  C       -1.9834610    -1.2238950     0.2202880
  C       -1.9274886     1.2238832     0.0812143
  C       -3.2836100    -1.2122960    -0.2842060
  C       -3.2836000     1.2123300    -0.2841110
  C       -3.9288570     0.0000300    -0.5427800
  H       -1.4734280    -2.1539290     0.4522940
  H       -1.4734140     2.1538900     0.4524690
  H       -3.7956980    -2.1526110    -0.4704350
  H       -3.7956790     2.1526630    -0.4702660
  H       -4.9427330     0.0000490    -0.9349330
units angstrom
no_reorient  #important for SAPT in psi4, default
symmetry c1  #important for SAPT in psi4, default
}

set PROPERTIES_ORIGIN ["COM"]
properties('MP2/aug-cc-pvtz', properties = ['dipole'])
--------------------------------------------------------------------------

    Molecular point group: c1
  Charge       = 0
  Multiplicity = 1
  Basis Set: AUG-CC-PVTZ
    Blend: AUG-CC-PVTZ
  Basis Set: (AUG-CC-PVTZ AUX)
    Blend: AUG-CC-PVTZ-JKFIT

    Orbital Energies [Eh]
    ---------------------

    Doubly Occupied:

       1A   -104.880714     2A   -104.880374     3A   -104.876486
       4A    -92.211659     5A    -20.569105     6A    -20.568911
       7A    -11.466776     8A    -11.296540     9A    -11.284163
      10A    -11.281994    11A    -11.277686    12A    -11.270201
      13A    -11.268949    14A    -10.605017    15A    -10.604705
      16A    -10.600594    17A     -9.180030    18A     -8.071804
      19A     -8.071488    20A     -8.069579    21A     -8.069540
      22A     -8.069263    23A     -8.069222    24A     -8.067400
      25A     -8.065094    26A     -8.065063    27A     -6.864745
      28A     -6.864048    29A     -6.863735    30A     -1.463125
      31A     -1.354391    32A     -1.259936    33A     -1.192342
      34A     -1.130612    35A     -1.128482    36A     -1.072714
      37A     -1.051855    38A     -0.957913    39A     -0.870370
      40A     -0.864770    41A     -0.801951    42A     -0.743966
      43A     -0.713587    44A     -0.685588    45A     -0.676255
      46A     -0.653815    47A     -0.650029    48A     -0.639388
      49A     -0.631006    50A     -0.623126    51A     -0.557816
      52A     -0.546687    53A     -0.542647    54A     -0.531656
      55A     -0.522066    56A     -0.517460    57A     -0.516717
      58A     -0.498077    59A     -0.495020    60A     -0.475650
      61A     -0.469972    62A     -0.460492    63A     -0.437158
      64A     -0.381145    65A     -0.368950

  @DF-RHF Final Energy: -2193.86032804209344

   => Energetics <=

    Nuclear Repulsion Energy =           1337.9958357142538716
    One-Electron Energy =               -5688.0690910760422412
    Two-Electron Energy =                2156.2129273196946997
    Total Energy =                      -2193.8603280420934425
  Basis Set: (AUG-CC-PVTZ AUX)
    Blend: AUG-CC-PVTZ-RI
    Molecular point group: c1

    Geometry (in Angstrom), charge = 0, multiplicity = 1:

       Center              X                  Y                   Z               Mass
    ------------   -----------------  -----------------  -----------------  -----------------
         CL           2.976500601238    -0.000032409814     0.227556793218    34.968852682000
         CL           1.007484601238     1.450120590186    -1.333472206782    34.968852682000
         CL           1.007449601238    -1.449971409814    -1.333635206782    34.968852682000
         S            0.201764601238    -0.000056409814     1.144169793218    31.972071174400
         O            0.439932601238     1.284911590186     1.802195793218    15.994914619570
         O            0.439931601238    -1.285093409814     1.802061793218    15.994914619570
         C           -1.432609398762    -0.000021409814     0.466139793218    12.000000000000
         C            1.327299601238     0.000018590186    -0.384905206782    12.000000000000
         C           -2.065241398762    -1.223895409814     0.232523793218    12.000000000000
         C           -2.009268998762     1.223882790186     0.093450093218    12.000000000000
         C           -3.365390398762    -1.212296409814    -0.271970206782    12.000000000000
         C           -3.365380398762     1.212329590186    -0.271875206782    12.000000000000
         C           -4.010637398762     0.000029590186    -0.530544206782    12.000000000000
         H           -1.555208398762    -2.153929409814     0.464529793218     1.007825032230
         H           -1.555194398762     2.153889590186     0.464704793218     1.007825032230
         H           -3.877478398762    -2.152611409814    -0.458199206782     1.007825032230
         H           -3.877459398762     2.152662590186    -0.458030206782     1.007825032230
         H           -5.024513398762     0.000048590186    -0.922697206782     1.007825032230

  Basis Set: AUG-CC-PVTZ
    Blend: AUG-CC-PVTZ
  Basis Set: (AUG-CC-PVTZ AUX)
    Blend: AUG-CC-PVTZ-JKFIT
	 Reference Energy          =   -2193.8603280420934425 [Eh]
	 Singles Energy            =      -0.0000000000000000 [Eh]
	 Same-Spin Energy          =      -0.7065465925485981 [Eh]
	 Opposite-Spin Energy      =      -2.0146378912892384 [Eh]
	 Correlation Energy        =      -2.7211844838378365 [Eh]
	 Total Energy              =   -2196.5815125259314300 [Eh]

	 ================> DF-SCS-MP2 Energies <==================
	-----------------------------------------------------------
	 SCS Same-Spin Scale       =       0.3333333333333333 [-]
	 SCS Opposite-Spin Scale   =       1.2000000000000000 [-]
	 SCS Same-Spin Energy      =      -0.2355155308495327 [Eh]
	 SCS Opposite-Spin Energy  =      -2.4175654695470858 [Eh]
	 SCS Correlation Energy    =      -2.6530810003966185 [Eh]
	 SCS Total Energy          =   -2196.5134090424899114 [Eh]
	-----------------------------------------------------------

  Dipole Moment: [D]
     X:    -3.7656      Y:    -0.0303      Z:    -2.9728     Total:     4.7977

*** Psi4 exiting successfully. Buy a developer a beer!
