                               Psi4 1.3.2 release

  ==> Input File <==

--------------------------------------------------------------------------
#psi4
#
memory 32 gb

molecule  {
0 1
 Cl        3.0582810    -0.0000320     0.2153210
 Cl        1.0892650     1.4501210    -1.3457080
 Cl        1.0892300    -1.4499710    -1.3458710
  S        0.2835450    -0.0000560     1.1319340
  O        0.5217130     1.2849120     1.7899600
  O        0.5217120    -1.2850930     1.7898260
  C       -1.3508290    -0.0000210     0.4539040
  C        1.4090800     0.0000190    -0.3971410
  C       -1.9834610    -1.2238950     0.2202880
  C       -1.9647969     1.2238797     0.1739941
  C       -3.2836100    -1.2122960    -0.2842060
  C       -3.2836000     1.2123300    -0.2841110
  C       -3.9288570     0.0000300    -0.5427800
  H       -1.4734280    -2.1539290     0.4522940
  H       -1.4734140     2.1538900     0.4524690
  H       -3.7956980    -2.1526110    -0.4704350
  H       -3.7956790     2.1526630    -0.4702660
  H       -4.9427330     0.0000490    -0.9349330
units angstrom
no_reorient  #important for SAPT in psi4, default
symmetry c1  #important for SAPT in psi4, default
}

set PROPERTIES_ORIGIN ["COM"]
properties('MP2/aug-cc-pvtz', properties = ['dipole'])
--------------------------------------------------------------------------

    Molecular point group: c1
  Charge       = 0
  Multiplicity = 1
  Basis Set: AUG-CC-PVTZ
    Blend: AUG-CC-PVTZ
  Basis Set: (AUG-CC-PVTZ AUX)
    Blend: AUG-CC-PVTZ-JKFIT

    Orbital Energies [Eh]
    ---------------------

    Doubly Occupied:

       1A   -104.880827     2A   -104.880738     3A   -104.876584
       4A    -92.211764     5A    -20.569018     6A    -20.568950
       7A    -11.466924     8A    -11.295147     9A    -11.282433
      10A    -11.282168    11A    -11.277914    12A    -11.268152
      13A    -11.267938    14A    -10.605131    15A    -10.605051
      16A    -10.600695    17A     -9.180102    18A     -8.071919
      19A     -8.071838    20A     -8.069693    21A     -8.069653
      22A     -8.069612    23A     -8.069572    24A     -8.067500
      25A     -8.065194    26A     -8.065164    27A     -6.864809
      28A     -6.864129    29A     -6.863816    30A     -1.463151
      31A     -1.354422    32A     -1.260066    33A     -1.193030
      34A     -1.130777    35A     -1.128606    36A     -1.072762
      37A     -1.052797    38A     -0.958211    39A     -0.870996
      40A     -0.865264    41A     -0.802510    42A     -0.744956
      43A     -0.713583    44A     -0.686348    45A     -0.676994
      46A     -0.654447    47A     -0.650444    48A     -0.639258
      49A     -0.631209    50A     -0.624981    51A     -0.558461
      52A     -0.547143    53A     -0.542354    54A     -0.533291
      55A     -0.522438    56A     -0.517566    57A     -0.516923
      58A     -0.498394    59A     -0.495112    60A     -0.475981
      61A     -0.470063    62A     -0.460615    63A     -0.437291
      64A     -0.381626    65A     -0.369271

  @DF-RHF Final Energy: -2193.86720132087521

   => Energetics <=

    Nuclear Repulsion Energy =           1337.6618031111763685
    One-Electron Energy =               -5687.3904527871573009
    Two-Electron Energy =                2155.8614483551054946
    Total Energy =                      -2193.8672013208752105
  Basis Set: (AUG-CC-PVTZ AUX)
    Blend: AUG-CC-PVTZ-RI
    Molecular point group: c1

    Geometry (in Angstrom), charge = 0, multiplicity = 1:

       Center              X                  Y                   Z               Mass
    ------------   -----------------  -----------------  -----------------  -----------------
         CL           2.978236492807    -0.000032246965     0.223239907361    34.968852682000
         CL           1.009220492807     1.450120753035    -1.337789092639    34.968852682000
         CL           1.009185492807    -1.449971246965    -1.337952092639    34.968852682000
         S            0.203500492807    -0.000056246965     1.139852907361    31.972071174400
         O            0.441668492807     1.284911753035     1.797878907361    15.994914619570
         O            0.441667492807    -1.285093246965     1.797744907361    15.994914619570
         C           -1.430873507193    -0.000021246965     0.461822907361    12.000000000000
         C            1.329035492807     0.000018753035    -0.389222092639    12.000000000000
         C           -2.063505507193    -1.223895246965     0.228206907361    12.000000000000
         C           -2.044841407193     1.223879453035     0.181913007361    12.000000000000
         C           -3.363654507193    -1.212296246965    -0.276287092639    12.000000000000
         C           -3.363644507193     1.212329753035    -0.276192092639    12.000000000000
         C           -4.008901507193     0.000029753035    -0.534861092639    12.000000000000
         H           -1.553472507193    -2.153929246965     0.460212907361     1.007825032230
         H           -1.553458507193     2.153889753035     0.460387907361     1.007825032230
         H           -3.875742507193    -2.152611246965    -0.462516092639     1.007825032230
         H           -3.875723507193     2.152662753035    -0.462347092639     1.007825032230
         H           -5.022777507193     0.000048753035    -0.927014092639     1.007825032230

  Basis Set: AUG-CC-PVTZ
    Blend: AUG-CC-PVTZ
  Basis Set: (AUG-CC-PVTZ AUX)
    Blend: AUG-CC-PVTZ-JKFIT
	 Reference Energy          =   -2193.8672013208752105 [Eh]
	 Singles Energy            =      -0.0000000000000000 [Eh]
	 Same-Spin Energy          =      -0.7059425459668600 [Eh]
	 Opposite-Spin Energy      =      -2.0132788789574851 [Eh]
	 Correlation Energy        =      -2.7192214249243452 [Eh]
	 Total Energy              =   -2196.5864227457996094 [Eh]

	 ================> DF-SCS-MP2 Energies <==================
	-----------------------------------------------------------
	 SCS Same-Spin Scale       =       0.3333333333333333 [-]
	 SCS Opposite-Spin Scale   =       1.2000000000000000 [-]
	 SCS Same-Spin Energy      =      -0.2353141819889533 [Eh]
	 SCS Opposite-Spin Energy  =      -2.4159346547489822 [Eh]
	 SCS Correlation Energy    =      -2.6512488367379357 [Eh]
	 SCS Total Energy          =   -2196.5184501576131879 [Eh]
	-----------------------------------------------------------

  Dipole Moment: [D]
     X:    -3.7212      Y:    -0.0035      Z:    -2.9958     Total:     4.7773

*** Psi4 exiting successfully. Buy a developer a beer!
