                               Psi4 1.3.2 release

  ==> Input File <==

--------------------------------------------------------------------------
#psi4
#
memory 32 gb

molecule  {
0 1
 Cl        3.0582810    -0.0000320     0.2153210
 Cl        1.0892650     1.4501210    -1.3457080
 Cl        1.0892300    -1.4499710    -1.3458710
  S        0.2835450    -0.0000560     1.1319340
  O        0.5217130     1.2849120     1.7899600
  O        0.5217120    -1.2850930     1.7898260
  C       -1.3508290    -0.0000210     0.4539040
  C        1.4090800     0.0000190    -0.3971410
  C       -1.9834610    -1.2238950     0.2202880
  C       -1.9088345     1.2238850     0.0348244
  C       -3.2836100    -1.2122960    -0.2842060
  C       -3.2836000     1.2123300    -0.2841110
  C       -3.9288570     0.0000300    -0.5427800
  H       -1.4734280    -2.1539290     0.4522940
  H       -1.4734140     2.1538900     0.4524690
  H       -3.7956980    -2.1526110    -0.4704350
  H       -3.7956790     2.1526630    -0.4702660
  H       -4.9427330     0.0000490    -0.9349330
units angstrom
no_reorient  #important for SAPT in psi4, default
symmetry c1  #important for SAPT in psi4, default
}

set PROPERTIES_ORIGIN ["COM"]
properties('MP2/aug-cc-pvtz', properties = ['dipole'])
--------------------------------------------------------------------------

    Molecular point group: c1
  Charge       = 0
  Multiplicity = 1
  Basis Set: AUG-CC-PVTZ
    Blend: AUG-CC-PVTZ
  Basis Set: (AUG-CC-PVTZ AUX)
    Blend: AUG-CC-PVTZ-JKFIT

    Orbital Energies [Eh]
    ---------------------

    Doubly Occupied:

       1A   -104.880641     2A   -104.880129     3A   -104.876426
       4A    -92.211571     5A    -20.569120     6A    -20.568866
       7A    -11.466691     8A    -11.297713     9A    -11.285622
      10A    -11.281860    11A    -11.277522    12A    -11.271845
      13A    -11.269782    14A    -10.604944    15A    -10.604469
      16A    -10.600533    17A     -9.179965    18A     -8.071731
      19A     -8.071250    20A     -8.069507    21A     -8.069468
      22A     -8.069026    23A     -8.068984    24A     -8.067339
      25A     -8.065032    26A     -8.065002    27A     -6.864685
      28A     -6.863979    29A     -6.863663    30A     -1.463089
      31A     -1.354348    32A     -1.259846    33A     -1.191724
      34A     -1.130497    35A     -1.128400    36A     -1.072604
      37A     -1.051068    38A     -0.957696    39A     -0.869950
      40A     -0.864280    41A     -0.801452    42A     -0.743247
      43A     -0.713489    44A     -0.685085    45A     -0.675617
      46A     -0.653334    47A     -0.649646    48A     -0.639403
      49A     -0.630803    50A     -0.621621    51A     -0.557354
      52A     -0.546477    53A     -0.542619    54A     -0.530257
      55A     -0.521640    56A     -0.517362    57A     -0.516561
      58A     -0.497885    59A     -0.494927    60A     -0.475432
      61A     -0.469894    62A     -0.460404    63A     -0.437077
      64A     -0.380673    65A     -0.368699

  @DF-RHF Final Energy: -2193.85435263052250

   => Energetics <=

    Nuclear Repulsion Energy =           1338.0772807949153957
    One-Electron Energy =               -5688.2396078801430122
    Two-Electron Energy =                2156.3079744547053451
    Total Energy =                      -2193.8543526305224987
  Basis Set: (AUG-CC-PVTZ AUX)
    Blend: AUG-CC-PVTZ-RI
    Molecular point group: c1

    Geometry (in Angstrom), charge = 0, multiplicity = 1:

       Center              X                  Y                   Z               Mass
    ------------   -----------------  -----------------  -----------------  -----------------
         CL           2.975632657779    -0.000032493565     0.229715236146    34.968852682000
         CL           1.006616657779     1.450120506435    -1.331313763854    34.968852682000
         CL           1.006581657779    -1.449971493565    -1.331476763854    34.968852682000
         S            0.200896657779    -0.000056493565     1.146328236146    31.972071174400
         O            0.439064657779     1.284911506435     1.804354236146    15.994914619570
         O            0.439063657779    -1.285093493565     1.804220236146    15.994914619570
         C           -1.433477342221    -0.000021493565     0.468298236146    12.000000000000
         C            1.326431657779     0.000018506435    -0.382746763854    12.000000000000
         C           -2.066109342221    -1.223895493565     0.234682236146    12.000000000000
         C           -1.991482842221     1.223884506435     0.049218636146    12.000000000000
         C           -3.366258342221    -1.212296493565    -0.269811763854    12.000000000000
         C           -3.366248342221     1.212329506435    -0.269716763854    12.000000000000
         C           -4.011505342221     0.000029506435    -0.528385763854    12.000000000000
         H           -1.556076342221    -2.153929493565     0.466688236146     1.007825032230
         H           -1.556062342221     2.153889506435     0.466863236146     1.007825032230
         H           -3.878346342221    -2.152611493565    -0.456040763854     1.007825032230
         H           -3.878327342221     2.152662506435    -0.455871763854     1.007825032230
         H           -5.025381342221     0.000048506435    -0.920538763854     1.007825032230

  Basis Set: AUG-CC-PVTZ
    Blend: AUG-CC-PVTZ
  Basis Set: (AUG-CC-PVTZ AUX)
    Blend: AUG-CC-PVTZ-JKFIT
	 Reference Energy          =   -2193.8543526305224987 [Eh]
	 Singles Energy            =      -0.0000000000000000 [Eh]
	 Same-Spin Energy          =      -0.7070044584824152 [Eh]
	 Opposite-Spin Energy      =      -2.0157176183592522 [Eh]
	 Correlation Energy        =      -2.7227220768416673 [Eh]
	 Total Energy              =   -2196.5770747073643179 [Eh]

	 ================> DF-SCS-MP2 Energies <==================
	-----------------------------------------------------------
	 SCS Same-Spin Scale       =       0.3333333333333333 [-]
	 SCS Opposite-Spin Scale   =       1.2000000000000000 [-]
	 SCS Same-Spin Energy      =      -0.2356681528274717 [Eh]
	 SCS Opposite-Spin Energy  =      -2.4188611420311026 [Eh]
	 SCS Correlation Energy    =      -2.6545292948585741 [Eh]
	 SCS Total Energy          =   -2196.5088819253810470 [Eh]
	-----------------------------------------------------------

  Dipole Moment: [D]
     X:    -3.7949      Y:    -0.0533      Z:    -2.9623     Total:     4.8144

*** Psi4 exiting successfully. Buy a developer a beer!
