                               Psi4 1.3.2 release

  ==> Input File <==

--------------------------------------------------------------------------
#psi4
#
memory 32 gb

molecule  {
0 1
  C        0.0115380     0.2135990     0.3546250
  C        1.2941630     0.9919190    -0.0205040
  C        0.7065190    -1.0643830    -0.1744580
  C        2.0598330    -0.3481190     0.0263490
  C       -1.4967518     0.6862457    -0.3166681
  C       -2.4410400    -0.3538850     0.0887730
  H       -0.0679110     0.1527640     1.4490850
  H        1.6199900     1.8060400     0.6343450
  H        1.2250320     1.3706910    -1.0467180
  H        0.4892460    -1.2032850    -1.2402580
  H        0.5335860    -2.0108350     0.3468040
  H        2.8518490    -0.5196980    -0.7084510
  H        2.4619040    -0.5379660     1.0262650
  H       -1.5851000     1.6330430     0.1250760
  H       -1.2082630     0.7153210    -1.3275710
  H       -2.5819740    -0.4371880     1.1710350
  H       -2.2056380    -1.3508490    -0.2961240
  H       -3.3922610    -0.0400190    -0.3512830
units angstrom
no_reorient  #important for SAPT in psi4, default
symmetry c1  #important for SAPT in psi4, default
}

set PROPERTIES_ORIGIN ["COM"]
properties('MP2/aug-cc-pvtz', properties = ['dipole'])
--------------------------------------------------------------------------

    Molecular point group: c1
  Charge       = 0
  Multiplicity = 1
  Basis Set: AUG-CC-PVTZ
    Blend: AUG-CC-PVTZ
  Basis Set: (AUG-CC-PVTZ AUX)
    Blend: AUG-CC-PVTZ-JKFIT

    Orbital Energies [Eh]
    ---------------------

    Doubly Occupied:

       1A    -11.223657     2A    -11.215275     3A    -11.213564
       4A    -11.213381     5A    -11.212578     6A    -11.208261
       7A     -1.126097     8A     -1.034130     9A     -0.890245
      10A     -0.881231    11A     -0.815616    12A     -0.739596
      13A     -0.647080    14A     -0.616541    15A     -0.613584
      16A     -0.550072    17A     -0.549202    18A     -0.529982
      19A     -0.504832    20A     -0.487609    21A     -0.470152
      22A     -0.440140    23A     -0.429537    24A     -0.377172

  @DF-RHF Final Energy:  -234.21894634696088

   => Energetics <=

    Nuclear Repulsion Energy =            245.2406972369337836
    One-Electron Energy =                -800.9402154534994906
    Two-Electron Energy =                 321.4805718696048302
    Total Energy =                       -234.2189463469608768
  Basis Set: (AUG-CC-PVTZ AUX)
    Blend: AUG-CC-PVTZ-RI
    Molecular point group: c1

    Geometry (in Angstrom), charge = 0, multiplicity = 1:

       Center              X                  Y                   Z               Mass
    ------------   -----------------  -----------------  -----------------  -----------------
         C            0.014664939757     0.200765282214     0.363211787503    12.000000000000
         C            1.297289939757     0.979085282214    -0.011917212497    12.000000000000
         C            0.709645939757    -1.077216717786    -0.165871212497    12.000000000000
         C            2.062959939757    -0.360952717786     0.034935787503    12.000000000000
         C           -1.493624860243     0.673411982214    -0.308081312497    12.000000000000
         C           -2.437913060243    -0.366718717786     0.097359787503    12.000000000000
         H           -0.064784060243     0.139930282214     1.457671787503     1.007825032230
         H            1.623116939757     1.793206282214     0.642931787503     1.007825032230
         H            1.228158939757     1.357857282214    -1.038131212497     1.007825032230
         H            0.492372939757    -1.216118717786    -1.231671212497     1.007825032230
         H            0.536712939757    -2.023668717786     0.355390787503     1.007825032230
         H            2.854975939757    -0.532531717786    -0.699864212497     1.007825032230
         H            2.465030939757    -0.550799717786     1.034851787503     1.007825032230
         H           -1.581973060243     1.620209282214     0.133662787503     1.007825032230
         H           -1.205136060243     0.702487282214    -1.318984212497     1.007825032230
         H           -2.578847060243    -0.450021717786     1.179621787503     1.007825032230
         H           -2.202511060243    -1.363682717786    -0.287537212497     1.007825032230
         H           -3.389134060243    -0.052852717786    -0.342696212497     1.007825032230

  Basis Set: AUG-CC-PVTZ
    Blend: AUG-CC-PVTZ
  Basis Set: (AUG-CC-PVTZ AUX)
    Blend: AUG-CC-PVTZ-JKFIT
	 Reference Energy          =    -234.2189463469608768 [Eh]
	 Singles Energy            =      -0.0000000000000000 [Eh]
	 Same-Spin Energy          =      -0.2533487430951335 [Eh]
	 Opposite-Spin Energy      =      -0.9234529023890767 [Eh]
	 Correlation Energy        =      -1.1768016454842103 [Eh]
	 Total Energy              =    -235.3957479924450809 [Eh]

	 ================> DF-SCS-MP2 Energies <==================
	-----------------------------------------------------------
	 SCS Same-Spin Scale       =       0.3333333333333333 [-]
	 SCS Opposite-Spin Scale   =       1.2000000000000000 [-]
	 SCS Same-Spin Energy      =      -0.0844495810317112 [Eh]
	 SCS Opposite-Spin Energy  =      -1.1081434828668921 [Eh]
	 SCS Correlation Energy    =      -1.1925930638986033 [Eh]
	 SCS Total Energy          =    -235.4115394108594899 [Eh]
	-----------------------------------------------------------

  Dipole Moment: [D]
     X:    -0.0594      Y:     0.0330      Z:     0.0684     Total:     0.0965

*** Psi4 exiting successfully. Buy a developer a beer!
