                               Psi4 1.3.2 release

  ==> Input File <==

--------------------------------------------------------------------------
#psi4
#
memory 32 gb

molecule  {
0 1
  C        0.0115380     0.2135990     0.3546250
  C        1.3741518     0.8900840     0.0766280
  C        0.7065190    -1.0643830    -0.1744580
  C        2.0598330    -0.3481190     0.0263490
  C       -1.3210890     0.6311990    -0.2384860
  C       -2.4410400    -0.3538850     0.0887730
  H       -0.0679110     0.1527640     1.4490850
  H        1.6199900     1.8060400     0.6343450
  H        1.2250320     1.3706910    -1.0467180
  H        0.4892460    -1.2032850    -1.2402580
  H        0.5335860    -2.0108350     0.3468040
  H        2.8518490    -0.5196980    -0.7084510
  H        2.4619040    -0.5379660     1.0262650
  H       -1.5851000     1.6330430     0.1250760
  H       -1.2082630     0.7153210    -1.3275710
  H       -2.5819740    -0.4371880     1.1710350
  H       -2.2056380    -1.3508490    -0.2961240
  H       -3.3922610    -0.0400190    -0.3512830
units angstrom
no_reorient  #important for SAPT in psi4, default
symmetry c1  #important for SAPT in psi4, default
}

set PROPERTIES_ORIGIN ["COM"]
properties('MP2/aug-cc-pvtz', properties = ['dipole'])
--------------------------------------------------------------------------

    Molecular point group: c1
  Charge       = 0
  Multiplicity = 1
  Basis Set: AUG-CC-PVTZ
    Blend: AUG-CC-PVTZ
  Basis Set: (AUG-CC-PVTZ AUX)
    Blend: AUG-CC-PVTZ-JKFIT

    Orbital Energies [Eh]
    ---------------------

    Doubly Occupied:

       1A    -11.222375     2A    -11.218525     3A    -11.216637
       4A    -11.215916     5A    -11.211504     6A    -11.210828
       7A     -1.151603     8A     -1.033539     9A     -0.904343
      10A     -0.887966    11A     -0.811383    12A     -0.733671
      13A     -0.656887    14A     -0.631618    15A     -0.604318
      16A     -0.562426    17A     -0.533495    18A     -0.517488
      19A     -0.504792    20A     -0.489789    21A     -0.473519
      22A     -0.432666    23A     -0.424863    24A     -0.408423

  @DF-RHF Final Energy:  -234.22207391498802

   => Energetics <=

    Nuclear Repulsion Energy =            248.2369993596539075
    One-Electron Energy =                -806.8009993648911404
    Two-Electron Energy =                 324.3419260902491601
    Total Energy =                       -234.2220739149880160
  Basis Set: (AUG-CC-PVTZ AUX)
    Blend: AUG-CC-PVTZ-RI
    Molecular point group: c1

    Geometry (in Angstrom), charge = 0, multiplicity = 1:

       Center              X                  Y                   Z               Mass
    ------------   -----------------  -----------------  -----------------  -----------------
         C           -0.021815936810     0.223151928467     0.338194881516    12.000000000000
         C            1.340797863190     0.899636928467     0.060197881516    12.000000000000
         C            0.673165063190    -1.054830071533    -0.190888118484    12.000000000000
         C            2.026479063190    -0.338566071533     0.009918881516    12.000000000000
         C           -1.354442936810     0.640751928467    -0.254916118484    12.000000000000
         C           -2.474393936810    -0.344332071533     0.072342881516    12.000000000000
         H           -0.101264936810     0.162316928467     1.432654881516     1.007825032230
         H            1.586636063190     1.815592928467     0.617914881516     1.007825032230
         H            1.191678063190     1.380243928467    -1.063148118484     1.007825032230
         H            0.455892063190    -1.193732071533    -1.256688118484     1.007825032230
         H            0.500232063190    -2.001282071533     0.330373881516     1.007825032230
         H            2.818495063190    -0.510145071533    -0.724881118484     1.007825032230
         H            2.428550063190    -0.528413071533     1.009834881516     1.007825032230
         H           -1.618453936810     1.642595928467     0.108645881516     1.007825032230
         H           -1.241616936810     0.724873928467    -1.344001118484     1.007825032230
         H           -2.615327936810    -0.427635071533     1.154604881516     1.007825032230
         H           -2.238991936810    -1.341296071533    -0.312554118484     1.007825032230
         H           -3.425614936810    -0.030466071533    -0.367713118484     1.007825032230

  Basis Set: AUG-CC-PVTZ
    Blend: AUG-CC-PVTZ
  Basis Set: (AUG-CC-PVTZ AUX)
    Blend: AUG-CC-PVTZ-JKFIT
	 Reference Energy          =    -234.2220739149880160 [Eh]
	 Singles Energy            =      -0.0000000000000000 [Eh]
	 Same-Spin Energy          =      -0.2540104390849402 [Eh]
	 Opposite-Spin Energy      =      -0.9232123117160460 [Eh]
	 Correlation Energy        =      -1.1772227508009863 [Eh]
	 Total Energy              =    -235.3992966657889951 [Eh]

	 ================> DF-SCS-MP2 Energies <==================
	-----------------------------------------------------------
	 SCS Same-Spin Scale       =       0.3333333333333333 [-]
	 SCS Opposite-Spin Scale   =       1.2000000000000000 [-]
	 SCS Same-Spin Energy      =      -0.0846701463616467 [Eh]
	 SCS Opposite-Spin Energy  =      -1.1078547740592553 [Eh]
	 SCS Correlation Energy    =      -1.1925249204209021 [Eh]
	 SCS Total Energy          =    -235.4145988354089241 [Eh]
	-----------------------------------------------------------

  Dipole Moment: [D]
     X:    -0.1048      Y:    -0.0168      Z:     0.1292     Total:     0.1672

*** Psi4 exiting successfully. Buy a developer a beer!
