                               Psi4 1.3.2 release

  ==> Input File <==

--------------------------------------------------------------------------
#psi4
#
memory 32 gb

molecule  {
0 1
  C        0.0129717     0.3539389     0.4289524
  C        1.2941630     0.9919190    -0.0205040
  C        0.7065190    -1.0643830    -0.1744580
  C        2.0598330    -0.3481190     0.0263490
  C       -1.3210890     0.6311990    -0.2384860
  C       -2.4410400    -0.3538850     0.0887730
  H       -0.0679110     0.1527640     1.4490850
  H        1.6199900     1.8060400     0.6343450
  H        1.2250320     1.3706910    -1.0467180
  H        0.4892460    -1.2032850    -1.2402580
  H        0.5335860    -2.0108350     0.3468040
  H        2.8518490    -0.5196980    -0.7084510
  H        2.4619040    -0.5379660     1.0262650
  H       -1.5851000     1.6330430     0.1250760
  H       -1.2082630     0.7153210    -1.3275710
  H       -2.5819740    -0.4371880     1.1710350
  H       -2.2056380    -1.3508490    -0.2961240
  H       -3.3922610    -0.0400190    -0.3512830
units angstrom
no_reorient  #important for SAPT in psi4, default
symmetry c1  #important for SAPT in psi4, default
}

set PROPERTIES_ORIGIN ["COM"]
properties('MP2/aug-cc-pvtz', properties = ['dipole'])
--------------------------------------------------------------------------

    Molecular point group: c1
  Charge       = 0
  Multiplicity = 1
  Basis Set: AUG-CC-PVTZ
    Blend: AUG-CC-PVTZ
  Basis Set: (AUG-CC-PVTZ AUX)
    Blend: AUG-CC-PVTZ-JKFIT

    Orbital Energies [Eh]
    ---------------------

    Doubly Occupied:

       1A    -11.220586     2A    -11.215816     3A    -11.215486
       4A    -11.215458     5A    -11.214875     6A    -11.211380
       7A     -1.125702     8A     -1.026335     9A     -0.908539
      10A     -0.878110    11A     -0.808496    12A     -0.751998
      13A     -0.642948    14A     -0.621922    15A     -0.598731
      16A     -0.557679    17A     -0.547038    18A     -0.530176
      19A     -0.499507    20A     -0.481836    21A     -0.467719
      22A     -0.454397    23A     -0.437264    24A     -0.376144

  @DF-RHF Final Energy:  -234.23023833759959

   => Energetics <=

    Nuclear Repulsion Energy =            246.3096728598863479
    One-Electron Energy =                -803.0635354722586499
    Two-Electron Energy =                 322.5236242747727715
    Total Energy =                       -234.2302383375995873
  Basis Set: (AUG-CC-PVTZ AUX)
    Blend: AUG-CC-PVTZ-RI
    Molecular point group: c1

    Geometry (in Angstrom), charge = 0, multiplicity = 1:

       Center              X                  Y                   Z               Mass
    ------------   -----------------  -----------------  -----------------  -----------------
         C           -0.009172610479     0.328934045006     0.415776443813    12.000000000000
         C            1.272018689521     0.966914145006    -0.033679956187    12.000000000000
         C            0.684374689521    -1.089387854994    -0.187633956187    12.000000000000
         C            2.037688689521    -0.373123854994     0.013173043813    12.000000000000
         C           -1.343233310479     0.606194145006    -0.251661956187    12.000000000000
         C           -2.463184310479    -0.378889854994     0.075597043813    12.000000000000
         H           -0.090055310479     0.127759145006     1.435909043813     1.007825032230
         H            1.597845689521     1.781035145006     0.621169043813     1.007825032230
         H            1.202887689521     1.345686145006    -1.059893956187     1.007825032230
         H            0.467101689521    -1.228289854994    -1.253433956187     1.007825032230
         H            0.511441689521    -2.035839854994     0.333628043813     1.007825032230
         H            2.829704689521    -0.544702854994    -0.721626956187     1.007825032230
         H            2.439759689521    -0.562970854994     1.013089043813     1.007825032230
         H           -1.607244310479     1.608038145006     0.111900043813     1.007825032230
         H           -1.230407310479     0.690316145006    -1.340746956187     1.007825032230
         H           -2.604118310479    -0.462192854994     1.157859043813     1.007825032230
         H           -2.227782310479    -1.375853854994    -0.309299956187     1.007825032230
         H           -3.414405310479    -0.065023854994    -0.364458956187     1.007825032230

  Basis Set: AUG-CC-PVTZ
    Blend: AUG-CC-PVTZ
  Basis Set: (AUG-CC-PVTZ AUX)
    Blend: AUG-CC-PVTZ-JKFIT
	 Reference Energy          =    -234.2302383375995873 [Eh]
	 Singles Energy            =      -0.0000000000000000 [Eh]
	 Same-Spin Energy          =      -0.2530211305671635 [Eh]
	 Opposite-Spin Energy      =      -0.9230642324356496 [Eh]
	 Correlation Energy        =      -1.1760853630028132 [Eh]
	 Total Energy              =    -235.4063237006023996 [Eh]

	 ================> DF-SCS-MP2 Energies <==================
	-----------------------------------------------------------
	 SCS Same-Spin Scale       =       0.3333333333333333 [-]
	 SCS Opposite-Spin Scale   =       1.2000000000000000 [-]
	 SCS Same-Spin Energy      =      -0.0843403768557212 [Eh]
	 SCS Opposite-Spin Energy  =      -1.1076770789227794 [Eh]
	 SCS Correlation Energy    =      -1.1920174557785006 [Eh]
	 SCS Total Energy          =    -235.4222557933780990 [Eh]
	-----------------------------------------------------------

  Dipole Moment: [D]
     X:    -0.1036      Y:     0.0483      Z:     0.0668     Total:     0.1324

*** Psi4 exiting successfully. Buy a developer a beer!
