                               Psi4 1.3.2 release

  ==> Input File <==

--------------------------------------------------------------------------
#psi4
#
memory 32 gb

molecule  {
0 1
  C        0.0136423     0.2599457     0.3801646
  C        1.2941630     0.9919190    -0.0205040
  C        0.7065190    -1.0643830    -0.1744580
  C        2.0598330    -0.3481190     0.0263490
  C       -1.3210890     0.6311990    -0.2384860
  C       -2.4410400    -0.3538850     0.0887730
  H       -0.0679110     0.1527640     1.4490850
  H        1.6199900     1.8060400     0.6343450
  H        1.2250320     1.3706910    -1.0467180
  H        0.4892460    -1.2032850    -1.2402580
  H        0.5335860    -2.0108350     0.3468040
  H        2.8518490    -0.5196980    -0.7084510
  H        2.4619040    -0.5379660     1.0262650
  H       -1.5851000     1.6330430     0.1250760
  H       -1.2082630     0.7153210    -1.3275710
  H       -2.5819740    -0.4371880     1.1710350
  H       -2.2056380    -1.3508490    -0.2961240
  H       -3.3922610    -0.0400190    -0.3512830
units angstrom
no_reorient  #important for SAPT in psi4, default
symmetry c1  #important for SAPT in psi4, default
}

set PROPERTIES_ORIGIN ["COM"]
properties('MP2/aug-cc-pvtz', properties = ['dipole'])
--------------------------------------------------------------------------

    Molecular point group: c1
  Charge       = 0
  Multiplicity = 1
  Basis Set: AUG-CC-PVTZ
    Blend: AUG-CC-PVTZ
  Basis Set: (AUG-CC-PVTZ AUX)
    Blend: AUG-CC-PVTZ-JKFIT

    Orbital Energies [Eh]
    ---------------------

    Doubly Occupied:

       1A    -11.218777     2A    -11.215558     3A    -11.214529
       4A    -11.214085     5A    -11.214017     6A    -11.210205
       7A     -1.130983     8A     -1.026599     9A     -0.902142
      10A     -0.884038    11A     -0.808390    12A     -0.746439
      13A     -0.647106    14A     -0.623779    15A     -0.600520
      16A     -0.554568    17A     -0.538251    18A     -0.530179
      19A     -0.503836    20A     -0.478912    21A     -0.462157
      22A     -0.449828    23A     -0.429196    24A     -0.407523

  @DF-RHF Final Energy:  -234.24661127971245

   => Energetics <=

    Nuclear Repulsion Energy =            246.9823736433182830
    One-Electron Energy =                -804.4347355487940376
    Two-Electron Energy =                 323.2057506257633008
    Total Energy =                       -234.2466112797124538
  Basis Set: (AUG-CC-PVTZ AUX)
    Blend: AUG-CC-PVTZ-RI
    Molecular point group: c1

    Geometry (in Angstrom), charge = 0, multiplicity = 1:

       Center              X                  Y                   Z               Mass
    ------------   -----------------  -----------------  -----------------  -----------------
         C           -0.008597703508     0.248353451566     0.373950547082    12.000000000000
         C            1.271922996492     0.980326751566    -0.026718052918    12.000000000000
         C            0.684278996492    -1.075975248434    -0.180672052918    12.000000000000
         C            2.037592996492    -0.359711248434     0.020134947082    12.000000000000
         C           -1.343329003508     0.619606751566    -0.244700052918    12.000000000000
         C           -2.463280003508    -0.365477248434     0.082558947082    12.000000000000
         H           -0.090151003508     0.141171751566     1.442870947082     1.007825032230
         H            1.597749996492     1.794447751566     0.628130947082     1.007825032230
         H            1.202791996492     1.359098751566    -1.052932052918     1.007825032230
         H            0.467005996492    -1.214877248434    -1.246472052918     1.007825032230
         H            0.511345996492    -2.022427248434     0.340589947082     1.007825032230
         H            2.829608996492    -0.531290248434    -0.714665052918     1.007825032230
         H            2.439663996492    -0.549558248434     1.020050947082     1.007825032230
         H           -1.607340003508     1.621450751566     0.118861947082     1.007825032230
         H           -1.230503003508     0.703728751566    -1.333785052918     1.007825032230
         H           -2.604214003508    -0.448780248434     1.164820947082     1.007825032230
         H           -2.227878003508    -1.362441248434    -0.302338052918     1.007825032230
         H           -3.414501003508    -0.051611248434    -0.357497052918     1.007825032230

  Basis Set: AUG-CC-PVTZ
    Blend: AUG-CC-PVTZ
  Basis Set: (AUG-CC-PVTZ AUX)
    Blend: AUG-CC-PVTZ-JKFIT
	 Reference Energy          =    -234.2466112797124538 [Eh]
	 Singles Energy            =      -0.0000000000000000 [Eh]
	 Same-Spin Energy          =      -0.2525489919996041 [Eh]
	 Opposite-Spin Energy      =      -0.9216079657962001 [Eh]
	 Correlation Energy        =      -1.1741569577958042 [Eh]
	 Total Energy              =    -235.4207682375082697 [Eh]

	 ================> DF-SCS-MP2 Energies <==================
	-----------------------------------------------------------
	 SCS Same-Spin Scale       =       0.3333333333333333 [-]
	 SCS Opposite-Spin Scale   =       1.2000000000000000 [-]
	 SCS Same-Spin Energy      =      -0.0841829973332014 [Eh]
	 SCS Opposite-Spin Energy  =      -1.1059295589554401 [Eh]
	 SCS Correlation Energy    =      -1.1901125562886414 [Eh]
	 SCS Total Energy          =    -235.4367238360011072 [Eh]
	-----------------------------------------------------------

  Dipole Moment: [D]
     X:    -0.0759      Y:     0.0477      Z:     0.0636     Total:     0.1099

*** Psi4 exiting successfully. Buy a developer a beer!
