                               Psi4 1.3.2 release

  ==> Input File <==

--------------------------------------------------------------------------
#psi4
#
memory 32 gb

molecule  {
0 1
  C        0.0078101     0.1677611     0.3283628
  C        1.2941630     0.9919190    -0.0205040
  C        0.7065190    -1.0643830    -0.1744580
  C        2.0598330    -0.3481190     0.0263490
  C       -1.3210890     0.6311990    -0.2384860
  C       -2.4410400    -0.3538850     0.0887730
  H       -0.0679110     0.1527640     1.4490850
  H        1.6199900     1.8060400     0.6343450
  H        1.2250320     1.3706910    -1.0467180
  H        0.4892460    -1.2032850    -1.2402580
  H        0.5335860    -2.0108350     0.3468040
  H        2.8518490    -0.5196980    -0.7084510
  H        2.4619040    -0.5379660     1.0262650
  H       -1.5851000     1.6330430     0.1250760
  H       -1.2082630     0.7153210    -1.3275710
  H       -2.5819740    -0.4371880     1.1710350
  H       -2.2056380    -1.3508490    -0.2961240
  H       -3.3922610    -0.0400190    -0.3512830
units angstrom
no_reorient  #important for SAPT in psi4, default
symmetry c1  #important for SAPT in psi4, default
}

set PROPERTIES_ORIGIN ["COM"]
properties('MP2/aug-cc-pvtz', properties = ['dipole'])
--------------------------------------------------------------------------

    Molecular point group: c1
  Charge       = 0
  Multiplicity = 1
  Basis Set: AUG-CC-PVTZ
    Blend: AUG-CC-PVTZ
  Basis Set: (AUG-CC-PVTZ AUX)
    Blend: AUG-CC-PVTZ-JKFIT

    Orbital Energies [Eh]
    ---------------------

    Doubly Occupied:

       1A    -11.220336     2A    -11.216128     3A    -11.214267
       4A    -11.213599     5A    -11.213169     6A    -11.209316
       7A     -1.137535     8A     -1.027610     9A     -0.895981
      10A     -0.892506    11A     -0.808640    12A     -0.740375
      13A     -0.650589    14A     -0.627532    15A     -0.602085
      16A     -0.551316    17A     -0.532293    18A     -0.530224
      19A     -0.508979    20A     -0.477495    21A     -0.464330
      22A     -0.439964    23A     -0.435821    24A     -0.412061

  @DF-RHF Final Energy:  -234.24594707880647

   => Energetics <=

    Nuclear Repulsion Energy =            247.5757282123289826
    One-Electron Energy =                -805.5990456220794158
    Two-Electron Energy =                 323.7773703309439952
    Total Energy =                       -234.2459470788064664
  Basis Set: (AUG-CC-PVTZ AUX)
    Blend: AUG-CC-PVTZ-RI
    Molecular point group: c1

    Geometry (in Angstrom), charge = 0, multiplicity = 1:

       Center              X                  Y                   Z               Mass
    ------------   -----------------  -----------------  -----------------  -----------------
         C           -0.013597662409     0.169323375199     0.329540740997    12.000000000000
         C            1.272755237591     0.993481275199    -0.019326059003    12.000000000000
         C            0.685111237591    -1.062820724801    -0.173280059003    12.000000000000
         C            2.038425237591    -0.346556724801     0.027526940997    12.000000000000
         C           -1.342496762409     0.632761275199    -0.237308059003    12.000000000000
         C           -2.462447762409    -0.352322724801     0.089950940997    12.000000000000
         H           -0.089318762409     0.154326275199     1.450262940997     1.007825032230
         H            1.598582237591     1.807602275199     0.635522940997     1.007825032230
         H            1.203624237591     1.372253275199    -1.045540059003     1.007825032230
         H            0.467838237591    -1.201722724801    -1.239080059003     1.007825032230
         H            0.512178237591    -2.009272724801     0.347981940997     1.007825032230
         H            2.830441237591    -0.518135724801    -0.707273059003     1.007825032230
         H            2.440496237591    -0.536403724801     1.027442940997     1.007825032230
         H           -1.606507762409     1.634605275199     0.126253940997     1.007825032230
         H           -1.229670762409     0.716883275199    -1.326393059003     1.007825032230
         H           -2.603381762409    -0.435625724801     1.172212940997     1.007825032230
         H           -2.227045762409    -1.349286724801    -0.294946059003     1.007825032230
         H           -3.413668762409    -0.038456724801    -0.350105059003     1.007825032230

  Basis Set: AUG-CC-PVTZ
    Blend: AUG-CC-PVTZ
  Basis Set: (AUG-CC-PVTZ AUX)
    Blend: AUG-CC-PVTZ-JKFIT
	 Reference Energy          =    -234.2459470788064664 [Eh]
	 Singles Energy            =      -0.0000000000000000 [Eh]
	 Same-Spin Energy          =      -0.2528382505217002 [Eh]
	 Opposite-Spin Energy      =      -0.9217555587799862 [Eh]
	 Correlation Energy        =      -1.1745938093016863 [Eh]
	 Total Energy              =    -235.4205408881081496 [Eh]

	 ================> DF-SCS-MP2 Energies <==================
	-----------------------------------------------------------
	 SCS Same-Spin Scale       =       0.3333333333333333 [-]
	 SCS Opposite-Spin Scale   =       1.2000000000000000 [-]
	 SCS Same-Spin Energy      =      -0.0842794168405667 [Eh]
	 SCS Opposite-Spin Energy  =      -1.1061066705359834 [Eh]
	 SCS Correlation Energy    =      -1.1903860873765502 [Eh]
	 SCS Total Energy          =    -235.4363331661830046 [Eh]
	-----------------------------------------------------------

  Dipole Moment: [D]
     X:    -0.0545      Y:     0.0492      Z:     0.0449     Total:     0.0860

*** Psi4 exiting successfully. Buy a developer a beer!
