                               Psi4 1.3.2 release

  ==> Input File <==

--------------------------------------------------------------------------
#psi4
#
memory 32 gb

molecule  {
0 1
  C        0.0115380     0.2135990     0.3546250
  C        1.2329695     1.0551367    -0.0830393
  C        0.7065190    -1.0643830    -0.1744580
  C        2.0598330    -0.3481190     0.0263490
  C       -1.3210890     0.6311990    -0.2384860
  C       -2.4410400    -0.3538850     0.0887730
  H       -0.0679110     0.1527640     1.4490850
  H        1.6199900     1.8060400     0.6343450
  H        1.2250320     1.3706910    -1.0467180
  H        0.4892460    -1.2032850    -1.2402580
  H        0.5335860    -2.0108350     0.3468040
  H        2.8518490    -0.5196980    -0.7084510
  H        2.4619040    -0.5379660     1.0262650
  H       -1.5851000     1.6330430     0.1250760
  H       -1.2082630     0.7153210    -1.3275710
  H       -2.5819740    -0.4371880     1.1710350
  H       -2.2056380    -1.3508490    -0.2961240
  H       -3.3922610    -0.0400190    -0.3512830
units angstrom
no_reorient  #important for SAPT in psi4, default
symmetry c1  #important for SAPT in psi4, default
}

set PROPERTIES_ORIGIN ["COM"]
properties('MP2/aug-cc-pvtz', properties = ['dipole'])
--------------------------------------------------------------------------

    Molecular point group: c1
  Charge       = 0
  Multiplicity = 1
  Basis Set: AUG-CC-PVTZ
    Blend: AUG-CC-PVTZ
  Basis Set: (AUG-CC-PVTZ AUX)
    Blend: AUG-CC-PVTZ-JKFIT

    Orbital Energies [Eh]
    ---------------------

    Doubly Occupied:

       1A    -11.221192     2A    -11.219218     3A    -11.213775
       4A    -11.212553     5A    -11.212020     6A    -11.208703
       7A     -1.126782     8A     -1.023448     9A     -0.902885
      10A     -0.885014    11A     -0.807322    12A     -0.751030
      13A     -0.643902    14A     -0.623661    15A     -0.599485
      16A     -0.550666    17A     -0.547802    18A     -0.534863
      19A     -0.505589    20A     -0.479920    21A     -0.456307
      22A     -0.449696    23A     -0.426804    24A     -0.402735

  @DF-RHF Final Energy:  -234.23814205943046

   => Energetics <=

    Nuclear Repulsion Energy =            246.7637755827534534
    One-Electron Energy =                -803.9930934599798320
    Two-Electron Energy =                 322.9911758177958632
    Total Energy =                       -234.2381420594304586
  Basis Set: (AUG-CC-PVTZ AUX)
    Blend: AUG-CC-PVTZ-RI
    Molecular point group: c1

    Geometry (in Angstrom), charge = 0, multiplicity = 1:

       Center              X                  Y                   Z               Mass
    ------------   -----------------  -----------------  -----------------  -----------------
         C           -0.001669557676     0.199599299907     0.360979026278    12.000000000000
         C            1.219761942324     1.041136999907    -0.076685273722    12.000000000000
         C            0.693311442324    -1.078382700093    -0.168103973722    12.000000000000
         C            2.046625442324    -0.362118700093     0.032703026278    12.000000000000
         C           -1.334296557676     0.617199299907    -0.232131973722    12.000000000000
         C           -2.454247557676    -0.367884700093     0.095127026278    12.000000000000
         H           -0.081118557676     0.138764299907     1.455439026278     1.007825032230
         H            1.606782442324     1.792040299907     0.640699026278     1.007825032230
         H            1.211824442324     1.356691299907    -1.040363973722     1.007825032230
         H            0.476038442324    -1.217284700093    -1.233903973722     1.007825032230
         H            0.520378442324    -2.024834700093     0.353158026278     1.007825032230
         H            2.838641442324    -0.533697700093    -0.702096973722     1.007825032230
         H            2.448696442324    -0.551965700093     1.032619026278     1.007825032230
         H           -1.598307557676     1.619043299907     0.131430026278     1.007825032230
         H           -1.221470557676     0.701321299907    -1.321216973722     1.007825032230
         H           -2.595181557676    -0.451187700093     1.177389026278     1.007825032230
         H           -2.218845557676    -1.364848700093    -0.289769973722     1.007825032230
         H           -3.405468557676    -0.054018700093    -0.344928973722     1.007825032230

  Basis Set: AUG-CC-PVTZ
    Blend: AUG-CC-PVTZ
  Basis Set: (AUG-CC-PVTZ AUX)
    Blend: AUG-CC-PVTZ-JKFIT
	 Reference Energy          =    -234.2381420594304586 [Eh]
	 Singles Energy            =      -0.0000000000000000 [Eh]
	 Same-Spin Energy          =      -0.2525118230541599 [Eh]
	 Opposite-Spin Energy      =      -0.9221250130083540 [Eh]
	 Correlation Energy        =      -1.1746368360625139 [Eh]
	 Total Energy              =    -235.4127788954929770 [Eh]

	 ================> DF-SCS-MP2 Energies <==================
	-----------------------------------------------------------
	 SCS Same-Spin Scale       =       0.3333333333333333 [-]
	 SCS Opposite-Spin Scale   =       1.2000000000000000 [-]
	 SCS Same-Spin Energy      =      -0.0841706076847200 [Eh]
	 SCS Opposite-Spin Energy  =      -1.1065500156100248 [Eh]
	 SCS Correlation Energy    =      -1.1907206232947447 [Eh]
	 SCS Total Energy          =    -235.4288626827251960 [Eh]
	-----------------------------------------------------------

  Dipole Moment: [D]
     X:    -0.0379      Y:     0.0355      Z:     0.0366     Total:     0.0635

*** Psi4 exiting successfully. Buy a developer a beer!
