                               Psi4 1.3.2 release

  ==> Input File <==

--------------------------------------------------------------------------
#psi4
#
memory 32 gb

molecule  {
0 1
  C        0.0227192     0.2351739     0.3441020
  C        1.2941630     0.9919190    -0.0205040
  C        0.7065190    -1.0643830    -0.1744580
  C        2.0598330    -0.3481190     0.0263490
  C       -1.3210890     0.6311990    -0.2384860
  C       -2.4410400    -0.3538850     0.0887730
  H       -0.0679110     0.1527640     1.4490850
  H        1.6199900     1.8060400     0.6343450
  H        1.2250320     1.3706910    -1.0467180
  H        0.4892460    -1.2032850    -1.2402580
  H        0.5335860    -2.0108350     0.3468040
  H        2.8518490    -0.5196980    -0.7084510
  H        2.4619040    -0.5379660     1.0262650
  H       -1.5851000     1.6330430     0.1250760
  H       -1.2082630     0.7153210    -1.3275710
  H       -2.5819740    -0.4371880     1.1710350
  H       -2.2056380    -1.3508490    -0.2961240
  H       -3.3922610    -0.0400190    -0.3512830
units angstrom
no_reorient  #important for SAPT in psi4, default
symmetry c1  #important for SAPT in psi4, default
}

set PROPERTIES_ORIGIN ["COM"]
properties('MP2/aug-cc-pvtz', properties = ['dipole'])
--------------------------------------------------------------------------

    Molecular point group: c1
  Charge       = 0
  Multiplicity = 1
  Basis Set: AUG-CC-PVTZ
    Blend: AUG-CC-PVTZ
  Basis Set: (AUG-CC-PVTZ AUX)
    Blend: AUG-CC-PVTZ-JKFIT

    Orbital Energies [Eh]
    ---------------------

    Doubly Occupied:

       1A    -11.219789     2A    -11.215954     3A    -11.214043
       4A    -11.213818     5A    -11.213311     6A    -11.210267
       7A     -1.135738     8A     -1.026977     9A     -0.900999
      10A     -0.887230    11A     -0.809017    12A     -0.741645
      13A     -0.649791    14A     -0.625330    15A     -0.601188
      16A     -0.553457    17A     -0.535814    18A     -0.529841
      19A     -0.505871    20A     -0.477505    21A     -0.463008
      22A     -0.442499    23A     -0.430213    24A     -0.416745

  @DF-RHF Final Energy:  -234.24796136235847

   => Energetics <=

    Nuclear Repulsion Energy =            247.3582858145530281
    One-Electron Energy =                -805.1723962912402612
    Two-Electron Energy =                 323.5661491143287662
    Total Energy =                       -234.2479613623584669
  Basis Set: (AUG-CC-PVTZ AUX)
    Blend: AUG-CC-PVTZ-RI
    Molecular point group: c1

    Geometry (in Angstrom), charge = 0, multiplicity = 1:

       Center              X                  Y                   Z               Mass
    ------------   -----------------  -----------------  -----------------  -----------------
         C           -0.000816055595     0.227116528633     0.343033994512    12.000000000000
         C            1.270627744405     0.983861628633    -0.021572005488    12.000000000000
         C            0.682983744405    -1.072440371367    -0.175526005488    12.000000000000
         C            2.036297744405    -0.356176371367     0.025280994512    12.000000000000
         C           -1.344624255595     0.623141628633    -0.239554005488    12.000000000000
         C           -2.464575255595    -0.361942371367     0.087704994512    12.000000000000
         H           -0.091446255595     0.144706628633     1.448016994512     1.007825032230
         H            1.596454744405     1.797982628633     0.633276994512     1.007825032230
         H            1.201496744405     1.362633628633    -1.047786005488     1.007825032230
         H            0.465710744405    -1.211342371367    -1.241326005488     1.007825032230
         H            0.510050744405    -2.018892371367     0.345735994512     1.007825032230
         H            2.828313744405    -0.527755371367    -0.709519005488     1.007825032230
         H            2.438368744405    -0.546023371367     1.025196994512     1.007825032230
         H           -1.608635255595     1.624985628633     0.124007994512     1.007825032230
         H           -1.231798255595     0.707263628633    -1.328639005488     1.007825032230
         H           -2.605509255595    -0.445245371367     1.169966994512     1.007825032230
         H           -2.229173255595    -1.358906371367    -0.297192005488     1.007825032230
         H           -3.415796255595    -0.048076371367    -0.352351005488     1.007825032230

  Basis Set: AUG-CC-PVTZ
    Blend: AUG-CC-PVTZ
  Basis Set: (AUG-CC-PVTZ AUX)
    Blend: AUG-CC-PVTZ-JKFIT
	 Reference Energy          =    -234.2479613623584669 [Eh]
	 Singles Energy            =      -0.0000000000000000 [Eh]
	 Same-Spin Energy          =      -0.2526871830490045 [Eh]
	 Opposite-Spin Energy      =      -0.9215478428891001 [Eh]
	 Correlation Energy        =      -1.1742350259381045 [Eh]
	 Total Energy              =    -235.4221963882965838 [Eh]

	 ================> DF-SCS-MP2 Energies <==================
	-----------------------------------------------------------
	 SCS Same-Spin Scale       =       0.3333333333333333 [-]
	 SCS Opposite-Spin Scale   =       1.2000000000000000 [-]
	 SCS Same-Spin Energy      =      -0.0842290610163348 [Eh]
	 SCS Opposite-Spin Energy  =      -1.1058574114669200 [Eh]
	 SCS Correlation Energy    =      -1.1900864724832547 [Eh]
	 SCS Total Energy          =    -235.4380478348417114 [Eh]
	-----------------------------------------------------------

  Dipole Moment: [D]
     X:    -0.0642      Y:     0.0444      Z:     0.0524     Total:     0.0940

*** Psi4 exiting successfully. Buy a developer a beer!
