                               Psi4 1.3.2 release

  ==> Input File <==

--------------------------------------------------------------------------
#psi4
#
memory 32 gb

molecule  {
0 1
  C        0.0115380     0.2135990     0.3546250
  C        1.3084960     0.9755096    -0.0045725
  C        0.7065190    -1.0643830    -0.1744580
  C        2.0598330    -0.3481190     0.0263490
  C       -1.3210890     0.6311990    -0.2384860
  C       -2.4410400    -0.3538850     0.0887730
  H       -0.0679110     0.1527640     1.4490850
  H        1.6199900     1.8060400     0.6343450
  H        1.2250320     1.3706910    -1.0467180
  H        0.4892460    -1.2032850    -1.2402580
  H        0.5335860    -2.0108350     0.3468040
  H        2.8518490    -0.5196980    -0.7084510
  H        2.4619040    -0.5379660     1.0262650
  H       -1.5851000     1.6330430     0.1250760
  H       -1.2082630     0.7153210    -1.3275710
  H       -2.5819740    -0.4371880     1.1710350
  H       -2.2056380    -1.3508490    -0.2961240
  H       -3.3922610    -0.0400190    -0.3512830
units angstrom
no_reorient  #important for SAPT in psi4, default
symmetry c1  #important for SAPT in psi4, default
}

set PROPERTIES_ORIGIN ["COM"]
properties('MP2/aug-cc-pvtz', properties = ['dipole'])
--------------------------------------------------------------------------

    Molecular point group: c1
  Charge       = 0
  Multiplicity = 1
  Basis Set: AUG-CC-PVTZ
    Blend: AUG-CC-PVTZ
  Basis Set: (AUG-CC-PVTZ AUX)
    Blend: AUG-CC-PVTZ-JKFIT

    Orbital Energies [Eh]
    ---------------------

    Doubly Occupied:

       1A    -11.218841     2A    -11.215128     3A    -11.214517
       4A    -11.214357     5A    -11.214016     6A    -11.209997
       7A     -1.136403     8A     -1.028002     9A     -0.898737
      10A     -0.888565    11A     -0.808860    12A     -0.741687
      13A     -0.650225    14A     -0.626166    15A     -0.601788
      16A     -0.554084    17A     -0.533805    18A     -0.527274
      19A     -0.506361    20A     -0.477282    21A     -0.466411
      22A     -0.442364    23A     -0.425695    24A     -0.420129

  @DF-RHF Final Energy:  -234.24780310413541

   => Energetics <=

    Nuclear Repulsion Energy =            247.4327335263085388
    One-Electron Energy =                -805.3196919665050473
    Two-Electron Energy =                 323.6391553360610942
    Total Energy =                       -234.2478031041354143
  Basis Set: (AUG-CC-PVTZ AUX)
    Blend: AUG-CC-PVTZ-RI
    Molecular point group: c1

    Geometry (in Angstrom), charge = 0, multiplicity = 1:

       Center              X                  Y                   Z               Mass
    ------------   -----------------  -----------------  -----------------  -----------------
         C           -0.012447009974     0.210961898093     0.349782000148    12.000000000000
         C            1.284510990026     0.972872498093    -0.009415499852    12.000000000000
         C            0.682533990026    -1.067020101907    -0.179300999852    12.000000000000
         C            2.035847990026    -0.350756101907     0.021506000148    12.000000000000
         C           -1.345074009974     0.628561898093    -0.243328999852    12.000000000000
         C           -2.465025009974    -0.356522101907     0.083930000148    12.000000000000
         H           -0.091896009974     0.150126898093     1.444242000148     1.007825032230
         H            1.596004990026     1.803402898093     0.629502000148     1.007825032230
         H            1.201046990026     1.368053898093    -1.051560999852     1.007825032230
         H            0.465260990026    -1.205922101907    -1.245100999852     1.007825032230
         H            0.509600990026    -2.013472101907     0.341961000148     1.007825032230
         H            2.827863990026    -0.522335101907    -0.713293999852     1.007825032230
         H            2.437918990026    -0.540603101907     1.021422000148     1.007825032230
         H           -1.609085009974     1.630405898093     0.120233000148     1.007825032230
         H           -1.232248009974     0.712683898093    -1.332413999852     1.007825032230
         H           -2.605959009974    -0.439825101907     1.166192000148     1.007825032230
         H           -2.229623009974    -1.353486101907    -0.300966999852     1.007825032230
         H           -3.416246009974    -0.042656101907    -0.356125999852     1.007825032230

  Basis Set: AUG-CC-PVTZ
    Blend: AUG-CC-PVTZ
  Basis Set: (AUG-CC-PVTZ AUX)
    Blend: AUG-CC-PVTZ-JKFIT
	 Reference Energy          =    -234.2478031041354143 [Eh]
	 Singles Energy            =      -0.0000000000000000 [Eh]
	 Same-Spin Energy          =      -0.2527224729569767 [Eh]
	 Opposite-Spin Energy      =      -0.9215433419348109 [Eh]
	 Correlation Energy        =      -1.1742658148917875 [Eh]
	 Total Energy              =    -235.4220689190271969 [Eh]

	 ================> DF-SCS-MP2 Energies <==================
	-----------------------------------------------------------
	 SCS Same-Spin Scale       =       0.3333333333333333 [-]
	 SCS Opposite-Spin Scale   =       1.2000000000000000 [-]
	 SCS Same-Spin Energy      =      -0.0842408243189922 [Eh]
	 SCS Opposite-Spin Energy  =      -1.1058520103217730 [Eh]
	 SCS Correlation Energy    =      -1.1900928346407653 [Eh]
	 SCS Total Energy          =    -235.4378959387761938 [Eh]
	-----------------------------------------------------------

  Dipole Moment: [D]
     X:    -0.0707      Y:     0.0442      Z:     0.0647     Total:     0.1056

*** Psi4 exiting successfully. Buy a developer a beer!
