                               Psi4 1.3.2 release

  ==> Input File <==

--------------------------------------------------------------------------
#psi4
#
memory 32 gb

molecule  {
0 1
  C        0.0141203     0.3067446     0.4049505
  C        1.2941630     0.9919190    -0.0205040
  C        0.7065190    -1.0643830    -0.1744580
  C        2.0598330    -0.3481190     0.0263490
  C       -1.3210890     0.6311990    -0.2384860
  C       -2.4410400    -0.3538850     0.0887730
  H       -0.0679110     0.1527640     1.4490850
  H        1.6199900     1.8060400     0.6343450
  H        1.2250320     1.3706910    -1.0467180
  H        0.4892460    -1.2032850    -1.2402580
  H        0.5335860    -2.0108350     0.3468040
  H        2.8518490    -0.5196980    -0.7084510
  H        2.4619040    -0.5379660     1.0262650
  H       -1.5851000     1.6330430     0.1250760
  H       -1.2082630     0.7153210    -1.3275710
  H       -2.5819740    -0.4371880     1.1710350
  H       -2.2056380    -1.3508490    -0.2961240
  H       -3.3922610    -0.0400190    -0.3512830
units angstrom
no_reorient  #important for SAPT in psi4, default
symmetry c1  #important for SAPT in psi4, default
}

set PROPERTIES_ORIGIN ["COM"]
properties('MP2/aug-cc-pvtz', properties = ['dipole'])
--------------------------------------------------------------------------

    Molecular point group: c1
  Charge       = 0
  Multiplicity = 1
  Basis Set: AUG-CC-PVTZ
    Blend: AUG-CC-PVTZ
  Basis Set: (AUG-CC-PVTZ AUX)
    Blend: AUG-CC-PVTZ-JKFIT

    Orbital Energies [Eh]
    ---------------------

    Doubly Occupied:

       1A    -11.219263     2A    -11.215510     3A    -11.214957
       4A    -11.214609     5A    -11.214548     6A    -11.210763
       7A     -1.128210     8A     -1.026381     9A     -0.905345
      10A     -0.880762    11A     -0.808404    12A     -0.749316
      13A     -0.645120    14A     -0.622629    15A     -0.599643
      16A     -0.556153    17A     -0.542481    18A     -0.530077
      19A     -0.501568    20A     -0.480258    21A     -0.464034
      22A     -0.452892    23A     -0.434088    24A     -0.392101

  @DF-RHF Final Energy:  -234.24024688811605

   => Energetics <=

    Nuclear Repulsion Energy =            246.6568004898122979
    One-Electron Energy =                -803.7758680009510499
    Two-Electron Energy =                 322.8788206230227047
    Total Energy =                       -234.2402468881160189
  Basis Set: (AUG-CC-PVTZ AUX)
    Blend: AUG-CC-PVTZ-RI
    Molecular point group: c1

    Geometry (in Angstrom), charge = 0, multiplicity = 1:

       Center              X                  Y                   Z               Mass
    ------------   -----------------  -----------------  -----------------  -----------------
         C           -0.008187912973     0.288474259607     0.395199557978    12.000000000000
         C            1.271854787027     0.973648659607    -0.030254942022    12.000000000000
         C            0.684210787027    -1.082653340393    -0.184208942022    12.000000000000
         C            2.037524787027    -0.366389340393     0.016598057978    12.000000000000
         C           -1.343397212973     0.612928659607    -0.248236942022    12.000000000000
         C           -2.463348212973    -0.372155340393     0.079022057978    12.000000000000
         H           -0.090219212973     0.134493659607     1.439334057978     1.007825032230
         H            1.597681787027     1.787769659607     0.624594057978     1.007825032230
         H            1.202723787027     1.352420659607    -1.056468942022     1.007825032230
         H            0.466937787027    -1.221555340393    -1.250008942022     1.007825032230
         H            0.511277787027    -2.029105340393     0.337053057978     1.007825032230
         H            2.829540787027    -0.537968340393    -0.718201942022     1.007825032230
         H            2.439595787027    -0.556236340393     1.016514057978     1.007825032230
         H           -1.607408212973     1.614772659607     0.115325057978     1.007825032230
         H           -1.230571212973     0.697050659607    -1.337321942022     1.007825032230
         H           -2.604282212973    -0.455458340393     1.161284057978     1.007825032230
         H           -2.227946212973    -1.369119340393    -0.305874942022     1.007825032230
         H           -3.414569212973    -0.058289340393    -0.361033942022     1.007825032230

  Basis Set: AUG-CC-PVTZ
    Blend: AUG-CC-PVTZ
  Basis Set: (AUG-CC-PVTZ AUX)
    Blend: AUG-CC-PVTZ-JKFIT
	 Reference Energy          =    -234.2402468881160473 [Eh]
	 Singles Energy            =      -0.0000000000000000 [Eh]
	 Same-Spin Energy          =      -0.2526934936177521 [Eh]
	 Opposite-Spin Energy      =      -0.9221390996572310 [Eh]
	 Correlation Energy        =      -1.1748325932749830 [Eh]
	 Total Energy              =    -235.4150794813910181 [Eh]

	 ================> DF-SCS-MP2 Energies <==================
	-----------------------------------------------------------
	 SCS Same-Spin Scale       =       0.3333333333333333 [-]
	 SCS Opposite-Spin Scale   =       1.2000000000000000 [-]
	 SCS Same-Spin Energy      =      -0.0842311645392507 [Eh]
	 SCS Opposite-Spin Energy  =      -1.1065669195886771 [Eh]
	 SCS Correlation Energy    =      -1.1907980841279278 [Eh]
	 SCS Total Energy          =    -235.4310449722439671 [Eh]
	-----------------------------------------------------------

  Dipole Moment: [D]
     X:    -0.0896      Y:     0.0482      Z:     0.0671     Total:     0.1218

*** Psi4 exiting successfully. Buy a developer a beer!
