                               Psi4 1.3.2 release

  ==> Input File <==

--------------------------------------------------------------------------
#psi4
#
memory 32 gb

molecule  {
0 1
  C        0.0115380     0.2135990     0.3546250
  C        1.2941630     0.9919190    -0.0205040
  C        0.7065190    -1.0643830    -0.1744580
  C        2.0598330    -0.3481190     0.0263490
  C       -1.2510589     0.6224145    -0.3807552
  C       -2.4410400    -0.3538850     0.0887730
  H       -0.0679110     0.1527640     1.4490850
  H        1.6199900     1.8060400     0.6343450
  H        1.2250320     1.3706910    -1.0467180
  H        0.4892460    -1.2032850    -1.2402580
  H        0.5335860    -2.0108350     0.3468040
  H        2.8518490    -0.5196980    -0.7084510
  H        2.4619040    -0.5379660     1.0262650
  H       -1.5851000     1.6330430     0.1250760
  H       -1.2082630     0.7153210    -1.3275710
  H       -2.5819740    -0.4371880     1.1710350
  H       -2.2056380    -1.3508490    -0.2961240
  H       -3.3922610    -0.0400190    -0.3512830
units angstrom
no_reorient  #important for SAPT in psi4, default
symmetry c1  #important for SAPT in psi4, default
}

set PROPERTIES_ORIGIN ["COM"]
properties('MP2/aug-cc-pvtz', properties = ['dipole'])
--------------------------------------------------------------------------

    Molecular point group: c1
  Charge       = 0
  Multiplicity = 1
  Basis Set: AUG-CC-PVTZ
    Blend: AUG-CC-PVTZ
  Basis Set: (AUG-CC-PVTZ AUX)
    Blend: AUG-CC-PVTZ-JKFIT

    Orbital Energies [Eh]
    ---------------------

    Doubly Occupied:

       1A    -11.220910     2A    -11.215158     3A    -11.214129
       4A    -11.212787     5A    -11.212584     6A    -11.212085
       7A     -1.135022     8A     -1.017647     9A     -0.897388
      10A     -0.887213    11A     -0.819995    12A     -0.748785
      13A     -0.648741    14A     -0.631721    15A     -0.593164
      16A     -0.547318    17A     -0.533582    18A     -0.528532
      19A     -0.513811    20A     -0.499534    21A     -0.452607
      22A     -0.450709    23A     -0.413723    24A     -0.406587

  @DF-RHF Final Energy:  -234.21803746330113

   => Energetics <=

    Nuclear Repulsion Energy =            247.1985134776191160
    One-Electron Energy =                -804.8056398249233325
    Two-Electron Energy =                 323.3890888840030584
    Total Energy =                       -234.2180374633011297
  Basis Set: (AUG-CC-PVTZ AUX)
    Blend: AUG-CC-PVTZ-RI
    Molecular point group: c1

    Geometry (in Angstrom), charge = 0, multiplicity = 1:

       Center              X                  Y                   Z               Mass
    ------------   -----------------  -----------------  -----------------  -----------------
         C           -0.020394853955     0.209873842960     0.372356864571    12.000000000000
         C            1.262230146045     0.988193842960    -0.002772135429    12.000000000000
         C            0.674586146045    -1.068108157040    -0.156726135429    12.000000000000
         C            2.027900146045    -0.351844157040     0.044080864571    12.000000000000
         C           -1.282991753955     0.618689342960    -0.363023335429    12.000000000000
         C           -2.472972853955    -0.357610157040     0.106504864571    12.000000000000
         H           -0.099843853955     0.149038842960     1.466816864571     1.007825032230
         H            1.588057146045     1.802314842960     0.652076864571     1.007825032230
         H            1.193099146045     1.366965842960    -1.028986135429     1.007825032230
         H            0.457313146045    -1.207010157040    -1.222526135429     1.007825032230
         H            0.501653146045    -2.014560157040     0.364535864571     1.007825032230
         H            2.819916146045    -0.523423157040    -0.690719135429     1.007825032230
         H            2.429971146045    -0.541691157040     1.043996864571     1.007825032230
         H           -1.617032853955     1.629317842960     0.142807864571     1.007825032230
         H           -1.240195853955     0.711595842960    -1.309839135429     1.007825032230
         H           -2.613906853955    -0.440913157040     1.188766864571     1.007825032230
         H           -2.237570853955    -1.354574157040    -0.278392135429     1.007825032230
         H           -3.424193853955    -0.043744157040    -0.333551135429     1.007825032230

  Basis Set: AUG-CC-PVTZ
    Blend: AUG-CC-PVTZ
  Basis Set: (AUG-CC-PVTZ AUX)
    Blend: AUG-CC-PVTZ-JKFIT
	 Reference Energy          =    -234.2180374633011297 [Eh]
	 Singles Energy            =      -0.0000000000000000 [Eh]
	 Same-Spin Energy          =      -0.2526495796420001 [Eh]
	 Opposite-Spin Energy      =      -0.9226872807970771 [Eh]
	 Correlation Energy        =      -1.1753368604390773 [Eh]
	 Total Energy              =    -235.3933743237402041 [Eh]

	 ================> DF-SCS-MP2 Energies <==================
	-----------------------------------------------------------
	 SCS Same-Spin Scale       =       0.3333333333333333 [-]
	 SCS Opposite-Spin Scale   =       1.2000000000000000 [-]
	 SCS Same-Spin Energy      =      -0.0842165265473334 [Eh]
	 SCS Opposite-Spin Energy  =      -1.1072247369564925 [Eh]
	 SCS Correlation Energy    =      -1.1914412635038258 [Eh]
	 SCS Total Energy          =    -235.4094787268049629 [Eh]
	-----------------------------------------------------------

  Dipole Moment: [D]
     X:    -0.0326      Y:     0.0120      Z:     0.0202     Total:     0.0402

*** Psi4 exiting successfully. Buy a developer a beer!
