                               Psi4 1.4a3.dev225

  ==> Input File <==

--------------------------------------------------------------------------
#psi4
#
memory 32 gb

molecule  {
0 1
  C        0.0115380     0.2135990     0.3546250
  C        1.2941630     0.9919190    -0.0205040
  C        0.7065190    -1.0643830    -0.1744580
  C        2.0598330    -0.3481190     0.0263490
  C       -1.3650047     0.6449607    -0.2580315
  C       -2.4410400    -0.3538850     0.0887730
  H       -0.0679110     0.1527640     1.4490850
  H        1.6199900     1.8060400     0.6343450
  H        1.2250320     1.3706910    -1.0467180
  H        0.4892460    -1.2032850    -1.2402580
  H        0.5335860    -2.0108350     0.3468040
  H        2.8518490    -0.5196980    -0.7084510
  H        2.4619040    -0.5379660     1.0262650
  H       -1.5851000     1.6330430     0.1250760
  H       -1.2082630     0.7153210    -1.3275710
  H       -2.5819740    -0.4371880     1.1710350
  H       -2.2056380    -1.3508490    -0.2961240
  H       -3.3922610    -0.0400190    -0.3512830
units angstrom
no_reorient  #important for SAPT in psi4, default
symmetry c1  #important for SAPT in psi4, default
}

set PROPERTIES_ORIGIN ["COM"]
properties('MP2/aug-cc-pvtz', properties = ['dipole'])
--------------------------------------------------------------------------

    Molecular point group: c1
  Charge       = 0
  Multiplicity = 1
  Basis Set: AUG-CC-PVTZ
    Blend: AUG-CC-PVTZ
  Basis Set: (AUG-CC-PVTZ AUX)
    Blend: AUG-CC-PVTZ-JKFIT

    Orbital Energies [Eh]
    ---------------------

    Doubly Occupied:

       1A    -11.220688     2A    -11.215592     3A    -11.213683
       4A    -11.213342     5A    -11.212816     6A    -11.208947
       7A     -1.131473     8A     -1.028160     9A     -0.895724
      10A     -0.886628    11A     -0.810328    12A     -0.742418
      13A     -0.648200    14A     -0.621944    15A     -0.605024
      16A     -0.552265    17A     -0.535777    18A     -0.530345
      19A     -0.505748    20A     -0.480965    21A     -0.465054
      22A     -0.442767    23A     -0.427401    24A     -0.411959

  @DF-RHF Final Energy:  -234.24670210765848

   => Energetics <=

    Nuclear Repulsion Energy =            246.7579312369979618
    One-Electron Energy =                -803.9947700645237774
    Two-Electron Energy =                 322.9901367198673370
    Total Energy =                       -234.2467021076585070
  Basis Set: (AUG-CC-PVTZ AUX)
    Blend: AUG-CC-PVTZ-RI
    Molecular point group: c1

    Geometry (in Angstrom), charge = 0, multiplicity = 1:

       Center              X                  Y                   Z               Mass
    ------------   -----------------  -----------------  -----------------  -----------------
         C           -0.004135058730     0.206656553730     0.354844483849    12.000000000000
         C            1.278489941270     0.984976553730    -0.020284516151    12.000000000000
         C            0.690845941270    -1.071325446270    -0.174238516151    12.000000000000
         C            2.044159941270    -0.355061446270     0.026568483849    12.000000000000
         C           -1.380677758730     0.638018253730    -0.257812016151    12.000000000000
         C           -2.456713058730    -0.360827446270     0.088992483849    12.000000000000
         H           -0.083584058730     0.145821553730     1.449304483849     1.007825032230
         H            1.604316941270     1.799097553730     0.634564483849     1.007825032230
         H            1.209358941270     1.363748553730    -1.046498516151     1.007825032230
         H            0.473572941270    -1.210227446270    -1.240038516151     1.007825032230
         H            0.517912941270    -2.017777446270     0.347023483849     1.007825032230
         H            2.836175941270    -0.526640446270    -0.708231516151     1.007825032230
         H            2.446230941270    -0.544908446270     1.026484483849     1.007825032230
         H           -1.600773058730     1.626100553730     0.125295483849     1.007825032230
         H           -1.223936058730     0.708378553730    -1.327351516151     1.007825032230
         H           -2.597647058730    -0.444130446270     1.171254483849     1.007825032230
         H           -2.221311058730    -1.357791446270    -0.295904516151     1.007825032230
         H           -3.407934058730    -0.046961446270    -0.351063516151     1.007825032230

  Basis Set: AUG-CC-PVTZ
    Blend: AUG-CC-PVTZ
  Basis Set: (AUG-CC-PVTZ AUX)
    Blend: AUG-CC-PVTZ-JKFIT
	 Reference Energy          =    -234.2467021076584786 [Eh]
	 Singles Energy            =      -0.0000000000000000 [Eh]
	 Same-Spin Energy          =      -0.2524925245639640 [Eh]
	 Opposite-Spin Energy      =      -0.9214408062244746 [Eh]
	 Correlation Energy        =      -1.1739333307884385 [Eh]
	 Total Energy              =    -235.4206354384469080 [Eh]

	 ================> DF-SCS-MP2 Energies <==================
	-----------------------------------------------------------
	 SCS Same-Spin Scale       =       0.3333333333333333 [-]
	 SCS Opposite-Spin Scale   =       1.2000000000000000 [-]
	 SCS Same-Spin Energy      =      -0.0841641748546547 [Eh]
	 SCS Opposite-Spin Energy  =      -1.1057289674693693 [Eh]
	 SCS Correlation Energy    =      -1.1898931423240240 [Eh]
	 SCS Total Energy          =    -235.4365952499825028 [Eh]
	-----------------------------------------------------------

  Dipole Moment: [D]
     X:    -0.0711      Y:     0.0501      Z:     0.0552     Total:     0.1030

*** Psi4 exiting successfully. Buy a developer a beer!
