                               Psi4 1.3.2 release

  ==> Input File <==

--------------------------------------------------------------------------
#psi4
#
memory 32 gb

molecule  {
0 1
  C       -0.0120387     0.1708373     0.3751259
  C        1.2941630     0.9919190    -0.0205040
  C        0.7065190    -1.0643830    -0.1744580
  C        2.0598330    -0.3481190     0.0263490
  C       -1.3210890     0.6311990    -0.2384860
  C       -2.4410400    -0.3538850     0.0887730
  H       -0.0679110     0.1527640     1.4490850
  H        1.6199900     1.8060400     0.6343450
  H        1.2250320     1.3706910    -1.0467180
  H        0.4892460    -1.2032850    -1.2402580
  H        0.5335860    -2.0108350     0.3468040
  H        2.8518490    -0.5196980    -0.7084510
  H        2.4619040    -0.5379660     1.0262650
  H       -1.5851000     1.6330430     0.1250760
  H       -1.2082630     0.7153210    -1.3275710
  H       -2.5819740    -0.4371880     1.1710350
  H       -2.2056380    -1.3508490    -0.2961240
  H       -3.3922610    -0.0400190    -0.3512830
units angstrom
no_reorient  #important for SAPT in psi4, default
symmetry c1  #important for SAPT in psi4, default
}

set PROPERTIES_ORIGIN ["COM"]
properties('MP2/aug-cc-pvtz', properties = ['dipole'])
--------------------------------------------------------------------------

    Molecular point group: c1
  Charge       = 0
  Multiplicity = 1
  Basis Set: AUG-CC-PVTZ
    Blend: AUG-CC-PVTZ
  Basis Set: (AUG-CC-PVTZ AUX)
    Blend: AUG-CC-PVTZ-JKFIT

    Orbital Energies [Eh]
    ---------------------

    Doubly Occupied:

       1A    -11.218462     2A    -11.215535     3A    -11.214429
       4A    -11.214258     5A    -11.214081     6A    -11.208747
       7A     -1.131028     8A     -1.027232     9A     -0.896073
      10A     -0.888858    11A     -0.807504    12A     -0.746963
      13A     -0.647115    14A     -0.625697    15A     -0.601828
      16A     -0.553127    17A     -0.531758    18A     -0.531345
      19A     -0.507498    20A     -0.478995    21A     -0.462089
      22A     -0.450464    23A     -0.429005    24A     -0.407162

  @DF-RHF Final Energy:  -234.24651578451994

   => Energetics <=

    Nuclear Repulsion Energy =            247.1360387590914911
    One-Electron Energy =                -804.7466025961339255
    Two-Electron Energy =                 323.3640480525225485
    Total Energy =                       -234.2465157845199428
  Basis Set: (AUG-CC-PVTZ AUX)
    Blend: AUG-CC-PVTZ-RI
    Molecular point group: c1

    Geometry (in Angstrom), charge = 0, multiplicity = 1:

       Center              X                  Y                   Z               Mass
    ------------   -----------------  -----------------  -----------------  -----------------
         C           -0.030614085758     0.171960608760     0.369630857613    12.000000000000
         C            1.275587614242     0.993042308760    -0.025999042387    12.000000000000
         C            0.687943614242    -1.063259691240    -0.179953042387    12.000000000000
         C            2.041257614242    -0.346995691240     0.020853957613    12.000000000000
         C           -1.339664385758     0.632322308760    -0.243981042387    12.000000000000
         C           -2.459615385758    -0.352761691240     0.083277957613    12.000000000000
         H           -0.086486385758     0.153887308760     1.443589957613     1.007825032230
         H            1.601414614242     1.807163308760     0.628849957613     1.007825032230
         H            1.206456614242     1.371814308760    -1.052213042387     1.007825032230
         H            0.470670614242    -1.202161691240    -1.245753042387     1.007825032230
         H            0.515010614242    -2.009711691240     0.341308957613     1.007825032230
         H            2.833273614242    -0.518574691240    -0.713946042387     1.007825032230
         H            2.443328614242    -0.536842691240     1.020769957613     1.007825032230
         H           -1.603675385758     1.634166308760     0.119580957613     1.007825032230
         H           -1.226838385758     0.716444308760    -1.333066042387     1.007825032230
         H           -2.600549385758    -0.436064691240     1.165539957613     1.007825032230
         H           -2.224213385758    -1.349725691240    -0.301619042387     1.007825032230
         H           -3.410836385758    -0.038895691240    -0.356778042387     1.007825032230

  Basis Set: AUG-CC-PVTZ
    Blend: AUG-CC-PVTZ
  Basis Set: (AUG-CC-PVTZ AUX)
    Blend: AUG-CC-PVTZ-JKFIT
	 Reference Energy          =    -234.2465157845199428 [Eh]
	 Singles Energy            =      -0.0000000000000000 [Eh]
	 Same-Spin Energy          =      -0.2525611032293787 [Eh]
	 Opposite-Spin Energy      =      -0.9216568777079936 [Eh]
	 Correlation Energy        =      -1.1742179809373723 [Eh]
	 Total Energy              =    -235.4207337654573280 [Eh]

	 ================> DF-SCS-MP2 Energies <==================
	-----------------------------------------------------------
	 SCS Same-Spin Scale       =       0.3333333333333333 [-]
	 SCS Opposite-Spin Scale   =       1.2000000000000000 [-]
	 SCS Same-Spin Energy      =      -0.0841870344097929 [Eh]
	 SCS Opposite-Spin Energy  =      -1.1059882532495924 [Eh]
	 SCS Correlation Energy    =      -1.1901752876593852 [Eh]
	 SCS Total Energy          =    -235.4366910721793147 [Eh]
	-----------------------------------------------------------

  Dipole Moment: [D]
     X:    -0.0654      Y:     0.0552      Z:     0.0607     Total:     0.1049

*** Psi4 exiting successfully. Buy a developer a beer!
