                               Psi4 1.3.2 release

  ==> Input File <==

--------------------------------------------------------------------------
#psi4
#
memory 32 gb

molecule  {
0 1
  C        0.0115380     0.2135990     0.3546250
  C        1.2941630     0.9919190    -0.0205040
  C        0.7065190    -1.0643830    -0.1744580
  C        2.0598330    -0.3481190     0.0263490
  C       -1.3765185     0.6354082    -0.0897185
  C       -2.4410400    -0.3538850     0.0887730
  H       -0.0679110     0.1527640     1.4490850
  H        1.6199900     1.8060400     0.6343450
  H        1.2250320     1.3706910    -1.0467180
  H        0.4892460    -1.2032850    -1.2402580
  H        0.5335860    -2.0108350     0.3468040
  H        2.8518490    -0.5196980    -0.7084510
  H        2.4619040    -0.5379660     1.0262650
  H       -1.5851000     1.6330430     0.1250760
  H       -1.2082630     0.7153210    -1.3275710
  H       -2.5819740    -0.4371880     1.1710350
  H       -2.2056380    -1.3508490    -0.2961240
  H       -3.3922610    -0.0400190    -0.3512830
units angstrom
no_reorient  #important for SAPT in psi4, default
symmetry c1  #important for SAPT in psi4, default
}

set PROPERTIES_ORIGIN ["COM"]
properties('MP2/aug-cc-pvtz', properties = ['dipole'])
--------------------------------------------------------------------------

    Molecular point group: c1
  Charge       = 0
  Multiplicity = 1
  Basis Set: AUG-CC-PVTZ
    Blend: AUG-CC-PVTZ
  Basis Set: (AUG-CC-PVTZ AUX)
    Blend: AUG-CC-PVTZ-JKFIT

    Orbital Energies [Eh]
    ---------------------

    Doubly Occupied:

       1A    -11.221699     2A    -11.221011     3A    -11.217077
       4A    -11.216190     5A    -11.215954     6A    -11.209961
       7A     -1.134957     8A     -1.039882     9A     -0.902688
      10A     -0.889513    11A     -0.807465    12A     -0.741381
      13A     -0.649238    14A     -0.634731    15A     -0.597438
      16A     -0.570647    17A     -0.538090    18A     -0.531785
      19A     -0.510721    20A     -0.470989    21A     -0.456323
      22A     -0.431355    23A     -0.431112    24A     -0.411380

  @DF-RHF Final Energy:  -234.22425218737843

   => Energetics <=

    Nuclear Repulsion Energy =            247.3879598461925582
    One-Electron Energy =                -805.1212532747374553
    Two-Electron Energy =                 323.5090412411664715
    Total Energy =                       -234.2242521873784540
  Basis Set: (AUG-CC-PVTZ AUX)
    Blend: AUG-CC-PVTZ-RI
    Molecular point group: c1

    Geometry (in Angstrom), charge = 0, multiplicity = 1:

       Center              X                  Y                   Z               Mass
    ------------   -----------------  -----------------  -----------------  -----------------
         C           -0.002492066796     0.208019672808     0.330826618216    12.000000000000
         C            1.280132933204     0.986339672808    -0.044302381784    12.000000000000
         C            0.692488933204    -1.069962327192    -0.198256381784    12.000000000000
         C            2.045802933204    -0.353698327192     0.002550618216    12.000000000000
         C           -1.390548566796     0.629828872808    -0.113516881784    12.000000000000
         C           -2.455070066796    -0.359464327192     0.064974618216    12.000000000000
         H           -0.081941066796     0.147184672808     1.425286618216     1.007825032230
         H            1.605959933204     1.800460672808     0.610546618216     1.007825032230
         H            1.211001933204     1.365111672808    -1.070516381784     1.007825032230
         H            0.475215933204    -1.208864327192    -1.264056381784     1.007825032230
         H            0.519555933204    -2.016414327192     0.323005618216     1.007825032230
         H            2.837818933204    -0.525277327192    -0.732249381784     1.007825032230
         H            2.447873933204    -0.543545327192     1.002466618216     1.007825032230
         H           -1.599130066796     1.627463672808     0.101277618216     1.007825032230
         H           -1.222293066796     0.709741672808    -1.351369381784     1.007825032230
         H           -2.596004066796    -0.442767327192     1.147236618216     1.007825032230
         H           -2.219668066796    -1.356428327192    -0.319922381784     1.007825032230
         H           -3.406291066796    -0.045598327192    -0.375081381784     1.007825032230

  Basis Set: AUG-CC-PVTZ
    Blend: AUG-CC-PVTZ
  Basis Set: (AUG-CC-PVTZ AUX)
    Blend: AUG-CC-PVTZ-JKFIT
	 Reference Energy          =    -234.2242521873784256 [Eh]
	 Singles Energy            =      -0.0000000000000000 [Eh]
	 Same-Spin Energy          =      -0.2535226724258314 [Eh]
	 Opposite-Spin Energy      =      -0.9230810267616512 [Eh]
	 Correlation Energy        =      -1.1766036991874826 [Eh]
	 Total Energy              =    -235.4008558865659211 [Eh]

	 ================> DF-SCS-MP2 Energies <==================
	-----------------------------------------------------------
	 SCS Same-Spin Scale       =       0.3333333333333333 [-]
	 SCS Opposite-Spin Scale   =       1.2000000000000000 [-]
	 SCS Same-Spin Energy      =      -0.0845075574752771 [Eh]
	 SCS Opposite-Spin Energy  =      -1.1076972321139813 [Eh]
	 SCS Correlation Energy    =      -1.1922047895892585 [Eh]
	 SCS Total Energy          =    -235.4164569769676802 [Eh]
	-----------------------------------------------------------

  Dipole Moment: [D]
     X:    -0.0739      Y:     0.0250      Z:     0.1820     Total:     0.1980

*** Psi4 exiting successfully. Buy a developer a beer!
