                               Psi4 1.3.2 release

  ==> Input File <==

--------------------------------------------------------------------------
#psi4
#
memory 32 gb

molecule  {
0 1
  C        0.0024632     0.1224879     0.3014099
  C        1.2941630     0.9919190    -0.0205040
  C        0.7065190    -1.0643830    -0.1744580
  C        2.0598330    -0.3481190     0.0263490
  C       -1.3210890     0.6311990    -0.2384860
  C       -2.4410400    -0.3538850     0.0887730
  H       -0.0679110     0.1527640     1.4490850
  H        1.6199900     1.8060400     0.6343450
  H        1.2250320     1.3706910    -1.0467180
  H        0.4892460    -1.2032850    -1.2402580
  H        0.5335860    -2.0108350     0.3468040
  H        2.8518490    -0.5196980    -0.7084510
  H        2.4619040    -0.5379660     1.0262650
  H       -1.5851000     1.6330430     0.1250760
  H       -1.2082630     0.7153210    -1.3275710
  H       -2.5819740    -0.4371880     1.1710350
  H       -2.2056380    -1.3508490    -0.2961240
  H       -3.3922610    -0.0400190    -0.3512830
units angstrom
no_reorient  #important for SAPT in psi4, default
symmetry c1  #important for SAPT in psi4, default
}

set PROPERTIES_ORIGIN ["COM"]
properties('MP2/aug-cc-pvtz', properties = ['dipole'])
--------------------------------------------------------------------------

    Molecular point group: c1
  Charge       = 0
  Multiplicity = 1
  Basis Set: AUG-CC-PVTZ
    Blend: AUG-CC-PVTZ
  Basis Set: (AUG-CC-PVTZ AUX)
    Blend: AUG-CC-PVTZ-JKFIT

    Orbital Energies [Eh]
    ---------------------

    Doubly Occupied:

       1A    -11.222332     2A    -11.216583     3A    -11.215037
       4A    -11.213704     5A    -11.212320     6A    -11.209004
       7A     -1.141410     8A     -1.028422     9A     -0.898083
      10A     -0.892732    11A     -0.808905    12A     -0.737308
      13A     -0.652165    14A     -0.630137    15A     -0.602756
      16A     -0.549704    17A     -0.532640    18A     -0.528581
      19A     -0.511785    20A     -0.478040    21A     -0.468401
      22A     -0.445046    23A     -0.433425    24A     -0.401998

  @DF-RHF Final Energy:  -234.23789642624300

   => Energetics <=

    Nuclear Repulsion Energy =            247.8462768137291334
    One-Electron Energy =                -806.1073088516357075
    Two-Electron Energy =                 324.0231356116636334
    Total Energy =                       -234.2378964262429690
  Basis Set: (AUG-CC-PVTZ AUX)
    Blend: AUG-CC-PVTZ-RI
    Molecular point group: c1

    Geometry (in Angstrom), charge = 0, multiplicity = 1:

       Center              X                  Y                   Z               Mass
    ------------   -----------------  -----------------  -----------------  -----------------
         C           -0.018181572470     0.130510553389     0.306433955858    12.000000000000
         C            1.273518227530     0.999941653389    -0.015479944142    12.000000000000
         C            0.685874227530    -1.056360346611    -0.169433944142    12.000000000000
         C            2.039188227530    -0.340096346611     0.031373055858    12.000000000000
         C           -1.341733772470     0.639221653389    -0.233461944142    12.000000000000
         C           -2.461684772470    -0.345862346611     0.093797055858    12.000000000000
         H           -0.088555772470     0.160786653389     1.454109055858     1.007825032230
         H            1.599345227530     1.814062653389     0.639369055858     1.007825032230
         H            1.204387227530     1.378713653389    -1.041693944142     1.007825032230
         H            0.468601227530    -1.195262346611    -1.235233944142     1.007825032230
         H            0.512941227530    -2.002812346611     0.351828055858     1.007825032230
         H            2.831204227530    -0.511675346611    -0.703426944142     1.007825032230
         H            2.441259227530    -0.529943346611     1.031289055858     1.007825032230
         H           -1.605744772470     1.641065653389     0.130100055858     1.007825032230
         H           -1.228907772470     0.723343653389    -1.322546944142     1.007825032230
         H           -2.602618772470    -0.429165346611     1.176059055858     1.007825032230
         H           -2.226282772470    -1.342826346611    -0.291099944142     1.007825032230
         H           -3.412905772470    -0.031996346611    -0.346258944142     1.007825032230

  Basis Set: AUG-CC-PVTZ
    Blend: AUG-CC-PVTZ
  Basis Set: (AUG-CC-PVTZ AUX)
    Blend: AUG-CC-PVTZ-JKFIT
	 Reference Energy          =    -234.2378964262429974 [Eh]
	 Singles Energy            =      -0.0000000000000000 [Eh]
	 Same-Spin Energy          =      -0.2532836560302612 [Eh]
	 Opposite-Spin Energy      =      -0.9224530708214702 [Eh]
	 Correlation Energy        =      -1.1757367268517314 [Eh]
	 Total Energy              =    -235.4136331530947359 [Eh]

	 ================> DF-SCS-MP2 Energies <==================
	-----------------------------------------------------------
	 SCS Same-Spin Scale       =       0.3333333333333333 [-]
	 SCS Opposite-Spin Scale   =       1.2000000000000000 [-]
	 SCS Same-Spin Energy      =      -0.0844278853434204 [Eh]
	 SCS Opposite-Spin Energy  =      -1.1069436849857641 [Eh]
	 SCS Correlation Energy    =      -1.1913715703291845 [Eh]
	 SCS Total Energy          =    -235.4292679965721788 [Eh]
	-----------------------------------------------------------

  Dipole Moment: [D]
     X:    -0.0482      Y:     0.0516      Z:     0.0285     Total:     0.0761

*** Psi4 exiting successfully. Buy a developer a beer!
