                               Psi4 1.3.2 release

  ==> Input File <==

--------------------------------------------------------------------------
#psi4
#
memory 32 gb

molecule  {
0 1
  C        0.0115380     0.2135990     0.3546250
  C        1.2643294     1.0240215    -0.0520194
  C        0.7065190    -1.0643830    -0.1744580
  C        2.0598330    -0.3481190     0.0263490
  C       -1.3210890     0.6311990    -0.2384860
  C       -2.4410400    -0.3538850     0.0887730
  H       -0.0679110     0.1527640     1.4490850
  H        1.6199900     1.8060400     0.6343450
  H        1.2250320     1.3706910    -1.0467180
  H        0.4892460    -1.2032850    -1.2402580
  H        0.5335860    -2.0108350     0.3468040
  H        2.8518490    -0.5196980    -0.7084510
  H        2.4619040    -0.5379660     1.0262650
  H       -1.5851000     1.6330430     0.1250760
  H       -1.2082630     0.7153210    -1.3275710
  H       -2.5819740    -0.4371880     1.1710350
  H       -2.2056380    -1.3508490    -0.2961240
  H       -3.3922610    -0.0400190    -0.3512830
units angstrom
no_reorient  #important for SAPT in psi4, default
symmetry c1  #important for SAPT in psi4, default
}

set PROPERTIES_ORIGIN ["COM"]
properties('MP2/aug-cc-pvtz', properties = ['dipole'])
--------------------------------------------------------------------------

    Molecular point group: c1
  Charge       = 0
  Multiplicity = 1
  Basis Set: AUG-CC-PVTZ
    Blend: AUG-CC-PVTZ
  Basis Set: (AUG-CC-PVTZ AUX)
    Blend: AUG-CC-PVTZ-JKFIT

    Orbital Energies [Eh]
    ---------------------

    Doubly Occupied:

       1A    -11.219995     2A    -11.217467     3A    -11.213757
       4A    -11.213207     5A    -11.212465     6A    -11.209192
       7A     -1.130044     8A     -1.025137     9A     -0.900488
      10A     -0.886457    11A     -0.807806    12A     -0.747118
      13A     -0.646357    14A     -0.624268    15A     -0.600438
      16A     -0.551120    17A     -0.540380    18A     -0.533599
      19A     -0.506005    20A     -0.479049    21A     -0.456020
      22A     -0.450088    23A     -0.426419    24A     -0.412080

  @DF-RHF Final Energy:  -234.24624687192085

   => Energetics <=

    Nuclear Repulsion Energy =            247.0152576101128545
    One-Electron Energy =                -804.5050968011938721
    Two-Electron Energy =                 323.2435923191602001
    Total Energy =                       -234.2462468719208459
  Basis Set: (AUG-CC-PVTZ AUX)
    Blend: AUG-CC-PVTZ-RI
    Molecular point group: c1

    Geometry (in Angstrom), charge = 0, multiplicity = 1:

       Center              X                  Y                   Z               Mass
    ------------   -----------------  -----------------  -----------------  -----------------
         C           -0.006144540978     0.204039365099     0.356552560170    12.000000000000
         C            1.246646859022     1.014461865099    -0.050091839830    12.000000000000
         C            0.688836459022    -1.073942634901    -0.172530439830    12.000000000000
         C            2.042150459022    -0.357678634901     0.028276560170    12.000000000000
         C           -1.338771540978     0.621639365099    -0.236558439830    12.000000000000
         C           -2.458722540978    -0.363444634901     0.090700560170    12.000000000000
         H           -0.085593540978     0.143204365099     1.451012560170     1.007825032230
         H            1.602307459022     1.796480365099     0.636272560170     1.007825032230
         H            1.207349459022     1.361131365099    -1.044790439830     1.007825032230
         H            0.471563459022    -1.212844634901    -1.238330439830     1.007825032230
         H            0.515903459022    -2.020394634901     0.348731560170     1.007825032230
         H            2.834166459022    -0.529257634901    -0.706523439830     1.007825032230
         H            2.444221459022    -0.547525634901     1.028192560170     1.007825032230
         H           -1.602782540978     1.623483365099     0.127003560170     1.007825032230
         H           -1.225945540978     0.705761365099    -1.325643439830     1.007825032230
         H           -2.599656540978    -0.446747634901     1.172962560170     1.007825032230
         H           -2.223320540978    -1.360408634901    -0.294196439830     1.007825032230
         H           -3.409943540978    -0.049578634901    -0.349355439830     1.007825032230

  Basis Set: AUG-CC-PVTZ
    Blend: AUG-CC-PVTZ
  Basis Set: (AUG-CC-PVTZ AUX)
    Blend: AUG-CC-PVTZ-JKFIT
	 Reference Energy          =    -234.2462468719208459 [Eh]
	 Singles Energy            =      -0.0000000000000000 [Eh]
	 Same-Spin Energy          =      -0.2524686049619911 [Eh]
	 Opposite-Spin Energy      =      -0.9216166290303615 [Eh]
	 Correlation Energy        =      -1.1740852339923524 [Eh]
	 Total Energy              =    -235.4203321059131895 [Eh]

	 ================> DF-SCS-MP2 Energies <==================
	-----------------------------------------------------------
	 SCS Same-Spin Scale       =       0.3333333333333333 [-]
	 SCS Opposite-Spin Scale   =       1.2000000000000000 [-]
	 SCS Same-Spin Energy      =      -0.0841562016539970 [Eh]
	 SCS Opposite-Spin Energy  =      -1.1059399548364337 [Eh]
	 SCS Correlation Energy    =      -1.1900961564904307 [Eh]
	 SCS Total Energy          =    -235.4363430284112724 [Eh]
	-----------------------------------------------------------

  Dipole Moment: [D]
     X:    -0.0506      Y:     0.0471      Z:     0.0437     Total:     0.0818

*** Psi4 exiting successfully. Buy a developer a beer!
