                               Psi4 1.3.2 release

  ==> Input File <==

--------------------------------------------------------------------------
#psi4
#
memory 32 gb

molecule  {
0 1
  C        0.0115380     0.2135990     0.3546250
  C        1.2941630     0.9919190    -0.0205040
  C        0.7065190    -1.0643830    -0.1744580
  C        2.0598330    -0.3481190     0.0263490
  C       -1.1454262     0.5761523    -0.1603039
  C       -2.4410400    -0.3538850     0.0887730
  H       -0.0679110     0.1527640     1.4490850
  H        1.6199900     1.8060400     0.6343450
  H        1.2250320     1.3706910    -1.0467180
  H        0.4892460    -1.2032850    -1.2402580
  H        0.5335860    -2.0108350     0.3468040
  H        2.8518490    -0.5196980    -0.7084510
  H        2.4619040    -0.5379660     1.0262650
  H       -1.5851000     1.6330430     0.1250760
  H       -1.2082630     0.7153210    -1.3275710
  H       -2.5819740    -0.4371880     1.1710350
  H       -2.2056380    -1.3508490    -0.2961240
  H       -3.3922610    -0.0400190    -0.3512830
units angstrom
no_reorient  #important for SAPT in psi4, default
symmetry c1  #important for SAPT in psi4, default
}

set PROPERTIES_ORIGIN ["COM"]
properties('MP2/aug-cc-pvtz', properties = ['dipole'])
--------------------------------------------------------------------------

    Molecular point group: c1
  Charge       = 0
  Multiplicity = 1
  Basis Set: AUG-CC-PVTZ
    Blend: AUG-CC-PVTZ
  Basis Set: (AUG-CC-PVTZ AUX)
    Blend: AUG-CC-PVTZ-JKFIT

    Orbital Energies [Eh]
    ---------------------

    Doubly Occupied:

       1A    -11.223653     2A    -11.217335     3A    -11.216309
       4A    -11.216172     5A    -11.214777     6A    -11.209712
       7A     -1.152165     8A     -1.030713     9A     -0.915698
      10A     -0.892703    11A     -0.802391    12A     -0.746413
      13A     -0.654243    14A     -0.641073    15A     -0.591384
      16A     -0.559142    17A     -0.540777    18A     -0.533555
      19A     -0.510907    20A     -0.473243    21A     -0.460959
      22A     -0.453003    23A     -0.408793    24A     -0.404310

  @DF-RHF Final Energy:  -234.19869420821851

   => Energetics <=

    Nuclear Repulsion Energy =            249.6745785401828925
    One-Electron Energy =                -809.6076861841618211
    Two-Electron Energy =                 325.7344134357604162
    Total Energy =                       -234.1986942082185124
  Basis Set: (AUG-CC-PVTZ AUX)
    Blend: AUG-CC-PVTZ-RI
    Molecular point group: c1

    Geometry (in Angstrom), charge = 0, multiplicity = 1:

       Center              X                  Y                   Z               Mass
    ------------   -----------------  -----------------  -----------------  -----------------
         C           -0.035468389541     0.216475349103     0.340898987271    12.000000000000
         C            1.247156610459     0.994795349103    -0.034230012729    12.000000000000
         C            0.659512610459    -1.061506650897    -0.188184012729    12.000000000000
         C            2.012826610459    -0.345242650897     0.012622987271    12.000000000000
         C           -1.192432589541     0.579028649103    -0.174029912729    12.000000000000
         C           -2.488046389541    -0.351008650897     0.075046987271    12.000000000000
         H           -0.114917389541     0.155640349103     1.435358987271     1.007825032230
         H            1.572983610459     1.808916349103     0.620618987271     1.007825032230
         H            1.178025610459     1.373567349103    -1.060444012729     1.007825032230
         H            0.442239610459    -1.200408650897    -1.253984012729     1.007825032230
         H            0.486579610459    -2.007958650897     0.333077987271     1.007825032230
         H            2.804842610459    -0.516821650897    -0.722177012729     1.007825032230
         H            2.414897610459    -0.535089650897     1.012538987271     1.007825032230
         H           -1.632106389541     1.635919349103     0.111349987271     1.007825032230
         H           -1.255269389541     0.718197349103    -1.341297012729     1.007825032230
         H           -2.628980389541    -0.434311650897     1.157308987271     1.007825032230
         H           -2.252644389541    -1.347972650897    -0.309850012729     1.007825032230
         H           -3.439267389541    -0.037142650897    -0.365009012729     1.007825032230

  Basis Set: AUG-CC-PVTZ
    Blend: AUG-CC-PVTZ
  Basis Set: (AUG-CC-PVTZ AUX)
    Blend: AUG-CC-PVTZ-JKFIT
	 Reference Energy          =    -234.1986942082185124 [Eh]
	 Singles Energy            =      -0.0000000000000000 [Eh]
	 Same-Spin Energy          =      -0.2554189475477328 [Eh]
	 Opposite-Spin Energy      =      -0.9257148860259830 [Eh]
	 Correlation Energy        =      -1.1811338335737158 [Eh]
	 Total Energy              =    -235.3798280417922228 [Eh]

	 ================> DF-SCS-MP2 Energies <==================
	-----------------------------------------------------------
	 SCS Same-Spin Scale       =       0.3333333333333333 [-]
	 SCS Opposite-Spin Scale   =       1.2000000000000000 [-]
	 SCS Same-Spin Energy      =      -0.0851396491825776 [Eh]
	 SCS Opposite-Spin Energy  =      -1.1108578632311794 [Eh]
	 SCS Correlation Energy    =      -1.1959975124137570 [Eh]
	 SCS Total Energy          =    -235.3946917206322667 [Eh]
	-----------------------------------------------------------

  Dipole Moment: [D]
     X:     0.0391      Y:    -0.0098      Z:     0.0967     Total:     0.1047

*** Psi4 exiting successfully. Buy a developer a beer!
