                               Psi4 1.3.2 release

  ==> Input File <==

--------------------------------------------------------------------------
#psi4
#
memory 32 gb

molecule  {
0 1
  C        0.0127933     0.2367122     0.3674871
  C        1.2941630     0.9919190    -0.0205040
  C        0.7065190    -1.0643830    -0.1744580
  C        2.0598330    -0.3481190     0.0263490
  C       -1.3210890     0.6311990    -0.2384860
  C       -2.4410400    -0.3538850     0.0887730
  H       -0.0679110     0.1527640     1.4490850
  H        1.6199900     1.8060400     0.6343450
  H        1.2250320     1.3706910    -1.0467180
  H        0.4892460    -1.2032850    -1.2402580
  H        0.5335860    -2.0108350     0.3468040
  H        2.8518490    -0.5196980    -0.7084510
  H        2.4619040    -0.5379660     1.0262650
  H       -1.5851000     1.6330430     0.1250760
  H       -1.2082630     0.7153210    -1.3275710
  H       -2.5819740    -0.4371880     1.1710350
  H       -2.2056380    -1.3508490    -0.2961240
  H       -3.3922610    -0.0400190    -0.3512830
units angstrom
no_reorient  #important for SAPT in psi4, default
symmetry c1  #important for SAPT in psi4, default
}

set PROPERTIES_ORIGIN ["COM"]
properties('MP2/aug-cc-pvtz', properties = ['dipole'])
--------------------------------------------------------------------------

    Molecular point group: c1
  Charge       = 0
  Multiplicity = 1
  Basis Set: AUG-CC-PVTZ
    Blend: AUG-CC-PVTZ
  Basis Set: (AUG-CC-PVTZ AUX)
    Blend: AUG-CC-PVTZ-JKFIT

    Orbital Energies [Eh]
    ---------------------

    Doubly Occupied:

       1A    -11.218853     2A    -11.215653     3A    -11.214255
       4A    -11.213963     5A    -11.213826     6A    -11.209953
       7A     -1.132486     8A     -1.026778     9A     -0.900552
      10A     -0.885923    11A     -0.808416    12A     -0.744949
      13A     -0.648032    14A     -0.624533    15A     -0.600938
      16A     -0.553761    17A     -0.536324    18A     -0.530299
      19A     -0.505044    20A     -0.478370    21A     -0.461997
      22A     -0.447712    23A     -0.426389    24A     -0.414519

  @DF-RHF Final Energy:  -234.24822677557407

   => Energetics <=

    Nuclear Repulsion Energy =            247.1376333914520274
    One-Electron Energy =                -804.7446735423324071
    Two-Electron Energy =                 323.3588133753063403
    Total Energy =                       -234.2482267755740395
  Basis Set: (AUG-CC-PVTZ AUX)
    Blend: AUG-CC-PVTZ-RI
    Molecular point group: c1

    Geometry (in Angstrom), charge = 0, multiplicity = 1:

       Center              X                  Y                   Z               Mass
    ------------   -----------------  -----------------  -----------------  -----------------
         C           -0.009325553223     0.228435316874     0.363082096243    12.000000000000
         C            1.272044146777     0.983642116874    -0.024909003757    12.000000000000
         C            0.684400146777    -1.072659883126    -0.178863003757    12.000000000000
         C            2.037714146777    -0.356395883126     0.021943996243    12.000000000000
         C           -1.343207853223     0.622922116874    -0.242891003757    12.000000000000
         C           -2.463158853223    -0.362161883126     0.084367996243    12.000000000000
         H           -0.090029853223     0.144487116874     1.444679996243     1.007825032230
         H            1.597871146777     1.797763116874     0.629939996243     1.007825032230
         H            1.202913146777     1.362414116874    -1.051123003757     1.007825032230
         H            0.467127146777    -1.211561883126    -1.244663003757     1.007825032230
         H            0.511467146777    -2.019111883126     0.342398996243     1.007825032230
         H            2.829730146777    -0.527974883126    -0.712856003757     1.007825032230
         H            2.439785146777    -0.546242883126     1.021859996243     1.007825032230
         H           -1.607218853223     1.624766116874     0.120670996243     1.007825032230
         H           -1.230381853223     0.707044116874    -1.331976003757     1.007825032230
         H           -2.604092853223    -0.445464883126     1.166629996243     1.007825032230
         H           -2.227756853223    -1.359125883126    -0.300529003757     1.007825032230
         H           -3.414379853223    -0.048295883126    -0.355688003757     1.007825032230

  Basis Set: AUG-CC-PVTZ
    Blend: AUG-CC-PVTZ
  Basis Set: (AUG-CC-PVTZ AUX)
    Blend: AUG-CC-PVTZ-JKFIT
	 Reference Energy          =    -234.2482267755740679 [Eh]
	 Singles Energy            =      -0.0000000000000000 [Eh]
	 Same-Spin Energy          =      -0.2525478091205900 [Eh]
	 Opposite-Spin Energy      =      -0.9214920602990180 [Eh]
	 Correlation Energy        =      -1.1740398694196079 [Eh]
	 Total Energy              =    -235.4222666449936696 [Eh]

	 ================> DF-SCS-MP2 Energies <==================
	-----------------------------------------------------------
	 SCS Same-Spin Scale       =       0.3333333333333333 [-]
	 SCS Opposite-Spin Scale   =       1.2000000000000000 [-]
	 SCS Same-Spin Energy      =      -0.0841826030401967 [Eh]
	 SCS Opposite-Spin Energy  =      -1.1057904723588214 [Eh]
	 SCS Correlation Energy    =      -1.1899730753990181 [Eh]
	 SCS Total Energy          =    -235.4381998509730920 [Eh]
	-----------------------------------------------------------

  Dipole Moment: [D]
     X:    -0.0696      Y:     0.0476      Z:     0.0604     Total:     0.1038

*** Psi4 exiting successfully. Buy a developer a beer!
