                               Psi4 1.3.2 release

  ==> Input File <==

--------------------------------------------------------------------------
#psi4
#
memory 32 gb

molecule  {
0 1
  C        0.0115380     0.2135990     0.3546250
  C        1.2001215     1.0852266    -0.1135260
  C        0.7065190    -1.0643830    -0.1744580
  C        2.0598330    -0.3481190     0.0263490
  C       -1.3210890     0.6311990    -0.2384860
  C       -2.4410400    -0.3538850     0.0887730
  H       -0.0679110     0.1527640     1.4490850
  H        1.6199900     1.8060400     0.6343450
  H        1.2250320     1.3706910    -1.0467180
  H        0.4892460    -1.2032850    -1.2402580
  H        0.5335860    -2.0108350     0.3468040
  H        2.8518490    -0.5196980    -0.7084510
  H        2.4619040    -0.5379660     1.0262650
  H       -1.5851000     1.6330430     0.1250760
  H       -1.2082630     0.7153210    -1.3275710
  H       -2.5819740    -0.4371880     1.1710350
  H       -2.2056380    -1.3508490    -0.2961240
  H       -3.3922610    -0.0400190    -0.3512830
units angstrom
no_reorient  #important for SAPT in psi4, default
symmetry c1  #important for SAPT in psi4, default
}

set PROPERTIES_ORIGIN ["COM"]
properties('MP2/aug-cc-pvtz', properties = ['dipole'])
--------------------------------------------------------------------------

    Molecular point group: c1
  Charge       = 0
  Multiplicity = 1
  Basis Set: AUG-CC-PVTZ
    Blend: AUG-CC-PVTZ
  Basis Set: (AUG-CC-PVTZ AUX)
    Blend: AUG-CC-PVTZ-JKFIT

    Orbital Energies [Eh]
    ---------------------

    Doubly Occupied:

       1A    -11.222723     2A    -11.221014     3A    -11.213982
       4A    -11.212378     5A    -11.211992     6A    -11.208251
       7A     -1.124210     8A     -1.021946     9A     -0.905895
      10A     -0.883965    11A     -0.807025    12A     -0.755105
      13A     -0.641636    14A     -0.623605    15A     -0.598435
      16A     -0.557462    17A     -0.548047    18A     -0.536185
      19A     -0.505153    20A     -0.480619    21A     -0.459863
      22A     -0.447206    23A     -0.426533    24A     -0.391694

  @DF-RHF Final Energy:  -234.22443635916741

   => Energetics <=

    Nuclear Repulsion Energy =            246.5331493846009607
    One-Electron Energy =                -803.5053209376750374
    Two-Electron Energy =                 322.7477351939066921
    Total Energy =                       -234.2244363591673846
  Basis Set: (AUG-CC-PVTZ AUX)
    Blend: AUG-CC-PVTZ-RI
    Molecular point group: c1

    Geometry (in Angstrom), charge = 0, multiplicity = 1:

       Center              X                  Y                   Z               Mass
    ------------   -----------------  -----------------  -----------------  -----------------
         C            0.003017773964     0.195305542591     0.365329406012    12.000000000000
         C            1.191601273964     1.066933142591    -0.102821593988    12.000000000000
         C            0.697998773964    -1.082676457409    -0.163753593988    12.000000000000
         C            2.051312773964    -0.366412457409     0.037053406012    12.000000000000
         C           -1.329609226036     0.612905542591    -0.227781593988    12.000000000000
         C           -2.449560226036    -0.372178457409     0.099477406012    12.000000000000
         H           -0.076431226036     0.134470542591     1.459789406012     1.007825032230
         H            1.611469773964     1.787746542591     0.645049406012     1.007825032230
         H            1.216511773964     1.352397542591    -1.036013593988     1.007825032230
         H            0.480725773964    -1.221578457409    -1.229553593988     1.007825032230
         H            0.525065773964    -2.029128457409     0.357508406012     1.007825032230
         H            2.843328773964    -0.537991457409    -0.697746593988     1.007825032230
         H            2.453383773964    -0.556259457409     1.036969406012     1.007825032230
         H           -1.593620226036     1.614749542591     0.135780406012     1.007825032230
         H           -1.216783226036     0.697027542591    -1.316866593988     1.007825032230
         H           -2.590494226036    -0.455481457409     1.181739406012     1.007825032230
         H           -2.214158226036    -1.369142457409    -0.285419593988     1.007825032230
         H           -3.400781226036    -0.058312457409    -0.340578593988     1.007825032230

  Basis Set: AUG-CC-PVTZ
    Blend: AUG-CC-PVTZ
  Basis Set: (AUG-CC-PVTZ AUX)
    Blend: AUG-CC-PVTZ-JKFIT
	 Reference Energy          =    -234.2244363591674130 [Eh]
	 Singles Energy            =      -0.0000000000000000 [Eh]
	 Same-Spin Energy          =      -0.2527238813450799 [Eh]
	 Opposite-Spin Energy      =      -0.9230134018997894 [Eh]
	 Correlation Energy        =      -1.1757372832448694 [Eh]
	 Total Energy              =    -235.4001736424122839 [Eh]

	 ================> DF-SCS-MP2 Energies <==================
	-----------------------------------------------------------
	 SCS Same-Spin Scale       =       0.3333333333333333 [-]
	 SCS Opposite-Spin Scale   =       1.2000000000000000 [-]
	 SCS Same-Spin Energy      =      -0.0842412937816933 [Eh]
	 SCS Opposite-Spin Energy  =      -1.1076160822797472 [Eh]
	 SCS Correlation Energy    =      -1.1918573760614404 [Eh]
	 SCS Total Energy          =    -235.4162937352288623 [Eh]
	-----------------------------------------------------------

  Dipole Moment: [D]
     X:    -0.0254      Y:     0.0124      Z:     0.0346     Total:     0.0447

*** Psi4 exiting successfully. Buy a developer a beer!
