                               Psi4 1.3.2 release

  ==> Input File <==

--------------------------------------------------------------------------
#psi4
#
memory 32 gb

molecule  {
0 1
  C        0.0098768     0.1906130     0.3415822
  C        1.2941630     0.9919190    -0.0205040
  C        0.7065190    -1.0643830    -0.1744580
  C        2.0598330    -0.3481190     0.0263490
  C       -1.3210890     0.6311990    -0.2384860
  C       -2.4410400    -0.3538850     0.0887730
  H       -0.0679110     0.1527640     1.4490850
  H        1.6199900     1.8060400     0.6343450
  H        1.2250320     1.3706910    -1.0467180
  H        0.4892460    -1.2032850    -1.2402580
  H        0.5335860    -2.0108350     0.3468040
  H        2.8518490    -0.5196980    -0.7084510
  H        2.4619040    -0.5379660     1.0262650
  H       -1.5851000     1.6330430     0.1250760
  H       -1.2082630     0.7153210    -1.3275710
  H       -2.5819740    -0.4371880     1.1710350
  H       -2.2056380    -1.3508490    -0.2961240
  H       -3.3922610    -0.0400190    -0.3512830
units angstrom
no_reorient  #important for SAPT in psi4, default
symmetry c1  #important for SAPT in psi4, default
}

set PROPERTIES_ORIGIN ["COM"]
properties('MP2/aug-cc-pvtz', properties = ['dipole'])
--------------------------------------------------------------------------

    Molecular point group: c1
  Charge       = 0
  Multiplicity = 1
  Basis Set: AUG-CC-PVTZ
    Blend: AUG-CC-PVTZ
  Basis Set: (AUG-CC-PVTZ AUX)
    Blend: AUG-CC-PVTZ-JKFIT

    Orbital Energies [Eh]
    ---------------------

    Doubly Occupied:

       1A    -11.219635     2A    -11.215941     3A    -11.214055
       4A    -11.213648     5A    -11.213535     6A    -11.209507
       7A     -1.135756     8A     -1.027282     9A     -0.897438
      10A     -0.890184    11A     -0.808541    12A     -0.741910
      13A     -0.649769    14A     -0.626409    15A     -0.601721
      16A     -0.552131    17A     -0.533121    18A     -0.530519
      19A     -0.507617    20A     -0.477634    21A     -0.463066
      22A     -0.442692    23A     -0.430332    24A     -0.416325

  @DF-RHF Final Energy:  -234.24795923174673

   => Energetics <=

    Nuclear Repulsion Energy =            247.4341334241316872
    One-Electron Energy =                -805.3266442538592855
    Two-Electron Energy =                 323.6445515979808647
    Total Energy =                       -234.2479592317467336
  Basis Set: (AUG-CC-PVTZ AUX)
    Blend: AUG-CC-PVTZ-RI
    Molecular point group: c1

    Geometry (in Angstrom), charge = 0, multiplicity = 1:

       Center              X                  Y                   Z               Mass
    ------------   -----------------  -----------------  -----------------  -----------------
         C           -0.011825875594     0.188914363304     0.340873763992    12.000000000000
         C            1.272460324406     0.990220363304    -0.021212436008    12.000000000000
         C            0.684816324406    -1.066081636696    -0.175166436008    12.000000000000
         C            2.038130324406    -0.349817636696     0.025640563992    12.000000000000
         C           -1.342791675594     0.629500363304    -0.239194436008    12.000000000000
         C           -2.462742675594    -0.355583636696     0.088064563992    12.000000000000
         H           -0.089613675594     0.151065363304     1.448376563992     1.007825032230
         H            1.598287324406     1.804341363304     0.633636563992     1.007825032230
         H            1.203329324406     1.368992363304    -1.047426436008     1.007825032230
         H            0.467543324406    -1.204983636696    -1.240966436008     1.007825032230
         H            0.511883324406    -2.012533636696     0.346095563992     1.007825032230
         H            2.830146324406    -0.521396636696    -0.709159436008     1.007825032230
         H            2.440201324406    -0.539664636696     1.025556563992     1.007825032230
         H           -1.606802675594     1.631344363304     0.124367563992     1.007825032230
         H           -1.229965675594     0.713622363304    -1.328279436008     1.007825032230
         H           -2.603676675594    -0.438886636696     1.170326563992     1.007825032230
         H           -2.227340675594    -1.352547636696    -0.296832436008     1.007825032230
         H           -3.413963675594    -0.041717636696    -0.351991436008     1.007825032230

  Basis Set: AUG-CC-PVTZ
    Blend: AUG-CC-PVTZ
  Basis Set: (AUG-CC-PVTZ AUX)
    Blend: AUG-CC-PVTZ-JKFIT
	 Reference Energy          =    -234.2479592317467336 [Eh]
	 Singles Energy            =      -0.0000000000000000 [Eh]
	 Same-Spin Energy          =      -0.2526917129230206 [Eh]
	 Opposite-Spin Energy      =      -0.9215646441882832 [Eh]
	 Correlation Energy        =      -1.1742563571113038 [Eh]
	 Total Energy              =    -235.4222155888580232 [Eh]

	 ================> DF-SCS-MP2 Energies <==================
	-----------------------------------------------------------
	 SCS Same-Spin Scale       =       0.3333333333333333 [-]
	 SCS Opposite-Spin Scale   =       1.2000000000000000 [-]
	 SCS Same-Spin Energy      =      -0.0842305709743402 [Eh]
	 SCS Opposite-Spin Energy  =      -1.1058775730259398 [Eh]
	 SCS Correlation Energy    =      -1.1901081440002801 [Eh]
	 SCS Total Energy          =    -235.4380673757470106 [Eh]
	-----------------------------------------------------------

  Dipole Moment: [D]
     X:    -0.0588      Y:     0.0484      Z:     0.0512     Total:     0.0917

*** Psi4 exiting successfully. Buy a developer a beer!
