                               Psi4 1.3.2 release

  ==> Input File <==

--------------------------------------------------------------------------
#psi4
#
memory 32 gb

molecule  {
0 1
  C        0.0115380     0.2135990     0.3546250
  C        1.2941630     0.9919190    -0.0205040
  C        0.7065190    -1.0643830    -0.1744580
  C        2.0598330    -0.3481190     0.0263490
  C       -1.2993332     0.6287755    -0.2867097
  C       -2.4410400    -0.3538850     0.0887730
  H       -0.0679110     0.1527640     1.4490850
  H        1.6199900     1.8060400     0.6343450
  H        1.2250320     1.3706910    -1.0467180
  H        0.4892460    -1.2032850    -1.2402580
  H        0.5335860    -2.0108350     0.3468040
  H        2.8518490    -0.5196980    -0.7084510
  H        2.4619040    -0.5379660     1.0262650
  H       -1.5851000     1.6330430     0.1250760
  H       -1.2082630     0.7153210    -1.3275710
  H       -2.5819740    -0.4371880     1.1710350
  H       -2.2056380    -1.3508490    -0.2961240
  H       -3.3922610    -0.0400190    -0.3512830
units angstrom
no_reorient  #important for SAPT in psi4, default
symmetry c1  #important for SAPT in psi4, default
}

set PROPERTIES_ORIGIN ["COM"]
properties('MP2/aug-cc-pvtz', properties = ['dipole'])
--------------------------------------------------------------------------

    Molecular point group: c1
  Charge       = 0
  Multiplicity = 1
  Basis Set: AUG-CC-PVTZ
    Blend: AUG-CC-PVTZ
  Basis Set: (AUG-CC-PVTZ AUX)
    Blend: AUG-CC-PVTZ-JKFIT

    Orbital Energies [Eh]
    ---------------------

    Doubly Occupied:

       1A    -11.219277     2A    -11.215498     3A    -11.213379
       4A    -11.213192     5A    -11.213063     6A    -11.210433
       7A     -1.134182     8A     -1.023355     9A     -0.898229
      10A     -0.887624    11A     -0.810790    12A     -0.745033
      13A     -0.648837    14A     -0.625158    15A     -0.600414
      16A     -0.549864    17A     -0.533965    18A     -0.529861
      19A     -0.503948    20A     -0.490480    21A     -0.458433
      22A     -0.448795    23A     -0.422764    24A     -0.414800

  @DF-RHF Final Energy:  -234.24581902178954

   => Energetics <=

    Nuclear Repulsion Energy =            247.2511519019272725
    One-Electron Energy =                -804.9711909268803538
    Two-Electron Energy =                 323.4742200031635093
    Total Energy =                       -234.2458190217895435
  Basis Set: (AUG-CC-PVTZ AUX)
    Blend: AUG-CC-PVTZ-RI
    Molecular point group: c1

    Geometry (in Angstrom), charge = 0, multiplicity = 1:

       Center              X                  Y                   Z               Mass
    ------------   -----------------  -----------------  -----------------  -----------------
         C           -0.013506225917     0.208966143357     0.358936794925    12.000000000000
         C            1.269118774083     0.987286143357    -0.016192205075    12.000000000000
         C            0.681474774083    -1.069015856643    -0.170146205075    12.000000000000
         C            2.034788774083    -0.352751856643     0.030660794925    12.000000000000
         C           -1.324377425917     0.624142643357    -0.282397905075    12.000000000000
         C           -2.466084225917    -0.358517856643     0.093084794925    12.000000000000
         H           -0.092955225917     0.148131143357     1.453396794925     1.007825032230
         H            1.594945774083     1.801407143357     0.638656794925     1.007825032230
         H            1.199987774083     1.366058143357    -1.042406205075     1.007825032230
         H            0.464201774083    -1.207917856643    -1.235946205075     1.007825032230
         H            0.508541774083    -2.015467856643     0.351115794925     1.007825032230
         H            2.826804774083    -0.524330856643    -0.704139205075     1.007825032230
         H            2.436859774083    -0.542598856643     1.030576794925     1.007825032230
         H           -1.610144225917     1.628410143357     0.129387794925     1.007825032230
         H           -1.233307225917     0.710688143357    -1.323259205075     1.007825032230
         H           -2.607018225917    -0.441820856643     1.175346794925     1.007825032230
         H           -2.230682225917    -1.355481856643    -0.291812205075     1.007825032230
         H           -3.417305225917    -0.044651856643    -0.346971205075     1.007825032230

  Basis Set: AUG-CC-PVTZ
    Blend: AUG-CC-PVTZ
  Basis Set: (AUG-CC-PVTZ AUX)
    Blend: AUG-CC-PVTZ-JKFIT
	 Reference Energy          =    -234.2458190217895435 [Eh]
	 Singles Energy            =      -0.0000000000000000 [Eh]
	 Same-Spin Energy          =      -0.2524931128716809 [Eh]
	 Opposite-Spin Energy      =      -0.9215248328688419 [Eh]
	 Correlation Energy        =      -1.1740179457405229 [Eh]
	 Total Energy              =    -235.4198369675300739 [Eh]

	 ================> DF-SCS-MP2 Energies <==================
	-----------------------------------------------------------
	 SCS Same-Spin Scale       =       0.3333333333333333 [-]
	 SCS Opposite-Spin Scale   =       1.2000000000000000 [-]
	 SCS Same-Spin Energy      =      -0.0841643709572270 [Eh]
	 SCS Opposite-Spin Energy  =      -1.1058297994426103 [Eh]
	 SCS Correlation Energy    =      -1.1899941703998373 [Eh]
	 SCS Total Energy          =    -235.4358131921893857 [Eh]
	-----------------------------------------------------------

  Dipole Moment: [D]
     X:    -0.0565      Y:     0.0425      Z:     0.0347     Total:     0.0788

*** Psi4 exiting successfully. Buy a developer a beer!
