                               Psi4 1.3.2 release

  ==> Input File <==

--------------------------------------------------------------------------
#psi4
#
memory 32 gb

molecule  {
0 1
  C        0.0115380     0.2135990     0.3546250
  C        1.3224339     0.9588682     0.0114684
  C        0.7065190    -1.0643830    -0.1744580
  C        2.0598330    -0.3481190     0.0263490
  C       -1.3210890     0.6311990    -0.2384860
  C       -2.4410400    -0.3538850     0.0887730
  H       -0.0679110     0.1527640     1.4490850
  H        1.6199900     1.8060400     0.6343450
  H        1.2250320     1.3706910    -1.0467180
  H        0.4892460    -1.2032850    -1.2402580
  H        0.5335860    -2.0108350     0.3468040
  H        2.8518490    -0.5196980    -0.7084510
  H        2.4619040    -0.5379660     1.0262650
  H       -1.5851000     1.6330430     0.1250760
  H       -1.2082630     0.7153210    -1.3275710
  H       -2.5819740    -0.4371880     1.1710350
  H       -2.2056380    -1.3508490    -0.2961240
  H       -3.3922610    -0.0400190    -0.3512830
units angstrom
no_reorient  #important for SAPT in psi4, default
symmetry c1  #important for SAPT in psi4, default
}

set PROPERTIES_ORIGIN ["COM"]
properties('MP2/aug-cc-pvtz', properties = ['dipole'])
--------------------------------------------------------------------------

    Molecular point group: c1
  Charge       = 0
  Multiplicity = 1
  Basis Set: AUG-CC-PVTZ
    Blend: AUG-CC-PVTZ
  Basis Set: (AUG-CC-PVTZ AUX)
    Blend: AUG-CC-PVTZ-JKFIT

    Orbital Energies [Eh]
    ---------------------

    Doubly Occupied:

       1A    -11.218631     2A    -11.215862     3A    -11.214781
       4A    -11.214510     5A    -11.213807     6A    -11.210283
       7A     -1.138954     8A     -1.029039     9A     -0.898960
      10A     -0.888913    11A     -0.809293    12A     -0.739994
      13A     -0.651543    14A     -0.627038    15A     -0.602247
      16A     -0.555377    17A     -0.533476    18A     -0.524202
      19A     -0.506317    20A     -0.476566    21A     -0.470904
      22A     -0.439175    23A     -0.426678    24A     -0.419836

  @DF-RHF Final Energy:  -234.24549375965569

   => Energetics <=

    Nuclear Repulsion Energy =            247.5827482414808571
    One-Electron Energy =                -805.6037115344363428
    Two-Electron Energy =                 323.7754695332997699
    Total Energy =                       -234.2454937596556874
  Basis Set: (AUG-CC-PVTZ AUX)
    Blend: AUG-CC-PVTZ-RI
    Molecular point group: c1

    Geometry (in Angstrom), charge = 0, multiplicity = 1:

       Center              X                  Y                   Z               Mass
    ------------   -----------------  -----------------  -----------------  -----------------
         C           -0.014435915225     0.213336586377     0.347493001789    12.000000000000
         C            1.296459984775     0.958605786377     0.004336401789    12.000000000000
         C            0.680545084775    -1.064645413623    -0.181589998211    12.000000000000
         C            2.033859084775    -0.348381413623     0.019217001789    12.000000000000
         C           -1.347062915225     0.630936586377    -0.245617998211    12.000000000000
         C           -2.467013915225    -0.354147413623     0.081641001789    12.000000000000
         H           -0.093884915225     0.152501586377     1.441953001789     1.007825032230
         H            1.594016084775     1.805777586377     0.627213001789     1.007825032230
         H            1.199058084775     1.370428586377    -1.053849998211     1.007825032230
         H            0.463272084775    -1.203547413623    -1.247389998211     1.007825032230
         H            0.507612084775    -2.011097413623     0.339672001789     1.007825032230
         H            2.825875084775    -0.519960413623    -0.715582998211     1.007825032230
         H            2.435930084775    -0.538228413623     1.019133001789     1.007825032230
         H           -1.611073915225     1.632780586377     0.117944001789     1.007825032230
         H           -1.234236915225     0.715058586377    -1.334702998211     1.007825032230
         H           -2.607947915225    -0.437450413623     1.163903001789     1.007825032230
         H           -2.231611915225    -1.351111413623    -0.303255998211     1.007825032230
         H           -3.418234915225    -0.040281413623    -0.358414998211     1.007825032230

  Basis Set: AUG-CC-PVTZ
    Blend: AUG-CC-PVTZ
  Basis Set: (AUG-CC-PVTZ AUX)
    Blend: AUG-CC-PVTZ-JKFIT
	 Reference Energy          =    -234.2454937596556874 [Eh]
	 Singles Energy            =      -0.0000000000000000 [Eh]
	 Same-Spin Energy          =      -0.2528928378371197 [Eh]
	 Opposite-Spin Energy      =      -0.9216991239933257 [Eh]
	 Correlation Energy        =      -1.1745919618304455 [Eh]
	 Total Energy              =    -235.4200857214861458 [Eh]

	 ================> DF-SCS-MP2 Energies <==================
	-----------------------------------------------------------
	 SCS Same-Spin Scale       =       0.3333333333333333 [-]
	 SCS Opposite-Spin Scale   =       1.2000000000000000 [-]
	 SCS Same-Spin Energy      =      -0.0842976126123732 [Eh]
	 SCS Opposite-Spin Energy  =      -1.1060389487919908 [Eh]
	 SCS Correlation Energy    =      -1.1903365614043642 [Eh]
	 SCS Total Energy          =    -235.4358303210600525 [Eh]
	-----------------------------------------------------------

  Dipole Moment: [D]
     X:    -0.0777      Y:     0.0379      Z:     0.0746     Total:     0.1142

*** Psi4 exiting successfully. Buy a developer a beer!
