                               Psi4 1.3.2 release

  ==> Input File <==

--------------------------------------------------------------------------
#psi4
#
memory 32 gb

molecule  {
0 1
  C       -0.0639461     0.0870480     0.4138610
  C        1.2941630     0.9919190    -0.0205040
  C        0.7065190    -1.0643830    -0.1744580
  C        2.0598330    -0.3481190     0.0263490
  C       -1.3210890     0.6311990    -0.2384860
  C       -2.4410400    -0.3538850     0.0887730
  H       -0.0679110     0.1527640     1.4490850
  H        1.6199900     1.8060400     0.6343450
  H        1.2250320     1.3706910    -1.0467180
  H        0.4892460    -1.2032850    -1.2402580
  H        0.5335860    -2.0108350     0.3468040
  H        2.8518490    -0.5196980    -0.7084510
  H        2.4619040    -0.5379660     1.0262650
  H       -1.5851000     1.6330430     0.1250760
  H       -1.2082630     0.7153210    -1.3275710
  H       -2.5819740    -0.4371880     1.1710350
  H       -2.2056380    -1.3508490    -0.2961240
  H       -3.3922610    -0.0400190    -0.3512830
units angstrom
no_reorient  #important for SAPT in psi4, default
symmetry c1  #important for SAPT in psi4, default
}

set PROPERTIES_ORIGIN ["COM"]
properties('MP2/aug-cc-pvtz', properties = ['dipole'])
--------------------------------------------------------------------------

    Molecular point group: c1
  Charge       = 0
  Multiplicity = 1
  Basis Set: AUG-CC-PVTZ
    Blend: AUG-CC-PVTZ
  Basis Set: (AUG-CC-PVTZ AUX)
    Blend: AUG-CC-PVTZ-JKFIT

    Orbital Energies [Eh]
    ---------------------

    Doubly Occupied:

       1A    -11.219614     2A    -11.216182     3A    -11.215499
       4A    -11.215480     5A    -11.214837     6A    -11.207312
       7A     -1.125905     8A     -1.028342     9A     -0.897270
      10A     -0.885413    11A     -0.806170    12A     -0.753524
      13A     -0.643348    14A     -0.626685    15A     -0.603559
      16A     -0.556769    17A     -0.532438    18A     -0.525616
      19A     -0.511030    20A     -0.481627    21A     -0.466965
      22A     -0.456366    23A     -0.435966    24A     -0.376063

  @DF-RHF Final Energy:  -234.22952341344021

   => Energetics <=

    Nuclear Repulsion Energy =            246.7800892043151464
    One-Electron Energy =                -804.0152710554845044
    Two-Electron Energy =                 323.0056584377292097
    Total Energy =                       -234.2295234134401767
  Basis Set: (AUG-CC-PVTZ AUX)
    Blend: AUG-CC-PVTZ-RI
    Molecular point group: c1

    Geometry (in Angstrom), charge = 0, multiplicity = 1:

       Center              X                  Y                   Z               Mass
    ------------   -----------------  -----------------  -----------------  -----------------
         C           -0.075114422973     0.100127843007     0.402838550775    12.000000000000
         C            1.282994677027     1.004998843007    -0.031526449225    12.000000000000
         C            0.695350677027    -1.051303156993    -0.185480449225    12.000000000000
         C            2.048664677027    -0.335039156993     0.015326550775    12.000000000000
         C           -1.332257322973     0.644278843007    -0.249508449225    12.000000000000
         C           -2.452208322973    -0.340805156993     0.077750550775    12.000000000000
         H           -0.079079322973     0.165843843007     1.438062550775     1.007825032230
         H            1.608821677027     1.819119843007     0.623322550775     1.007825032230
         H            1.213863677027     1.383770843007    -1.057740449225     1.007825032230
         H            0.478077677027    -1.190205156993    -1.251280449225     1.007825032230
         H            0.522417677027    -1.997755156993     0.335781550775     1.007825032230
         H            2.840680677027    -0.506618156993    -0.719473449225     1.007825032230
         H            2.450735677027    -0.524886156993     1.015242550775     1.007825032230
         H           -1.596268322973     1.646122843007     0.114053550775     1.007825032230
         H           -1.219431322973     0.728400843007    -1.338593449225     1.007825032230
         H           -2.593142322973    -0.424108156993     1.160012550775     1.007825032230
         H           -2.216806322973    -1.337769156993    -0.307146449225     1.007825032230
         H           -3.403429322973    -0.026939156993    -0.362305449225     1.007825032230

  Basis Set: AUG-CC-PVTZ
    Blend: AUG-CC-PVTZ
  Basis Set: (AUG-CC-PVTZ AUX)
    Blend: AUG-CC-PVTZ-JKFIT
	 Reference Energy          =    -234.2295234134402051 [Eh]
	 Singles Energy            =      -0.0000000000000000 [Eh]
	 Same-Spin Energy          =      -0.2530790698943152 [Eh]
	 Opposite-Spin Energy      =      -0.9232743679964164 [Eh]
	 Correlation Energy        =      -1.1763534378907314 [Eh]
	 Total Energy              =    -235.4058768513309303 [Eh]

	 ================> DF-SCS-MP2 Energies <==================
	-----------------------------------------------------------
	 SCS Same-Spin Scale       =       0.3333333333333333 [-]
	 SCS Opposite-Spin Scale   =       1.2000000000000000 [-]
	 SCS Same-Spin Energy      =      -0.0843596899647717 [Eh]
	 SCS Opposite-Spin Energy  =      -1.1079292415956996 [Eh]
	 SCS Correlation Energy    =      -1.1922889315604714 [Eh]
	 SCS Total Energy          =    -235.4218123450006885 [Eh]
	-----------------------------------------------------------

  Dipole Moment: [D]
     X:    -0.0720      Y:     0.0715      Z:     0.0577     Total:     0.1167

*** Psi4 exiting successfully. Buy a developer a beer!
