                               Psi4 1.3.2 release

  ==> Input File <==

--------------------------------------------------------------------------
#psi4
#
memory 32 gb

molecule  {
0 1
  C       -0.0000492     0.1921513     0.3649674
  C        1.2941630     0.9919190    -0.0205040
  C        0.7065190    -1.0643830    -0.1744580
  C        2.0598330    -0.3481190     0.0263490
  C       -1.3210890     0.6311990    -0.2384860
  C       -2.4410400    -0.3538850     0.0887730
  H       -0.0679110     0.1527640     1.4490850
  H        1.6199900     1.8060400     0.6343450
  H        1.2250320     1.3706910    -1.0467180
  H        0.4892460    -1.2032850    -1.2402580
  H        0.5335860    -2.0108350     0.3468040
  H        2.8518490    -0.5196980    -0.7084510
  H        2.4619040    -0.5379660     1.0262650
  H       -1.5851000     1.6330430     0.1250760
  H       -1.2082630     0.7153210    -1.3275710
  H       -2.5819740    -0.4371880     1.1710350
  H       -2.2056380    -1.3508490    -0.2961240
  H       -3.3922610    -0.0400190    -0.3512830
units angstrom
no_reorient  #important for SAPT in psi4, default
symmetry c1  #important for SAPT in psi4, default
}

set PROPERTIES_ORIGIN ["COM"]
properties('MP2/aug-cc-pvtz', properties = ['dipole'])
--------------------------------------------------------------------------

    Molecular point group: c1
  Charge       = 0
  Multiplicity = 1
  Basis Set: AUG-CC-PVTZ
    Blend: AUG-CC-PVTZ
  Basis Set: (AUG-CC-PVTZ AUX)
    Blend: AUG-CC-PVTZ-JKFIT

    Orbital Energies [Eh]
    ---------------------

    Doubly Occupied:

       1A    -11.218696     2A    -11.215640     3A    -11.214144
       4A    -11.214020     5A    -11.213948     6A    -11.209213
       7A     -1.132506     8A     -1.027090     9A     -0.897280
      10A     -0.888577    11A     -0.807962    12A     -0.745213
      13A     -0.648027    14A     -0.625532    15A     -0.601552
      16A     -0.552851    17A     -0.533208    18A     -0.530948
      19A     -0.506848    20A     -0.478437    21A     -0.462002
      22A     -0.447991    23A     -0.426447    24A     -0.414176

  @DF-RHF Final Energy:  -234.24819518073599

   => Energetics <=

    Nuclear Repulsion Energy =            247.2141184042146165
    One-Electron Energy =                -804.9000125589179788
    Two-Electron Energy =                 323.4376989739674286
    Total Energy =                       -234.2481951807359906
  Basis Set: (AUG-CC-PVTZ AUX)
    Blend: AUG-CC-PVTZ-RI
    Molecular point group: c1

    Geometry (in Angstrom), charge = 0, multiplicity = 1:

       Center              X                  Y                   Z               Mass
    ------------   -----------------  -----------------  -----------------  -----------------
         C           -0.020335458952     0.190233151545     0.360921951453    12.000000000000
         C            1.273876741048     0.990000851545    -0.024549448547    12.000000000000
         C            0.686232741048    -1.066301148455    -0.178503448547    12.000000000000
         C            2.039546741048    -0.350037148455     0.022303551453    12.000000000000
         C           -1.341375258952     0.629280851545    -0.242531448547    12.000000000000
         C           -2.461326258952    -0.355803148455     0.084727551453    12.000000000000
         H           -0.088197258952     0.150845851545     1.445039551453     1.007825032230
         H            1.599703741048     1.804121851545     0.630299551453     1.007825032230
         H            1.204745741048     1.368772851545    -1.050763448547     1.007825032230
         H            0.468959741048    -1.205203148455    -1.244303448547     1.007825032230
         H            0.513299741048    -2.012753148455     0.342758551453     1.007825032230
         H            2.831562741048    -0.521616148455    -0.712496448547     1.007825032230
         H            2.441617741048    -0.539884148455     1.022219551453     1.007825032230
         H           -1.605386258952     1.631124851545     0.121030551453     1.007825032230
         H           -1.228549258952     0.713402851545    -1.331616448547     1.007825032230
         H           -2.602260258952    -0.439106148455     1.166989551453     1.007825032230
         H           -2.225924258952    -1.352767148455    -0.300169448547     1.007825032230
         H           -3.412547258952    -0.041937148455    -0.355328448547     1.007825032230

  Basis Set: AUG-CC-PVTZ
    Blend: AUG-CC-PVTZ
  Basis Set: (AUG-CC-PVTZ AUX)
    Blend: AUG-CC-PVTZ-JKFIT
	 Reference Energy          =    -234.2481951807359906 [Eh]
	 Singles Energy            =      -0.0000000000000000 [Eh]
	 Same-Spin Energy          =      -0.2525532606024190 [Eh]
	 Opposite-Spin Energy      =      -0.9215138380206003 [Eh]
	 Correlation Energy        =      -1.1740670986230193 [Eh]
	 Total Energy              =    -235.4222622793590176 [Eh]

	 ================> DF-SCS-MP2 Energies <==================
	-----------------------------------------------------------
	 SCS Same-Spin Scale       =       0.3333333333333333 [-]
	 SCS Opposite-Spin Scale   =       1.2000000000000000 [-]
	 SCS Same-Spin Energy      =      -0.0841844202008063 [Eh]
	 SCS Opposite-Spin Energy  =      -1.1058166056247203 [Eh]
	 SCS Correlation Energy    =      -1.1900010258255267 [Eh]
	 SCS Total Energy          =    -235.4381962065615141 [Eh]
	-----------------------------------------------------------

  Dipole Moment: [D]
     X:    -0.0643      Y:     0.0515      Z:     0.0591     Total:     0.1014

*** Psi4 exiting successfully. Buy a developer a beer!
