                               Psi4 1.3.2 release

  ==> Input File <==

--------------------------------------------------------------------------
#psi4
#
memory 32 gb

molecule  {
0 1
  C        0.0115380     0.2135990     0.3546250
  C        1.2941630     0.9919190    -0.0205040
  C        0.7065190    -1.0643830    -0.1744580
  C        2.0598330    -0.3481190     0.0263490
  C       -1.2332576     0.6036756    -0.1993950
  C       -2.4410400    -0.3538850     0.0887730
  H       -0.0679110     0.1527640     1.4490850
  H        1.6199900     1.8060400     0.6343450
  H        1.2250320     1.3706910    -1.0467180
  H        0.4892460    -1.2032850    -1.2402580
  H        0.5335860    -2.0108350     0.3468040
  H        2.8518490    -0.5196980    -0.7084510
  H        2.4619040    -0.5379660     1.0262650
  H       -1.5851000     1.6330430     0.1250760
  H       -1.2082630     0.7153210    -1.3275710
  H       -2.5819740    -0.4371880     1.1710350
  H       -2.2056380    -1.3508490    -0.2961240
  H       -3.3922610    -0.0400190    -0.3512830
units angstrom
no_reorient  #important for SAPT in psi4, default
symmetry c1  #important for SAPT in psi4, default
}

set PROPERTIES_ORIGIN ["COM"]
properties('MP2/aug-cc-pvtz', properties = ['dipole'])
--------------------------------------------------------------------------

    Molecular point group: c1
  Charge       = 0
  Multiplicity = 1
  Basis Set: AUG-CC-PVTZ
    Blend: AUG-CC-PVTZ
  Basis Set: (AUG-CC-PVTZ AUX)
    Blend: AUG-CC-PVTZ-JKFIT

    Orbital Energies [Eh]
    ---------------------

    Doubly Occupied:

       1A    -11.218066     2A    -11.216357     3A    -11.215193
       4A    -11.214775     5A    -11.214387     6A    -11.211948
       7A     -1.141198     8A     -1.026840     9A     -0.907121
      10A     -0.890272    11A     -0.804970    12A     -0.745295
      13A     -0.651008    14A     -0.633150    15A     -0.595124
      16A     -0.554837    17A     -0.536446    18A     -0.531823
      19A     -0.507831    20A     -0.473044    21A     -0.456539
      22A     -0.453934    23A     -0.419839    24A     -0.418382

  @DF-RHF Final Energy:  -234.23720167609233

   => Energetics <=

    Nuclear Repulsion Energy =            248.4164491119478839
    One-Electron Energy =                -807.2305423431664622
    Two-Electron Energy =                 324.5768915551262239
    Total Energy =                       -234.2372016760922975
  Basis Set: (AUG-CC-PVTZ AUX)
    Blend: AUG-CC-PVTZ-RI
    Molecular point group: c1

    Geometry (in Angstrom), charge = 0, multiplicity = 1:

       Center              X                  Y                   Z               Mass
    ------------   -----------------  -----------------  -----------------  -----------------
         C           -0.022935057216     0.212547839515     0.346477194464    12.000000000000
         C            1.259689942784     0.990867839515    -0.028651805536    12.000000000000
         C            0.672045942784    -1.065434160485    -0.182605805536    12.000000000000
         C            2.025359942784    -0.349170160485     0.018201194464    12.000000000000
         C           -1.267730657216     0.602624439515    -0.207542805536    12.000000000000
         C           -2.475513057216    -0.354936160485     0.080625194464    12.000000000000
         H           -0.102384057216     0.151712839515     1.440937194464     1.007825032230
         H            1.585516942784     1.804988839515     0.626197194464     1.007825032230
         H            1.190558942784     1.369639839515    -1.054865805536     1.007825032230
         H            0.454772942784    -1.204336160485    -1.248405805536     1.007825032230
         H            0.499112942784    -2.011886160485     0.338656194464     1.007825032230
         H            2.817375942784    -0.520749160485    -0.716598805536     1.007825032230
         H            2.427430942784    -0.539017160485     1.018117194464     1.007825032230
         H           -1.619573057216     1.631991839515     0.116928194464     1.007825032230
         H           -1.242736057216     0.714269839515    -1.335718805536     1.007825032230
         H           -2.616447057216    -0.438239160485     1.162887194464     1.007825032230
         H           -2.240111057216    -1.351900160485    -0.304271805536     1.007825032230
         H           -3.426734057216    -0.041070160485    -0.359430805536     1.007825032230

  Basis Set: AUG-CC-PVTZ
    Blend: AUG-CC-PVTZ
  Basis Set: (AUG-CC-PVTZ AUX)
    Blend: AUG-CC-PVTZ-JKFIT
	 Reference Energy          =    -234.2372016760923259 [Eh]
	 Singles Energy            =      -0.0000000000000000 [Eh]
	 Same-Spin Energy          =      -0.2534825777793154 [Eh]
	 Opposite-Spin Energy      =      -0.9227262560067557 [Eh]
	 Correlation Energy        =      -1.1762088337860712 [Eh]
	 Total Energy              =    -235.4134105098783891 [Eh]

	 ================> DF-SCS-MP2 Energies <==================
	-----------------------------------------------------------
	 SCS Same-Spin Scale       =       0.3333333333333333 [-]
	 SCS Opposite-Spin Scale   =       1.2000000000000000 [-]
	 SCS Same-Spin Energy      =      -0.0844941925931051 [Eh]
	 SCS Opposite-Spin Energy  =      -1.1072715072081067 [Eh]
	 SCS Correlation Energy    =      -1.1917656998012118 [Eh]
	 SCS Total Energy          =    -235.4289673758935351 [Eh]
	-----------------------------------------------------------

  Dipole Moment: [D]
     X:    -0.0310      Y:     0.0301      Z:     0.0681     Total:     0.0806

*** Psi4 exiting successfully. Buy a developer a beer!
