                               Psi4 1.3.2 release

  ==> Input File <==

--------------------------------------------------------------------------
#psi4
#
memory 32 gb

molecule  {
0 1
  C        0.0115380     0.2135990     0.3546250
  C        1.2941630     0.9919190    -0.0205040
  C        0.7065190    -1.0643830    -0.1744580
  C        2.0598330    -0.3481190     0.0263490
  C       -1.3313596     0.6322201    -0.2140995
  C       -2.4410400    -0.3538850     0.0887730
  H       -0.0679110     0.1527640     1.4490850
  H        1.6199900     1.8060400     0.6343450
  H        1.2250320     1.3706910    -1.0467180
  H        0.4892460    -1.2032850    -1.2402580
  H        0.5335860    -2.0108350     0.3468040
  H        2.8518490    -0.5196980    -0.7084510
  H        2.4619040    -0.5379660     1.0262650
  H       -1.5851000     1.6330430     0.1250760
  H       -1.2082630     0.7153210    -1.3275710
  H       -2.5819740    -0.4371880     1.1710350
  H       -2.2056380    -1.3508490    -0.2961240
  H       -3.3922610    -0.0400190    -0.3512830
units angstrom
no_reorient  #important for SAPT in psi4, default
symmetry c1  #important for SAPT in psi4, default
}

set PROPERTIES_ORIGIN ["COM"]
properties('MP2/aug-cc-pvtz', properties = ['dipole'])
--------------------------------------------------------------------------

    Molecular point group: c1
  Charge       = 0
  Multiplicity = 1
  Basis Set: AUG-CC-PVTZ
    Blend: AUG-CC-PVTZ
  Basis Set: (AUG-CC-PVTZ AUX)
    Blend: AUG-CC-PVTZ-JKFIT

    Orbital Energies [Eh]
    ---------------------

    Doubly Occupied:

       1A    -11.219235     2A    -11.215952     3A    -11.214652
       4A    -11.214255     5A    -11.214024     6A    -11.209500
       7A     -1.134097     8A     -1.028982     9A     -0.899442
      10A     -0.888182    11A     -0.807762    12A     -0.742785
      13A     -0.648962    14A     -0.626366    15A     -0.601137
      16A     -0.555021    17A     -0.535006    18A     -0.530713
      19A     -0.507402    20A     -0.472187    21A     -0.464051
      22A     -0.442650    23A     -0.426757    24A     -0.420467

  @DF-RHF Final Energy:  -234.24778617594308

   => Energetics <=

    Nuclear Repulsion Energy =            247.3074345259096845
    One-Electron Energy =                -805.0712665255980482
    Two-Electron Energy =                 323.5160458237452872
    Total Energy =                       -234.2477861759430766
  Basis Set: (AUG-CC-PVTZ AUX)
    Blend: AUG-CC-PVTZ-RI
    Molecular point group: c1

    Geometry (in Angstrom), charge = 0, multiplicity = 1:

       Center              X                  Y                   Z               Mass
    ------------   -----------------  -----------------  -----------------  -----------------
         C           -0.008936134648     0.208474607112     0.348575491715    12.000000000000
         C            1.273688865352     0.986794607112    -0.026553508285    12.000000000000
         C            0.686044865352    -1.069507392888    -0.180507508285    12.000000000000
         C            2.039358865352    -0.353243392888     0.020299491715    12.000000000000
         C           -1.351833734648     0.627095707112    -0.220149008285    12.000000000000
         C           -2.461514134648    -0.359009392888     0.082723491715    12.000000000000
         H           -0.088385134648     0.147639607112     1.443035491715     1.007825032230
         H            1.599515865352     1.800915607112     0.628295491715     1.007825032230
         H            1.204557865352     1.365566607112    -1.052767508285     1.007825032230
         H            0.468771865352    -1.208409392888    -1.246307508285     1.007825032230
         H            0.513111865352    -2.015959392888     0.340754491715     1.007825032230
         H            2.831374865352    -0.524822392888    -0.714500508285     1.007825032230
         H            2.441429865352    -0.543090392888     1.020215491715     1.007825032230
         H           -1.605574134648     1.627918607112     0.119026491715     1.007825032230
         H           -1.228737134648     0.710196607112    -1.333620508285     1.007825032230
         H           -2.602448134648    -0.442312392888     1.164985491715     1.007825032230
         H           -2.226112134648    -1.355973392888    -0.302173508285     1.007825032230
         H           -3.412735134648    -0.045143392888    -0.357332508285     1.007825032230

  Basis Set: AUG-CC-PVTZ
    Blend: AUG-CC-PVTZ
  Basis Set: (AUG-CC-PVTZ AUX)
    Blend: AUG-CC-PVTZ-JKFIT
	 Reference Energy          =    -234.2477861759430766 [Eh]
	 Singles Energy            =      -0.0000000000000000 [Eh]
	 Same-Spin Energy          =      -0.2526874759351496 [Eh]
	 Opposite-Spin Energy      =      -0.9215719323945907 [Eh]
	 Correlation Energy        =      -1.1742594083297402 [Eh]
	 Total Energy              =    -235.4220455842728086 [Eh]

	 ================> DF-SCS-MP2 Energies <==================
	-----------------------------------------------------------
	 SCS Same-Spin Scale       =       0.3333333333333333 [-]
	 SCS Opposite-Spin Scale   =       1.2000000000000000 [-]
	 SCS Same-Spin Energy      =      -0.0842291586450498 [Eh]
	 SCS Opposite-Spin Energy  =      -1.1058863188735089 [Eh]
	 SCS Correlation Energy    =      -1.1901154775185587 [Eh]
	 SCS Total Energy          =    -235.4379016534616369 [Eh]
	-----------------------------------------------------------

  Dipole Moment: [D]
     X:    -0.0666      Y:     0.0481      Z:     0.0709     Total:     0.1085

*** Psi4 exiting successfully. Buy a developer a beer!
