                               Psi4 1.4a3.dev225

  ==> Input File <==

--------------------------------------------------------------------------
#psi4
#
memory 32 gb

molecule  {
0 1
  C        0.0115380     0.2135990     0.3546250
  C        1.2941630     0.9919190    -0.0205040
  C        0.7065190    -1.0643830    -0.1744580
  C        2.0598330    -0.3481190     0.0263490
  C       -1.3386553     0.6367037    -0.2463042
  C       -2.4410400    -0.3538850     0.0887730
  H       -0.0679110     0.1527640     1.4490850
  H        1.6199900     1.8060400     0.6343450
  H        1.2250320     1.3706910    -1.0467180
  H        0.4892460    -1.2032850    -1.2402580
  H        0.5335860    -2.0108350     0.3468040
  H        2.8518490    -0.5196980    -0.7084510
  H        2.4619040    -0.5379660     1.0262650
  H       -1.5851000     1.6330430     0.1250760
  H       -1.2082630     0.7153210    -1.3275710
  H       -2.5819740    -0.4371880     1.1710350
  H       -2.2056380    -1.3508490    -0.2961240
  H       -3.3922610    -0.0400190    -0.3512830
units angstrom
no_reorient  #important for SAPT in psi4, default
symmetry c1  #important for SAPT in psi4, default
}

set PROPERTIES_ORIGIN ["COM"]
properties('MP2/aug-cc-pvtz', properties = ['dipole'])
--------------------------------------------------------------------------

    Molecular point group: c1
  Charge       = 0
  Multiplicity = 1
  Basis Set: AUG-CC-PVTZ
    Blend: AUG-CC-PVTZ
  Basis Set: (AUG-CC-PVTZ AUX)
    Blend: AUG-CC-PVTZ-JKFIT

    Orbital Energies [Eh]
    ---------------------

    Doubly Occupied:

       1A    -11.219795     2A    -11.215700     3A    -11.213825
       4A    -11.213546     5A    -11.213418     6A    -11.209380
       7A     -1.132971     8A     -1.027398     9A     -0.897593
      10A     -0.887462    11A     -0.809209    12A     -0.743031
      13A     -0.648608    14A     -0.623982    15A     -0.602783
      16A     -0.552669    17A     -0.534840    18A     -0.530371
      19A     -0.506077    20A     -0.479156    21A     -0.463453
      22A     -0.444108    23A     -0.426433    24A     -0.416443

  @DF-RHF Final Energy:  -234.24843989821031

   => Energetics <=

    Nuclear Repulsion Energy =            247.0738815093257017
    One-Electron Energy =                -804.6201393395757577
    Two-Electron Energy =                 323.2978179320397203
    Total Energy =                       -234.2484398982103357
  Basis Set: (AUG-CC-PVTZ AUX)
    Blend: AUG-CC-PVTZ-RI
    Molecular point group: c1

    Geometry (in Angstrom), charge = 0, multiplicity = 1:

       Center              X                  Y                   Z               Mass
    ------------   -----------------  -----------------  -----------------  -----------------
         C           -0.007895055573     0.207834808033     0.353171025972    12.000000000000
         C            1.274729944427     0.986154808033    -0.021957974028    12.000000000000
         C            0.687085944427    -1.070147191967    -0.175911974028    12.000000000000
         C            2.040399944427    -0.353883191967     0.024895025972    12.000000000000
         C           -1.358088355573     0.630939508033    -0.247758174028    12.000000000000
         C           -2.460473055573    -0.359649191967     0.087319025972    12.000000000000
         H           -0.087344055573     0.146999808033     1.447631025972     1.007825032230
         H            1.600556944427     1.800275808033     0.632891025972     1.007825032230
         H            1.205598944427     1.364926808033    -1.048171974028     1.007825032230
         H            0.469812944427    -1.209049191967    -1.241711974028     1.007825032230
         H            0.514152944427    -2.016599191967     0.345350025972     1.007825032230
         H            2.832415944427    -0.525462191967    -0.709904974028     1.007825032230
         H            2.442470944427    -0.543730191967     1.024811025972     1.007825032230
         H           -1.604533055573     1.627278808033     0.123622025972     1.007825032230
         H           -1.227696055573     0.709556808033    -1.329024974028     1.007825032230
         H           -2.601407055573    -0.442952191967     1.169581025972     1.007825032230
         H           -2.225071055573    -1.356613191967    -0.297577974028     1.007825032230
         H           -3.411694055573    -0.045783191967    -0.352736974028     1.007825032230

  Basis Set: AUG-CC-PVTZ
    Blend: AUG-CC-PVTZ
  Basis Set: (AUG-CC-PVTZ AUX)
    Blend: AUG-CC-PVTZ-JKFIT
	 Reference Energy          =    -234.2484398982103073 [Eh]
	 Singles Energy            =      -0.0000000000000000 [Eh]
	 Same-Spin Energy          =      -0.2525285394202651 [Eh]
	 Opposite-Spin Energy      =      -0.9214177935343635 [Eh]
	 Correlation Energy        =      -1.1739463329546287 [Eh]
	 Total Energy              =    -235.4223862311649498 [Eh]

	 ================> DF-SCS-MP2 Energies <==================
	-----------------------------------------------------------
	 SCS Same-Spin Scale       =       0.3333333333333333 [-]
	 SCS Opposite-Spin Scale   =       1.2000000000000000 [-]
	 SCS Same-Spin Energy      =      -0.0841761798067550 [Eh]
	 SCS Opposite-Spin Energy  =      -1.1057013522412362 [Eh]
	 SCS Correlation Energy    =      -1.1898775320479913 [Eh]
	 SCS Total Energy          =    -235.4383174302583086 [Eh]
	-----------------------------------------------------------

  Dipole Moment: [D]
     X:    -0.0674      Y:     0.0493      Z:     0.0555     Total:     0.1003

*** Psi4 exiting successfully. Buy a developer a beer!
