                               Psi4 1.3.2 release

  ==> Input File <==

--------------------------------------------------------------------------
#psi4
#
memory 32 gb

molecule  {
0 1
  C        0.0334911     0.2568695     0.3334015
  C        1.2941630     0.9919190    -0.0205040
  C        0.7065190    -1.0643830    -0.1744580
  C        2.0598330    -0.3481190     0.0263490
  C       -1.3210890     0.6311990    -0.2384860
  C       -2.4410400    -0.3538850     0.0887730
  H       -0.0679110     0.1527640     1.4490850
  H        1.6199900     1.8060400     0.6343450
  H        1.2250320     1.3706910    -1.0467180
  H        0.4892460    -1.2032850    -1.2402580
  H        0.5335860    -2.0108350     0.3468040
  H        2.8518490    -0.5196980    -0.7084510
  H        2.4619040    -0.5379660     1.0262650
  H       -1.5851000     1.6330430     0.1250760
  H       -1.2082630     0.7153210    -1.3275710
  H       -2.5819740    -0.4371880     1.1710350
  H       -2.2056380    -1.3508490    -0.2961240
  H       -3.3922610    -0.0400190    -0.3512830
units angstrom
no_reorient  #important for SAPT in psi4, default
symmetry c1  #important for SAPT in psi4, default
}

set PROPERTIES_ORIGIN ["COM"]
properties('MP2/aug-cc-pvtz', properties = ['dipole'])
--------------------------------------------------------------------------

    Molecular point group: c1
  Charge       = 0
  Multiplicity = 1
  Basis Set: AUG-CC-PVTZ
    Blend: AUG-CC-PVTZ
  Basis Set: (AUG-CC-PVTZ AUX)
    Blend: AUG-CC-PVTZ-JKFIT

    Orbital Energies [Eh]
    ---------------------

    Doubly Occupied:

       1A    -11.220642     2A    -11.216155     3A    -11.214240
       4A    -11.213766     5A    -11.212899     6A    -11.210854
       7A     -1.137504     8A     -1.027006     9A     -0.903249
      10A     -0.886445    11A     -0.809608    12A     -0.739845
      13A     -0.650646    14A     -0.625294    15A     -0.601099
      16A     -0.554388    17A     -0.536906    18A     -0.529147
      19A     -0.505550    20A     -0.477144    21A     -0.464217
      22A     -0.439794    23A     -0.435711    24A     -0.412657

  @DF-RHF Final Energy:  -234.24592505533775

   => Energetics <=

    Nuclear Repulsion Energy =            247.4246173310147583
    One-Electron Energy =                -805.2915527713003030
    Two-Electron Energy =                 323.6210103849477377
    Total Energy =                       -234.2459250553377501
  Basis Set: (AUG-CC-PVTZ AUX)
    Blend: AUG-CC-PVTZ-RI
    Molecular point group: c1

    Geometry (in Angstrom), charge = 0, multiplicity = 1:

       Center              X                  Y                   Z               Mass
    ------------   -----------------  -----------------  -----------------  -----------------
         C            0.008418719841     0.245716218005     0.333860430466    12.000000000000
         C            1.269090619841     0.980765718005    -0.020045069534    12.000000000000
         C            0.681446619841    -1.075536281995    -0.173999069534    12.000000000000
         C            2.034760619841    -0.359272281995     0.026807930466    12.000000000000
         C           -1.346161380159     0.620045718005    -0.238027069534    12.000000000000
         C           -2.466112380159    -0.365038281995     0.089231930466    12.000000000000
         H           -0.092983380159     0.141610718005     1.449543930466     1.007825032230
         H            1.594917619841     1.794886718005     0.634803930466     1.007825032230
         H            1.199959619841     1.359537718005    -1.046259069534     1.007825032230
         H            0.464173619841    -1.214438281995    -1.239799069534     1.007825032230
         H            0.508513619841    -2.021988281995     0.347262930466     1.007825032230
         H            2.826776619841    -0.530851281995    -0.707992069534     1.007825032230
         H            2.436831619841    -0.549119281995     1.026723930466     1.007825032230
         H           -1.610172380159     1.621889718005     0.125534930466     1.007825032230
         H           -1.233335380159     0.704167718005    -1.327112069534     1.007825032230
         H           -2.607046380159    -0.448341281995     1.171493930466     1.007825032230
         H           -2.230710380159    -1.362002281995    -0.295665069534     1.007825032230
         H           -3.417333380159    -0.051172281995    -0.350824069534     1.007825032230

  Basis Set: AUG-CC-PVTZ
    Blend: AUG-CC-PVTZ
  Basis Set: (AUG-CC-PVTZ AUX)
    Blend: AUG-CC-PVTZ-JKFIT
	 Reference Energy          =    -234.2459250553377501 [Eh]
	 Singles Energy            =      -0.0000000000000000 [Eh]
	 Same-Spin Energy          =      -0.2528298603029353 [Eh]
	 Opposite-Spin Energy      =      -0.9217263014725610 [Eh]
	 Correlation Energy        =      -1.1745561617754963 [Eh]
	 Total Energy              =    -235.4204812171132346 [Eh]

	 ================> DF-SCS-MP2 Energies <==================
	-----------------------------------------------------------
	 SCS Same-Spin Scale       =       0.3333333333333333 [-]
	 SCS Opposite-Spin Scale   =       1.2000000000000000 [-]
	 SCS Same-Spin Energy      =      -0.0842766201009784 [Eh]
	 SCS Opposite-Spin Energy  =      -1.1060715617670731 [Eh]
	 SCS Correlation Energy    =      -1.1903481818680515 [Eh]
	 SCS Total Energy          =    -235.4362732372057962 [Eh]
	-----------------------------------------------------------

  Dipole Moment: [D]
     X:    -0.0653      Y:     0.0411      Z:     0.0472     Total:     0.0904

*** Psi4 exiting successfully. Buy a developer a beer!
