                               Psi4 1.3.2 release

  ==> Input File <==

--------------------------------------------------------------------------
#psi4
#
memory 32 gb

molecule  {
0 1
  C        0.0115380     0.2135990     0.3546250
  C        1.2941630     0.9919190    -0.0205040
  C        0.7065190    -1.0643830    -0.1744580
  C        2.0598330    -0.3481190     0.0263490
  C       -1.3412212     0.6331137    -0.1895397
  C       -2.4410400    -0.3538850     0.0887730
  H       -0.0679110     0.1527640     1.4490850
  H        1.6199900     1.8060400     0.6343450
  H        1.2250320     1.3706910    -1.0467180
  H        0.4892460    -1.2032850    -1.2402580
  H        0.5335860    -2.0108350     0.3468040
  H        2.8518490    -0.5196980    -0.7084510
  H        2.4619040    -0.5379660     1.0262650
  H       -1.5851000     1.6330430     0.1250760
  H       -1.2082630     0.7153210    -1.3275710
  H       -2.5819740    -0.4371880     1.1710350
  H       -2.2056380    -1.3508490    -0.2961240
  H       -3.3922610    -0.0400190    -0.3512830
units angstrom
no_reorient  #important for SAPT in psi4, default
symmetry c1  #important for SAPT in psi4, default
}

set PROPERTIES_ORIGIN ["COM"]
properties('MP2/aug-cc-pvtz', properties = ['dipole'])
--------------------------------------------------------------------------

    Molecular point group: c1
  Charge       = 0
  Multiplicity = 1
  Basis Set: AUG-CC-PVTZ
    Blend: AUG-CC-PVTZ
  Basis Set: (AUG-CC-PVTZ AUX)
    Blend: AUG-CC-PVTZ-JKFIT

    Orbital Energies [Eh]
    ---------------------

    Doubly Occupied:

       1A    -11.219439     2A    -11.216139     3A    -11.215564
       4A    -11.214598     5A    -11.214381     6A    -11.209380
       7A     -1.134170     8A     -1.031042     9A     -0.899967
      10A     -0.888411    11A     -0.807316    12A     -0.742250
      13A     -0.649007    14A     -0.627709    15A     -0.600636
      16A     -0.557468    17A     -0.535517    18A     -0.530963
      19A     -0.508380    20A     -0.467432    21A     -0.465447
      22A     -0.439097    23A     -0.427753    24A     -0.422143

  @DF-RHF Final Energy:  -234.24545819719668

   => Energetics <=

    Nuclear Repulsion Energy =            247.3264515398681453
    One-Electron Energy =                -805.0953993079268685
    Two-Electron Energy =                 323.5234895708620684
    Total Energy =                       -234.2454581971966832
  Basis Set: (AUG-CC-PVTZ AUX)
    Blend: AUG-CC-PVTZ-RI
    Molecular point group: c1

    Geometry (in Angstrom), charge = 0, multiplicity = 1:

       Center              X                  Y                   Z               Mass
    ------------   -----------------  -----------------  -----------------  -----------------
         C           -0.007528907733     0.208347092513     0.345070866544    12.000000000000
         C            1.275096092267     0.986667092513    -0.030058133456    12.000000000000
         C            0.687452092267    -1.069634907487    -0.184012133456    12.000000000000
         C            2.040766092267    -0.353370907487     0.016794866544    12.000000000000
         C           -1.360288107733     0.627861792513    -0.199093833456    12.000000000000
         C           -2.460106907733    -0.359136907487     0.079218866544    12.000000000000
         H           -0.086977907733     0.147512092513     1.439530866544     1.007825032230
         H            1.600923092267     1.800788092513     0.624790866544     1.007825032230
         H            1.205965092267     1.365439092513    -1.056272133456     1.007825032230
         H            0.470179092267    -1.208536907487    -1.249812133456     1.007825032230
         H            0.514519092267    -2.016086907487     0.337249866544     1.007825032230
         H            2.832782092267    -0.524949907487    -0.718005133456     1.007825032230
         H            2.442837092267    -0.543217907487     1.016710866544     1.007825032230
         H           -1.604166907733     1.627791092513     0.115521866544     1.007825032230
         H           -1.227329907733     0.710069092513    -1.337125133456     1.007825032230
         H           -2.601040907733    -0.442439907487     1.161480866544     1.007825032230
         H           -2.224704907733    -1.356100907487    -0.305678133456     1.007825032230
         H           -3.411327907733    -0.045270907487    -0.360837133456     1.007825032230

  Basis Set: AUG-CC-PVTZ
    Blend: AUG-CC-PVTZ
  Basis Set: (AUG-CC-PVTZ AUX)
    Blend: AUG-CC-PVTZ-JKFIT
	 Reference Energy          =    -234.2454581971966832 [Eh]
	 Singles Energy            =      -0.0000000000000000 [Eh]
	 Same-Spin Energy          =      -0.2528059778430909 [Eh]
	 Opposite-Spin Energy      =      -0.9217401370868061 [Eh]
	 Correlation Energy        =      -1.1745461149298970 [Eh]
	 Total Energy              =    -235.4200043121265935 [Eh]

	 ================> DF-SCS-MP2 Energies <==================
	-----------------------------------------------------------
	 SCS Same-Spin Scale       =       0.3333333333333333 [-]
	 SCS Opposite-Spin Scale   =       1.2000000000000000 [-]
	 SCS Same-Spin Energy      =      -0.0842686592810303 [Eh]
	 SCS Opposite-Spin Energy  =      -1.1060881645041674 [Eh]
	 SCS Correlation Energy    =      -1.1903568237851976 [Eh]
	 SCS Total Energy          =    -235.4358150209818916 [Eh]
	-----------------------------------------------------------

  Dipole Moment: [D]
     X:    -0.0689      Y:     0.0466      Z:     0.0881     Total:     0.1212

*** Psi4 exiting successfully. Buy a developer a beer!
