                               Psi4 1.4a3.dev225

  ==> Input File <==

--------------------------------------------------------------------------
#psi4
#
memory 32 gb

molecule  {
0 1
  C        0.0115380     0.2135990     0.3546250
  C        1.2941630     0.9919190    -0.0205040
  C        0.7065190    -1.0643830    -0.1744580
  C        2.0598330    -0.3481190     0.0263490
  C       -1.2771733     0.6174373    -0.2189405
  C       -2.4410400    -0.3538850     0.0887730
  H       -0.0679110     0.1527640     1.4490850
  H        1.6199900     1.8060400     0.6343450
  H        1.2250320     1.3706910    -1.0467180
  H        0.4892460    -1.2032850    -1.2402580
  H        0.5335860    -2.0108350     0.3468040
  H        2.8518490    -0.5196980    -0.7084510
  H        2.4619040    -0.5379660     1.0262650
  H       -1.5851000     1.6330430     0.1250760
  H       -1.2082630     0.7153210    -1.3275710
  H       -2.5819740    -0.4371880     1.1710350
  H       -2.2056380    -1.3508490    -0.2961240
  H       -3.3922610    -0.0400190    -0.3512830
units angstrom
no_reorient  #important for SAPT in psi4, default
symmetry c1  #important for SAPT in psi4, default
}

set PROPERTIES_ORIGIN ["COM"]
properties('MP2/aug-cc-pvtz', properties = ['dipole'])
--------------------------------------------------------------------------

    Molecular point group: c1
  Charge       = 0
  Multiplicity = 1
  Basis Set: AUG-CC-PVTZ
    Blend: AUG-CC-PVTZ
  Basis Set: (AUG-CC-PVTZ AUX)
    Blend: AUG-CC-PVTZ-JKFIT

    Orbital Energies [Eh]
    ---------------------

    Doubly Occupied:

       1A    -11.217349     2A    -11.216026     3A    -11.215629
       4A    -11.214293     5A    -11.214091     6A    -11.210733
       7A     -1.137262     8A     -1.026506     9A     -0.902852
      10A     -0.889151    11A     -0.806654    12A     -0.744419
      13A     -0.649844    14A     -0.629179    15A     -0.597984
      16A     -0.553740    17A     -0.534927    18A     -0.530971
      19A     -0.506946    20A     -0.475097    21A     -0.459299
      22A     -0.449346    23A     -0.422782    24A     -0.421127

  @DF-RHF Final Energy:  -234.24581920901389

   => Energetics <=

    Nuclear Repulsion Energy =            247.8391179030859917
    One-Electron Energy =                -806.1174601087971041
    Two-Electron Energy =                 324.0325229966973097
    Total Energy =                       -234.2458192090138596
  Basis Set: (AUG-CC-PVTZ AUX)
    Blend: AUG-CC-PVTZ-RI
    Molecular point group: c1

    Geometry (in Angstrom), charge = 0, multiplicity = 1:

       Center              X                  Y                   Z               Mass
    ------------   -----------------  -----------------  -----------------  -----------------
         C           -0.016668391054     0.210584077587     0.349266290926    12.000000000000
         C            1.265956608946     0.988904077587    -0.025862709074    12.000000000000
         C            0.678312608946    -1.067397922413    -0.179816709074    12.000000000000
         C            2.031626608946    -0.351133922413     0.020990290926    12.000000000000
         C           -1.305379691054     0.614422377587    -0.224299209074    12.000000000000
         C           -2.469246391054    -0.356899922413     0.083414290926    12.000000000000
         H           -0.096117391054     0.149749077587     1.443726290926     1.007825032230
         H            1.591783608946     1.803025077587     0.628986290926     1.007825032230
         H            1.196825608946     1.367676077587    -1.052076709074     1.007825032230
         H            0.461039608946    -1.206299922413    -1.245616709074     1.007825032230
         H            0.505379608946    -2.013849922413     0.341445290926     1.007825032230
         H            2.823642608946    -0.522712922413    -0.713809709074     1.007825032230
         H            2.433697608946    -0.540980922413     1.020906290926     1.007825032230
         H           -1.613306391054     1.630028077587     0.119717290926     1.007825032230
         H           -1.236469391054     0.712306077587    -1.332929709074     1.007825032230
         H           -2.610180391054    -0.440202922413     1.165676290926     1.007825032230
         H           -2.233844391054    -1.353863922413    -0.301482709074     1.007825032230
         H           -3.420467391054    -0.043033922413    -0.356641709074     1.007825032230

  Basis Set: AUG-CC-PVTZ
    Blend: AUG-CC-PVTZ
  Basis Set: (AUG-CC-PVTZ AUX)
    Blend: AUG-CC-PVTZ-JKFIT
	 Reference Energy          =    -234.2458192090138880 [Eh]
	 Singles Energy            =      -0.0000000000000000 [Eh]
	 Same-Spin Energy          =      -0.2529188340830254 [Eh]
	 Opposite-Spin Energy      =      -0.9218976213042817 [Eh]
	 Correlation Energy        =      -1.1748164553873071 [Eh]
	 Total Energy              =    -235.4206356644012033 [Eh]

	 ================> DF-SCS-MP2 Energies <==================
	-----------------------------------------------------------
	 SCS Same-Spin Scale       =       0.3333333333333333 [-]
	 SCS Opposite-Spin Scale   =       1.2000000000000000 [-]
	 SCS Same-Spin Energy      =      -0.0843062780276751 [Eh]
	 SCS Opposite-Spin Energy  =      -1.1062771455651379 [Eh]
	 SCS Correlation Energy    =      -1.1905834235928130 [Eh]
	 SCS Total Energy          =    -235.4364026326067005 [Eh]
	-----------------------------------------------------------

  Dipole Moment: [D]
     X:    -0.0509      Y:     0.0414      Z:     0.0604     Total:     0.0892

*** Psi4 exiting successfully. Buy a developer a beer!
