                               Psi4 1.3.2 release

  ==> Input File <==

--------------------------------------------------------------------------
#psi4
#
memory 32 gb

molecule  {
0 1
  C        0.0537939     0.3005960     0.3114812
  C        1.2941630     0.9919190    -0.0205040
  C        0.7065190    -1.0643830    -0.1744580
  C        2.0598330    -0.3481190     0.0263490
  C       -1.3210890     0.6311990    -0.2384860
  C       -2.4410400    -0.3538850     0.0887730
  H       -0.0679110     0.1527640     1.4490850
  H        1.6199900     1.8060400     0.6343450
  H        1.2250320     1.3706910    -1.0467180
  H        0.4892460    -1.2032850    -1.2402580
  H        0.5335860    -2.0108350     0.3468040
  H        2.8518490    -0.5196980    -0.7084510
  H        2.4619040    -0.5379660     1.0262650
  H       -1.5851000     1.6330430     0.1250760
  H       -1.2082630     0.7153210    -1.3275710
  H       -2.5819740    -0.4371880     1.1710350
  H       -2.2056380    -1.3508490    -0.2961240
  H       -3.3922610    -0.0400190    -0.3512830
units angstrom
no_reorient  #important for SAPT in psi4, default
symmetry c1  #important for SAPT in psi4, default
}

set PROPERTIES_ORIGIN ["COM"]
properties('MP2/aug-cc-pvtz', properties = ['dipole'])
--------------------------------------------------------------------------

    Molecular point group: c1
  Charge       = 0
  Multiplicity = 1
  Basis Set: AUG-CC-PVTZ
    Blend: AUG-CC-PVTZ
  Basis Set: (AUG-CC-PVTZ AUX)
    Blend: AUG-CC-PVTZ-JKFIT

    Orbital Energies [Eh]
    ---------------------

    Doubly Occupied:

       1A    -11.222936     2A    -11.216637     3A    -11.214975
       4A    -11.213827     5A    -11.212139     6A    -11.212015
       7A     -1.141359     8A     -1.027237     9A     -0.908269
      10A     -0.884951    11A     -0.810894    12A     -0.736247
      13A     -0.652321    14A     -0.625347    15A     -0.601103
      16A     -0.557406    17A     -0.538717    18A     -0.527529
      19A     -0.505260    20A     -0.476656    21A     -0.468798
      22A     -0.445937    23A     -0.432622    24A     -0.402766

  @DF-RHF Final Energy:  -234.23776112577951

   => Energetics <=

    Nuclear Repulsion Energy =            247.5461688944942011
    One-Electron Energy =                -805.4959656925766467
    Two-Electron Energy =                 323.7120356723028749
    Total Energy =                       -234.2377611257795138
  Basis Set: (AUG-CC-PVTZ AUX)
    Blend: AUG-CC-PVTZ-RI
    Molecular point group: c1

    Geometry (in Angstrom), charge = 0, multiplicity = 1:

       Center              X                  Y                   Z               Mass
    ------------   -----------------  -----------------  -----------------  -----------------
         C            0.025824358467     0.283203050234     0.315068105251    12.000000000000
         C            1.266193458467     0.974526050234    -0.016917094749    12.000000000000
         C            0.678549458467    -1.081775949766    -0.170871094749    12.000000000000
         C            2.031863458467    -0.365511949766     0.029935905251    12.000000000000
         C           -1.349058541533     0.613806050234    -0.234899094749    12.000000000000
         C           -2.469009541533    -0.371277949766     0.092359905251    12.000000000000
         H           -0.095880541533     0.135371050234     1.452671905251     1.007825032230
         H            1.592020458467     1.788647050234     0.637931905251     1.007825032230
         H            1.197062458467     1.353298050234    -1.043131094749     1.007825032230
         H            0.461276458467    -1.220677949766    -1.236671094749     1.007825032230
         H            0.505616458467    -2.028227949766     0.350390905251     1.007825032230
         H            2.823879458467    -0.537090949766    -0.704864094749     1.007825032230
         H            2.433934458467    -0.555358949766     1.029851905251     1.007825032230
         H           -1.613069541533     1.615650050234     0.128662905251     1.007825032230
         H           -1.236232541533     0.697928050234    -1.323984094749     1.007825032230
         H           -2.609943541533    -0.454580949766     1.174621905251     1.007825032230
         H           -2.233607541533    -1.368241949766    -0.292537094749     1.007825032230
         H           -3.420230541533    -0.057411949766    -0.347696094749     1.007825032230

  Basis Set: AUG-CC-PVTZ
    Blend: AUG-CC-PVTZ
  Basis Set: (AUG-CC-PVTZ AUX)
    Blend: AUG-CC-PVTZ-JKFIT
	 Reference Energy          =    -234.2377611257795138 [Eh]
	 Singles Energy            =      -0.0000000000000000 [Eh]
	 Same-Spin Energy          =      -0.2532686537133051 [Eh]
	 Opposite-Spin Energy      =      -0.9224084307250878 [Eh]
	 Correlation Energy        =      -1.1756770844383930 [Eh]
	 Total Energy              =    -235.4134382102179188 [Eh]

	 ================> DF-SCS-MP2 Energies <==================
	-----------------------------------------------------------
	 SCS Same-Spin Scale       =       0.3333333333333333 [-]
	 SCS Opposite-Spin Scale   =       1.2000000000000000 [-]
	 SCS Same-Spin Energy      =      -0.0844228845711017 [Eh]
	 SCS Opposite-Spin Energy  =      -1.1068901168701053 [Eh]
	 SCS Correlation Energy    =      -1.1913130014412070 [Eh]
	 SCS Total Energy          =    -235.4290741272207299 [Eh]
	-----------------------------------------------------------

  Dipole Moment: [D]
     X:    -0.0700      Y:     0.0353      Z:     0.0324     Total:     0.0848

*** Psi4 exiting successfully. Buy a developer a beer!
