                               Psi4 1.3.2 release

  ==> Input File <==

--------------------------------------------------------------------------
#psi4
#
memory 32 gb

molecule  {
0 1
  C        0.0115380     0.2135990     0.3546250
  C        1.2941630     0.9919190    -0.0205040
  C        0.7065190    -1.0643830    -0.1744580
  C        2.0598330    -0.3481190     0.0263490
  C       -1.3597052     0.6345174    -0.1399304
  C       -2.4410400    -0.3538850     0.0887730
  H       -0.0679110     0.1527640     1.4490850
  H        1.6199900     1.8060400     0.6343450
  H        1.2250320     1.3706910    -1.0467180
  H        0.4892460    -1.2032850    -1.2402580
  H        0.5335860    -2.0108350     0.3468040
  H        2.8518490    -0.5196980    -0.7084510
  H        2.4619040    -0.5379660     1.0262650
  H       -1.5851000     1.6330430     0.1250760
  H       -1.2082630     0.7153210    -1.3275710
  H       -2.5819740    -0.4371880     1.1710350
  H       -2.2056380    -1.3508490    -0.2961240
  H       -3.3922610    -0.0400190    -0.3512830
units angstrom
no_reorient  #important for SAPT in psi4, default
symmetry c1  #important for SAPT in psi4, default
}

set PROPERTIES_ORIGIN ["COM"]
properties('MP2/aug-cc-pvtz', properties = ['dipole'])
--------------------------------------------------------------------------

    Molecular point group: c1
  Charge       = 0
  Multiplicity = 1
  Basis Set: AUG-CC-PVTZ
    Blend: AUG-CC-PVTZ
  Basis Set: (AUG-CC-PVTZ AUX)
    Blend: AUG-CC-PVTZ-JKFIT

    Orbital Energies [Eh]
    ---------------------

    Doubly Occupied:

       1A    -11.220170     2A    -11.218040     3A    -11.216569
       4A    -11.215353     5A    -11.215142     6A    -11.209452
       7A     -1.134466     8A     -1.035366     9A     -0.901202
      10A     -0.888927    11A     -0.807063    12A     -0.741559
      13A     -0.649108    14A     -0.631059    15A     -0.599150
      16A     -0.563446    17A     -0.536736    18A     -0.531402
      19A     -0.509868    20A     -0.468674    21A     -0.460096
      22A     -0.431142    23A     -0.429296    24A     -0.422899

  @DF-RHF Final Energy:  -234.23701020390700

   => Energetics <=

    Nuclear Repulsion Energy =            247.3613133499847265
    One-Electron Energy =                -805.1242807777708776
    Two-Electron Energy =                 323.5259572238791748
    Total Energy =                       -234.2370102039070048
  Basis Set: (AUG-CC-PVTZ AUX)
    Blend: AUG-CC-PVTZ-RI
    Molecular point group: c1

    Geometry (in Angstrom), charge = 0, multiplicity = 1:

       Center              X                  Y                   Z               Mass
    ------------   -----------------  -----------------  -----------------  -----------------
         C           -0.004891284802     0.208146787854     0.337991737175    12.000000000000
         C            1.277733715198     0.986466787854    -0.037137262825    12.000000000000
         C            0.690089715198    -1.069835212146    -0.191091262825    12.000000000000
         C            2.043403715198    -0.353571212146     0.009715737175    12.000000000000
         C           -1.376134484802     0.629065187854    -0.156563662825    12.000000000000
         C           -2.457469284802    -0.359337212146     0.072139737175    12.000000000000
         H           -0.084340284802     0.147311787854     1.432451737175     1.007825032230
         H            1.603560715198     1.800587787854     0.617711737175     1.007825032230
         H            1.208602715198     1.365238787854    -1.063351262825     1.007825032230
         H            0.472816715198    -1.208737212146    -1.256891262825     1.007825032230
         H            0.517156715198    -2.016287212146     0.330170737175     1.007825032230
         H            2.835419715198    -0.525150212146    -0.725084262825     1.007825032230
         H            2.445474715198    -0.543418212146     1.009631737175     1.007825032230
         H           -1.601529284802     1.627590787854     0.108442737175     1.007825032230
         H           -1.224692284802     0.709868787854    -1.344204262825     1.007825032230
         H           -2.598403284802    -0.442640212146     1.154401737175     1.007825032230
         H           -2.222067284802    -1.356301212146    -0.312757262825     1.007825032230
         H           -3.408690284802    -0.045471212146    -0.367916262825     1.007825032230

  Basis Set: AUG-CC-PVTZ
    Blend: AUG-CC-PVTZ
  Basis Set: (AUG-CC-PVTZ AUX)
    Blend: AUG-CC-PVTZ-JKFIT
	 Reference Energy          =    -234.2370102039070048 [Eh]
	 Singles Energy            =      -0.0000000000000000 [Eh]
	 Same-Spin Energy          =      -0.2531175733590423 [Eh]
	 Opposite-Spin Energy      =      -0.9222827121643176 [Eh]
	 Correlation Energy        =      -1.1754002855233598 [Eh]
	 Total Energy              =    -235.4124104894303571 [Eh]

	 ================> DF-SCS-MP2 Energies <==================
	-----------------------------------------------------------
	 SCS Same-Spin Scale       =       0.3333333333333333 [-]
	 SCS Opposite-Spin Scale   =       1.2000000000000000 [-]
	 SCS Same-Spin Energy      =      -0.0843725244530141 [Eh]
	 SCS Opposite-Spin Energy  =      -1.1067392545971810 [Eh]
	 SCS Correlation Energy    =      -1.1911117790501951 [Eh]
	 SCS Total Energy          =    -235.4281219829572080 [Eh]
	-----------------------------------------------------------

  Dipole Moment: [D]
     X:    -0.0721      Y:     0.0389      Z:     0.1301     Total:     0.1538

*** Psi4 exiting successfully. Buy a developer a beer!
