                               Psi4 1.3.2 release

  ==> Input File <==

--------------------------------------------------------------------------
#psi4
#
memory 32 gb

molecule  {
0 1
  C        0.0724216     0.3447253     0.2888908
  C        1.2941630     0.9919190    -0.0205040
  C        0.7065190    -1.0643830    -0.1744580
  C        2.0598330    -0.3481190     0.0263490
  C       -1.3210890     0.6311990    -0.2384860
  C       -2.4410400    -0.3538850     0.0887730
  H       -0.0679110     0.1527640     1.4490850
  H        1.6199900     1.8060400     0.6343450
  H        1.2250320     1.3706910    -1.0467180
  H        0.4892460    -1.2032850    -1.2402580
  H        0.5335860    -2.0108350     0.3468040
  H        2.8518490    -0.5196980    -0.7084510
  H        2.4619040    -0.5379660     1.0262650
  H       -1.5851000     1.6330430     0.1250760
  H       -1.2082630     0.7153210    -1.3275710
  H       -2.5819740    -0.4371880     1.1710350
  H       -2.2056380    -1.3508490    -0.2961240
  H       -3.3922610    -0.0400190    -0.3512830
units angstrom
no_reorient  #important for SAPT in psi4, default
symmetry c1  #important for SAPT in psi4, default
}

set PROPERTIES_ORIGIN ["COM"]
properties('MP2/aug-cc-pvtz', properties = ['dipole'])
--------------------------------------------------------------------------

    Molecular point group: c1
  Charge       = 0
  Multiplicity = 1
  Basis Set: AUG-CC-PVTZ
    Blend: AUG-CC-PVTZ
  Basis Set: (AUG-CC-PVTZ AUX)
    Blend: AUG-CC-PVTZ-JKFIT

    Orbital Energies [Eh]
    ---------------------

    Doubly Occupied:

       1A    -11.225968     2A    -11.217226     3A    -11.216175
       4A    -11.214078     5A    -11.213565     6A    -11.211116
       7A     -1.145676     8A     -1.027697     9A     -0.913840
      10A     -0.883730    11A     -0.812279    12A     -0.732698
      13A     -0.653990    14A     -0.625547    15A     -0.601343
      16A     -0.561590    17A     -0.540255    18A     -0.525719
      19A     -0.505514    20A     -0.477197    21A     -0.475879
      22A     -0.451505    23A     -0.425306    24A     -0.391619

  @DF-RHF Final Energy:  -234.22390591472578

   => Energetics <=

    Nuclear Repulsion Energy =            247.6529837144634030
    One-Electron Energy =                -805.6547527308243843
    Two-Electron Energy =                 323.7778631016352051
    Total Energy =                       -234.2239059147257763
  Basis Set: (AUG-CC-PVTZ AUX)
    Blend: AUG-CC-PVTZ-RI
    Molecular point group: c1

    Geometry (in Angstrom), charge = 0, multiplicity = 1:

       Center              X                  Y                   Z               Mass
    ------------   -----------------  -----------------  -----------------  -----------------
         C            0.041793929887     0.321035203859     0.295701301716    12.000000000000
         C            1.263535329887     0.968228903859    -0.013693498284    12.000000000000
         C            0.675891329887    -1.088073096141    -0.167647498284    12.000000000000
         C            2.029205329887    -0.371809096141     0.033159501716    12.000000000000
         C           -1.351716670113     0.607508903859    -0.231675498284    12.000000000000
         C           -2.471667670113    -0.377575096141     0.095583501716    12.000000000000
         H           -0.098538670113     0.129073903859     1.455895501716     1.007825032230
         H            1.589362329887     1.782349903859     0.641155501716     1.007825032230
         H            1.194404329887     1.347000903859    -1.039907498284     1.007825032230
         H            0.458618329887    -1.226975096141    -1.233447498284     1.007825032230
         H            0.502958329887    -2.034525096141     0.353614501716     1.007825032230
         H            2.821221329887    -0.543388096141    -0.701640498284     1.007825032230
         H            2.431276329887    -0.561656096141     1.033075501716     1.007825032230
         H           -1.615727670113     1.609352903859     0.131886501716     1.007825032230
         H           -1.238890670113     0.691630903859    -1.320760498284     1.007825032230
         H           -2.612601670113    -0.460878096141     1.177845501716     1.007825032230
         H           -2.236265670113    -1.374539096141    -0.289313498284     1.007825032230
         H           -3.422888670113    -0.063709096141    -0.344472498284     1.007825032230

  Basis Set: AUG-CC-PVTZ
    Blend: AUG-CC-PVTZ
  Basis Set: (AUG-CC-PVTZ AUX)
    Blend: AUG-CC-PVTZ-JKFIT
	 Reference Energy          =    -234.2239059147257763 [Eh]
	 Singles Energy            =      -0.0000000000000000 [Eh]
	 Same-Spin Energy          =      -0.2539140069645396 [Eh]
	 Opposite-Spin Energy      =      -0.9235246158357935 [Eh]
	 Correlation Energy        =      -1.1774386228003331 [Eh]
	 Total Energy              =    -235.4013445375261142 [Eh]

	 ================> DF-SCS-MP2 Energies <==================
	-----------------------------------------------------------
	 SCS Same-Spin Scale       =       0.3333333333333333 [-]
	 SCS Opposite-Spin Scale   =       1.2000000000000000 [-]
	 SCS Same-Spin Energy      =      -0.0846380023215132 [Eh]
	 SCS Opposite-Spin Energy  =      -1.1082295390029522 [Eh]
	 SCS Correlation Energy    =      -1.1928675413244654 [Eh]
	 SCS Total Energy          =    -235.4167734560502367 [Eh]
	-----------------------------------------------------------

  Dipole Moment: [D]
     X:    -0.0778      Y:     0.0311      Z:     0.0109     Total:     0.0845

*** Psi4 exiting successfully. Buy a developer a beer!
