                               Psi4 1.3.2 release

  ==> Input File <==

--------------------------------------------------------------------------
#psi4
#
memory 32 gb

molecule  {
0 1
  C        0.0115380     0.2135990     0.3546250
  C        1.2941630     0.9919190    -0.0205040
  C        0.7065190    -1.0643830    -0.1744580
  C        2.0598330    -0.3481190     0.0263490
  C       -1.4089204     0.6587224    -0.2775770
  C       -2.4410400    -0.3538850     0.0887730
  H       -0.0679110     0.1527640     1.4490850
  H        1.6199900     1.8060400     0.6343450
  H        1.2250320     1.3706910    -1.0467180
  H        0.4892460    -1.2032850    -1.2402580
  H        0.5335860    -2.0108350     0.3468040
  H        2.8518490    -0.5196980    -0.7084510
  H        2.4619040    -0.5379660     1.0262650
  H       -1.5851000     1.6330430     0.1250760
  H       -1.2082630     0.7153210    -1.3275710
  H       -2.5819740    -0.4371880     1.1710350
  H       -2.2056380    -1.3508490    -0.2961240
  H       -3.3922610    -0.0400190    -0.3512830
units angstrom
no_reorient  #important for SAPT in psi4, default
symmetry c1  #important for SAPT in psi4, default
}

set PROPERTIES_ORIGIN ["COM"]
properties('MP2/aug-cc-pvtz', properties = ['dipole'])
--------------------------------------------------------------------------

    Molecular point group: c1
  Charge       = 0
  Multiplicity = 1
  Basis Set: AUG-CC-PVTZ
    Blend: AUG-CC-PVTZ
  Basis Set: (AUG-CC-PVTZ AUX)
    Blend: AUG-CC-PVTZ-JKFIT

    Orbital Energies [Eh]
    ---------------------

    Doubly Occupied:

       1A    -11.221940     2A    -11.215446     3A    -11.213509
       4A    -11.213046     5A    -11.212347     6A    -11.208441
       7A     -1.129333     8A     -1.029814     9A     -0.893225
      10A     -0.885018    11A     -0.812172    12A     -0.741415
      13A     -0.647666    14A     -0.618862    15A     -0.608844
      16A     -0.551571    17A     -0.538905    18A     -0.530294
      19A     -0.505256    20A     -0.483724    21A     -0.467296
      22A     -0.441421    23A     -0.428493    24A     -0.402034

  @DF-RHF Final Energy:  -234.24060963068399

   => Energetics <=

    Nuclear Repulsion Energy =            246.2431593336959565
    One-Electron Energy =                -802.9673941621665563
    Two-Electron Energy =                 322.4836251977865800
    Total Energy =                       -234.2406096306839913
  Basis Set: (AUG-CC-PVTZ AUX)
    Blend: AUG-CC-PVTZ-RI
    Molecular point group: c1

    Geometry (in Angstrom), charge = 0, multiplicity = 1:

       Center              X                  Y                   Z               Mass
    ------------   -----------------  -----------------  -----------------  -----------------
         C            0.002131607433     0.204692791801     0.357633580310    12.000000000000
         C            1.284756607433     0.983012791801    -0.017495419690    12.000000000000
         C            0.697112607433    -1.073289208199    -0.171449419690    12.000000000000
         C            2.050426607433    -0.357025208199     0.029357580310    12.000000000000
         C           -1.418326792567     0.649816191801    -0.274568419690    12.000000000000
         C           -2.450446392567    -0.362791208199     0.091781580310    12.000000000000
         H           -0.077317392567     0.143857791801     1.452093580310     1.007825032230
         H            1.610583607433     1.797133791801     0.637353580310     1.007825032230
         H            1.215625607433     1.361784791801    -1.043709419690     1.007825032230
         H            0.479839607433    -1.212191208199    -1.237249419690     1.007825032230
         H            0.524179607433    -2.019741208199     0.349812580310     1.007825032230
         H            2.842442607433    -0.528604208199    -0.705442419690     1.007825032230
         H            2.452497607433    -0.546872208199     1.029273580310     1.007825032230
         H           -1.594506392567     1.624136791801     0.128084580310     1.007825032230
         H           -1.217669392567     0.706414791801    -1.324562419690     1.007825032230
         H           -2.591380392567    -0.446094208199     1.174043580310     1.007825032230
         H           -2.215044392567    -1.359755208199    -0.293115419690     1.007825032230
         H           -3.401667392567    -0.048925208199    -0.348274419690     1.007825032230

  Basis Set: AUG-CC-PVTZ
    Blend: AUG-CC-PVTZ
  Basis Set: (AUG-CC-PVTZ AUX)
    Blend: AUG-CC-PVTZ-JKFIT
	 Reference Energy          =    -234.2406096306839913 [Eh]
	 Singles Energy            =      -0.0000000000000000 [Eh]
	 Same-Spin Energy          =      -0.2525941439842929 [Eh]
	 Opposite-Spin Energy      =      -0.9217685305086096 [Eh]
	 Correlation Energy        =      -1.1743626744929025 [Eh]
	 Total Energy              =    -235.4149723051768888 [Eh]

	 ================> DF-SCS-MP2 Energies <==================
	-----------------------------------------------------------
	 SCS Same-Spin Scale       =       0.3333333333333333 [-]
	 SCS Opposite-Spin Scale   =       1.2000000000000000 [-]
	 SCS Same-Spin Energy      =      -0.0841980479947643 [Eh]
	 SCS Opposite-Spin Energy  =      -1.1061222366103316 [Eh]
	 SCS Correlation Energy    =      -1.1903202846050960 [Eh]
	 SCS Total Energy          =    -235.4309299152890844 [Eh]
	-----------------------------------------------------------

  Dipole Moment: [D]
     X:    -0.0731      Y:     0.0484      Z:     0.0568     Total:     0.1045

*** Psi4 exiting successfully. Buy a developer a beer!
