                               Psi4 1.3.2 release

  ==> Input File <==

--------------------------------------------------------------------------
#psi4
#
memory 32 gb

molecule  {
0 1
  C        0.0115380     0.2135990     0.3546250
  C        1.3491077     0.9249094     0.0438589
  C        0.7065190    -1.0643830    -0.1744580
  C        2.0598330    -0.3481190     0.0263490
  C       -1.3210890     0.6311990    -0.2384860
  C       -2.4410400    -0.3538850     0.0887730
  H       -0.0679110     0.1527640     1.4490850
  H        1.6199900     1.8060400     0.6343450
  H        1.2250320     1.3706910    -1.0467180
  H        0.4892460    -1.2032850    -1.2402580
  H        0.5335860    -2.0108350     0.3468040
  H        2.8518490    -0.5196980    -0.7084510
  H        2.4619040    -0.5379660     1.0262650
  H       -1.5851000     1.6330430     0.1250760
  H       -1.2082630     0.7153210    -1.3275710
  H       -2.5819740    -0.4371880     1.1710350
  H       -2.2056380    -1.3508490    -0.2961240
  H       -3.3922610    -0.0400190    -0.3512830
units angstrom
no_reorient  #important for SAPT in psi4, default
symmetry c1  #important for SAPT in psi4, default
}

set PROPERTIES_ORIGIN ["COM"]
properties('MP2/aug-cc-pvtz', properties = ['dipole'])
--------------------------------------------------------------------------

    Molecular point group: c1
  Charge       = 0
  Multiplicity = 1
  Basis Set: AUG-CC-PVTZ
    Blend: AUG-CC-PVTZ
  Basis Set: (AUG-CC-PVTZ AUX)
    Blend: AUG-CC-PVTZ-JKFIT

    Orbital Energies [Eh]
    ---------------------

    Doubly Occupied:

       1A    -11.218889     2A    -11.218247     3A    -11.215680
       4A    -11.215038     5A    -11.212326     6A    -11.210880
       7A     -1.144769     8A     -1.031223     9A     -0.900883
      10A     -0.888785    11A     -0.810270    12A     -0.736756
      13A     -0.654205    14A     -0.629113    15A     -0.603222
      16A     -0.558497    17A     -0.533293    18A     -0.519610
      19A     -0.505809    20A     -0.480432    21A     -0.475026
      22A     -0.432686    23A     -0.429126    24A     -0.415801

  @DF-RHF Final Energy:  -234.23662875815683

   => Energetics <=

    Nuclear Repulsion Energy =            247.8990805554270196
    One-Electron Energy =                -806.1902869522766650
    Two-Electron Energy =                 324.0545776386928765
    Total Energy =                       -234.2366287581568258
  Basis Set: (AUG-CC-PVTZ AUX)
    Blend: AUG-CC-PVTZ-RI
    Molecular point group: c1

    Geometry (in Angstrom), charge = 0, multiplicity = 1:

       Center              X                  Y                   Z               Mass
    ------------   -----------------  -----------------  -----------------  -----------------
         C           -0.018242203178     0.218182426540     0.342870954313    12.000000000000
         C            1.319327496822     0.929492826540     0.032104854313    12.000000000000
         C            0.676738796822    -1.059799573460    -0.186212045687    12.000000000000
         C            2.030052796822    -0.343535573460     0.014594954313    12.000000000000
         C           -1.350869203178     0.635782426540    -0.250240045687    12.000000000000
         C           -2.470820203178    -0.349301573460     0.077018954313    12.000000000000
         H           -0.097691203178     0.157347426540     1.437330954313     1.007825032230
         H            1.590209796822     1.810623426540     0.622590954313     1.007825032230
         H            1.195251796822     1.375274426540    -1.058472045687     1.007825032230
         H            0.459465796822    -1.198701573460    -1.252012045687     1.007825032230
         H            0.503805796822    -2.006251573460     0.335049954313     1.007825032230
         H            2.822068796822    -0.515114573460    -0.720205045687     1.007825032230
         H            2.432123796822    -0.533382573460     1.014510954313     1.007825032230
         H           -1.614880203178     1.637626426540     0.113321954313     1.007825032230
         H           -1.238043203178     0.719904426540    -1.339325045687     1.007825032230
         H           -2.611754203178    -0.432604573460     1.159280954313     1.007825032230
         H           -2.235418203178    -1.346265573460    -0.307878045687     1.007825032230
         H           -3.422041203178    -0.035435573460    -0.363037045687     1.007825032230

  Basis Set: AUG-CC-PVTZ
    Blend: AUG-CC-PVTZ
  Basis Set: (AUG-CC-PVTZ AUX)
    Blend: AUG-CC-PVTZ-JKFIT
	 Reference Energy          =    -234.2366287581568258 [Eh]
	 Singles Energy            =      -0.0000000000000000 [Eh]
	 Same-Spin Energy          =      -0.2533637840369817 [Eh]
	 Opposite-Spin Energy      =      -0.9222782741540979 [Eh]
	 Correlation Energy        =      -1.1756420581910796 [Eh]
	 Total Energy              =    -235.4122708163478990 [Eh]

	 ================> DF-SCS-MP2 Energies <==================
	-----------------------------------------------------------
	 SCS Same-Spin Scale       =       0.3333333333333333 [-]
	 SCS Opposite-Spin Scale   =       1.2000000000000000 [-]
	 SCS Same-Spin Energy      =      -0.0844545946789939 [Eh]
	 SCS Opposite-Spin Energy  =      -1.1067339289849174 [Eh]
	 SCS Correlation Energy    =      -1.1911885236639113 [Eh]
	 SCS Total Energy          =    -235.4278172818207508 [Eh]
	-----------------------------------------------------------

  Dipole Moment: [D]
     X:    -0.0915      Y:     0.0167      Z:     0.0988     Total:     0.1357

*** Psi4 exiting successfully. Buy a developer a beer!
