                               Psi4 1.4a3.dev225

  ==> Input File <==

--------------------------------------------------------------------------
#psi4
#
memory 32 gb

molecule  {
0 1
  C        0.0115380     0.2135990     0.3546250
  C        1.2941630     0.9919190    -0.0205040
  C        0.7065190    -1.0643830    -0.1744580
  C        2.0598330    -0.3481190     0.0263490
  C       -1.3035227     0.6256943    -0.2306678
  C       -2.4410400    -0.3538850     0.0887730
  H       -0.0679110     0.1527640     1.4490850
  H        1.6199900     1.8060400     0.6343450
  H        1.2250320     1.3706910    -1.0467180
  H        0.4892460    -1.2032850    -1.2402580
  H        0.5335860    -2.0108350     0.3468040
  H        2.8518490    -0.5196980    -0.7084510
  H        2.4619040    -0.5379660     1.0262650
  H       -1.5851000     1.6330430     0.1250760
  H       -1.2082630     0.7153210    -1.3275710
  H       -2.5819740    -0.4371880     1.1710350
  H       -2.2056380    -1.3508490    -0.2961240
  H       -3.3922610    -0.0400190    -0.3512830
units angstrom
no_reorient  #important for SAPT in psi4, default
symmetry c1  #important for SAPT in psi4, default
}

set PROPERTIES_ORIGIN ["COM"]
properties('MP2/aug-cc-pvtz', properties = ['dipole'])
--------------------------------------------------------------------------

    Molecular point group: c1
  Charge       = 0
  Multiplicity = 1
  Basis Set: AUG-CC-PVTZ
    Blend: AUG-CC-PVTZ
  Basis Set: (AUG-CC-PVTZ AUX)
    Blend: AUG-CC-PVTZ-JKFIT

    Orbital Energies [Eh]
    ---------------------

    Doubly Occupied:

       1A    -11.218440     2A    -11.215872     3A    -11.214575
       4A    -11.214066     5A    -11.213841     6A    -11.210098
       7A     -1.135271     8A     -1.026717     9A     -0.900465
      10A     -0.888458    11A     -0.807732    12A     -0.743838
      13A     -0.649262    14A     -0.626886    15A     -0.599947
      16A     -0.553243    17A     -0.534559    18A     -0.530592
      19A     -0.506544    20A     -0.476747    21A     -0.461108
      22A     -0.446772    23A     -0.424627    24A     -0.420155

  @DF-RHF Final Energy:  -234.24817818407641

   => Energetics <=

    Nuclear Repulsion Energy =            247.5057454065240563
    One-Electron Energy =                -805.4682198143145797
    Two-Electron Energy =                 323.7142962237140864
    Total Energy =                       -234.2481781840764370
  Basis Set: (AUG-CC-PVTZ AUX)
    Blend: AUG-CC-PVTZ-RI
    Molecular point group: c1

    Geometry (in Angstrom), charge = 0, multiplicity = 1:

       Center              X                  Y                   Z               Mass
    ------------   -----------------  -----------------  -----------------  -----------------
         C           -0.012908394211     0.209405823284     0.350939748802    12.000000000000
         C            1.269716605789     0.987725823284    -0.024189251198    12.000000000000
         C            0.682072605789    -1.068576176716    -0.178143251198    12.000000000000
         C            2.035386605789    -0.352312176716     0.022663748802    12.000000000000
         C           -1.327969094211     0.621501123284    -0.234353051198    12.000000000000
         C           -2.465486394211    -0.358078176716     0.085087748802    12.000000000000
         H           -0.092357394211     0.148570823284     1.445399748802     1.007825032230
         H            1.595543605789     1.801846823284     0.630659748802     1.007825032230
         H            1.200585605789     1.366497823284    -1.050403251198     1.007825032230
         H            0.464799605789    -1.207478176716    -1.243943251198     1.007825032230
         H            0.509139605789    -2.015028176716     0.343118748802     1.007825032230
         H            2.827402605789    -0.523891176716    -0.712136251198     1.007825032230
         H            2.437457605789    -0.542159176716     1.022579748802     1.007825032230
         H           -1.609546394211     1.628849823284     0.121390748802     1.007825032230
         H           -1.232709394211     0.711127823284    -1.331256251198     1.007825032230
         H           -2.606420394211    -0.441381176716     1.167349748802     1.007825032230
         H           -2.230084394211    -1.355042176716    -0.299809251198     1.007825032230
         H           -3.416707394211    -0.044212176716    -0.354968251198     1.007825032230

  Basis Set: AUG-CC-PVTZ
    Blend: AUG-CC-PVTZ
  Basis Set: (AUG-CC-PVTZ AUX)
    Blend: AUG-CC-PVTZ-JKFIT
	 Reference Energy          =    -234.2481781840764086 [Eh]
	 Singles Energy            =      -0.0000000000000000 [Eh]
	 Same-Spin Energy          =      -0.2526970737784422 [Eh]
	 Opposite-Spin Energy      =      -0.9215980527427163 [Eh]
	 Correlation Energy        =      -1.1742951265211585 [Eh]
	 Total Energy              =    -235.4224733105975531 [Eh]

	 ================> DF-SCS-MP2 Energies <==================
	-----------------------------------------------------------
	 SCS Same-Spin Scale       =       0.3333333333333333 [-]
	 SCS Opposite-Spin Scale   =       1.2000000000000000 [-]
	 SCS Same-Spin Energy      =      -0.0842323579261474 [Eh]
	 SCS Opposite-Spin Energy  =      -1.1059176632912595 [Eh]
	 SCS Correlation Energy    =      -1.1901500212174070 [Eh]
	 SCS Total Energy          =    -235.4383282052938284 [Eh]
	-----------------------------------------------------------

  Dipole Moment: [D]
     X:    -0.0594      Y:     0.0458      Z:     0.0576     Total:     0.0946

*** Psi4 exiting successfully. Buy a developer a beer!
