                               Psi4 1.3.2 release

  ==> Input File <==

--------------------------------------------------------------------------
#psi4
#
memory 32 gb

molecule  {
0 1
  C       -0.0372103     0.1286365     0.3948793
  C        1.2941630     0.9919190    -0.0205040
  C        0.7065190    -1.0643830    -0.1744580
  C        2.0598330    -0.3481190     0.0263490
  C       -1.3210890     0.6311990    -0.2384860
  C       -2.4410400    -0.3538850     0.0887730
  H       -0.0679110     0.1527640     1.4490850
  H        1.6199900     1.8060400     0.6343450
  H        1.2250320     1.3706910    -1.0467180
  H        0.4892460    -1.2032850    -1.2402580
  H        0.5335860    -2.0108350     0.3468040
  H        2.8518490    -0.5196980    -0.7084510
  H        2.4619040    -0.5379660     1.0262650
  H       -1.5851000     1.6330430     0.1250760
  H       -1.2082630     0.7153210    -1.3275710
  H       -2.5819740    -0.4371880     1.1710350
  H       -2.2056380    -1.3508490    -0.2961240
  H       -3.3922610    -0.0400190    -0.3512830
units angstrom
no_reorient  #important for SAPT in psi4, default
symmetry c1  #important for SAPT in psi4, default
}

set PROPERTIES_ORIGIN ["COM"]
properties('MP2/aug-cc-pvtz', properties = ['dipole'])
--------------------------------------------------------------------------

    Molecular point group: c1
  Charge       = 0
  Multiplicity = 1
  Basis Set: AUG-CC-PVTZ
    Blend: AUG-CC-PVTZ
  Basis Set: (AUG-CC-PVTZ AUX)
    Blend: AUG-CC-PVTZ-JKFIT

    Orbital Energies [Eh]
    ---------------------

    Doubly Occupied:

       1A    -11.218624     2A    -11.215510     3A    -11.215052
       4A    -11.214693     5A    -11.214605     6A    -11.207943
       7A     -1.128321     8A     -1.027681     9A     -0.895745
      10A     -0.887796    11A     -0.806738    12A     -0.750351
      13A     -0.645241    14A     -0.626142    15A     -0.602570
      16A     -0.554561    17A     -0.531993    18A     -0.528644
      19A     -0.509097    20A     -0.480254    21A     -0.463623
      22A     -0.454339    23A     -0.433307    24A     -0.391852

  @DF-RHF Final Energy:  -234.23991739915894

   => Energetics <=

    Nuclear Repulsion Energy =            246.9671257280552084
    One-Electron Energy =                -804.4047250135702143
    Two-Electron Energy =                 323.1976818863561220
    Total Energy =                       -234.2399173991589123
  Basis Set: (AUG-CC-PVTZ AUX)
    Blend: AUG-CC-PVTZ-RI
    Molecular point group: c1

    Geometry (in Angstrom), charge = 0, multiplicity = 1:

       Center              X                  Y                   Z               Mass
    ------------   -----------------  -----------------  -----------------  -----------------
         C           -0.052193758179     0.135781762762     0.386565494315    12.000000000000
         C            1.279179541821     0.999064262762    -0.028817805685    12.000000000000
         C            0.691535541821    -1.057237737238    -0.182771805685    12.000000000000
         C            2.044849541821    -0.340973737238     0.018035194315    12.000000000000
         C           -1.336072458179     0.638344262762    -0.246799805685    12.000000000000
         C           -2.456023458179    -0.346739737238     0.080459194315    12.000000000000
         H           -0.082894458179     0.159909262762     1.440771194315     1.007825032230
         H            1.605006541821     1.813185262762     0.626031194315     1.007825032230
         H            1.210048541821     1.377836262762    -1.055031805685     1.007825032230
         H            0.474262541821    -1.196139737238    -1.248571805685     1.007825032230
         H            0.518602541821    -2.003689737238     0.338490194315     1.007825032230
         H            2.836865541821    -0.512552737238    -0.716764805685     1.007825032230
         H            2.446920541821    -0.530820737238     1.017951194315     1.007825032230
         H           -1.600083458179     1.640188262762     0.116762194315     1.007825032230
         H           -1.223246458179     0.722466262762    -1.335884805685     1.007825032230
         H           -2.596957458179    -0.430042737238     1.162721194315     1.007825032230
         H           -2.220621458179    -1.343703737238    -0.304437805685     1.007825032230
         H           -3.407244458179    -0.032873737238    -0.359596805685     1.007825032230

  Basis Set: AUG-CC-PVTZ
    Blend: AUG-CC-PVTZ
  Basis Set: (AUG-CC-PVTZ AUX)
    Blend: AUG-CC-PVTZ-JKFIT
	 Reference Energy          =    -234.2399173991589407 [Eh]
	 Singles Energy            =      -0.0000000000000000 [Eh]
	 Same-Spin Energy          =      -0.2527238884401054 [Eh]
	 Opposite-Spin Energy      =      -0.9222585746993180 [Eh]
	 Correlation Energy        =      -1.1749824631394234 [Eh]
	 Total Energy              =    -235.4148998622983697 [Eh]

	 ================> DF-SCS-MP2 Energies <==================
	-----------------------------------------------------------
	 SCS Same-Spin Scale       =       0.3333333333333333 [-]
	 SCS Opposite-Spin Scale   =       1.2000000000000000 [-]
	 SCS Same-Spin Energy      =      -0.0842412961467018 [Eh]
	 SCS Opposite-Spin Energy  =      -1.1067102896391816 [Eh]
	 SCS Correlation Energy    =      -1.1909515857858834 [Eh]
	 SCS Total Energy          =    -235.4308689849448228 [Eh]
	-----------------------------------------------------------

  Dipole Moment: [D]
     X:    -0.0687      Y:     0.0630      Z:     0.0610     Total:     0.1114

*** Psi4 exiting successfully. Buy a developer a beer!
