                               Psi4 1.3.2 release

  ==> Input File <==

--------------------------------------------------------------------------
#psi4
#
memory 32 gb

molecule  {
0 1
  C        0.0115380     0.2135990     0.3546250
  C        1.2794393     1.0080913    -0.0363212
  C        0.7065190    -1.0643830    -0.1744580
  C        2.0598330    -0.3481190     0.0263490
  C       -1.3210890     0.6311990    -0.2384860
  C       -2.4410400    -0.3538850     0.0887730
  H       -0.0679110     0.1527640     1.4490850
  H        1.6199900     1.8060400     0.6343450
  H        1.2250320     1.3706910    -1.0467180
  H        0.4892460    -1.2032850    -1.2402580
  H        0.5335860    -2.0108350     0.3468040
  H        2.8518490    -0.5196980    -0.7084510
  H        2.4619040    -0.5379660     1.0262650
  H       -1.5851000     1.6330430     0.1250760
  H       -1.2082630     0.7153210    -1.3275710
  H       -2.5819740    -0.4371880     1.1710350
  H       -2.2056380    -1.3508490    -0.2961240
  H       -3.3922610    -0.0400190    -0.3512830
units angstrom
no_reorient  #important for SAPT in psi4, default
symmetry c1  #important for SAPT in psi4, default
}

set PROPERTIES_ORIGIN ["COM"]
properties('MP2/aug-cc-pvtz', properties = ['dipole'])
--------------------------------------------------------------------------

    Molecular point group: c1
  Charge       = 0
  Multiplicity = 1
  Basis Set: AUG-CC-PVTZ
    Blend: AUG-CC-PVTZ
  Basis Set: (AUG-CC-PVTZ AUX)
    Blend: AUG-CC-PVTZ-JKFIT

    Orbital Energies [Eh]
    ---------------------

    Doubly Occupied:

       1A    -11.219524     2A    -11.216610     3A    -11.213821
       4A    -11.213568     5A    -11.212986     6A    -11.209451
       7A     -1.131958     8A     -1.026050     9A     -0.899593
      10A     -0.887239    11A     -0.808115    12A     -0.745247
      13A     -0.647628    14A     -0.624775    15A     -0.600891
      16A     -0.551959    17A     -0.536738    18A     -0.532630
      19A     -0.506178    20A     -0.478526    21A     -0.458746
      22A     -0.447951    23A     -0.426010    24A     -0.415802

  @DF-RHF Final Energy:  -234.24818010337214

   => Energetics <=

    Nuclear Repulsion Energy =            247.1490062737339031
    One-Electron Energy =                -804.7703803042452364
    Two-Electron Energy =                 323.3731939271391980
    Total Energy =                       -234.2481801033721354
  Basis Set: (AUG-CC-PVTZ AUX)
    Blend: AUG-CC-PVTZ-RI
    Molecular point group: c1

    Geometry (in Angstrom), charge = 0, multiplicity = 1:

       Center              X                  Y                   Z               Mass
    ------------   -----------------  -----------------  -----------------  -----------------
         C           -0.008300687846     0.206312566831     0.354312464287    12.000000000000
         C            1.259600612154     1.000804866831    -0.036633735713    12.000000000000
         C            0.686680312154    -1.071669433169    -0.174770535713    12.000000000000
         C            2.039994312154    -0.355405433169     0.026036464287    12.000000000000
         C           -1.340927687846     0.623912566831    -0.238798535713    12.000000000000
         C           -2.460878687846    -0.361171433169     0.088460464287    12.000000000000
         H           -0.087749687846     0.145477566831     1.448772464287     1.007825032230
         H            1.600151312154     1.798753566831     0.634032464287     1.007825032230
         H            1.205193312154     1.363404566831    -1.047030535713     1.007825032230
         H            0.469407312154    -1.210571433169    -1.240570535713     1.007825032230
         H            0.513747312154    -2.018121433169     0.346491464287     1.007825032230
         H            2.832010312154    -0.526984433169    -0.708763535713     1.007825032230
         H            2.442065312154    -0.545252433169     1.025952464287     1.007825032230
         H           -1.604938687846     1.625756566831     0.124763464287     1.007825032230
         H           -1.228101687846     0.708034566831    -1.327883535713     1.007825032230
         H           -2.601812687846    -0.444474433169     1.170722464287     1.007825032230
         H           -2.225476687846    -1.358135433169    -0.296436535713     1.007825032230
         H           -3.412099687846    -0.047305433169    -0.351595535713     1.007825032230

  Basis Set: AUG-CC-PVTZ
    Blend: AUG-CC-PVTZ
  Basis Set: (AUG-CC-PVTZ AUX)
    Blend: AUG-CC-PVTZ-JKFIT
	 Reference Energy          =    -234.2481801033721354 [Eh]
	 Singles Energy            =      -0.0000000000000000 [Eh]
	 Same-Spin Energy          =      -0.2525105733820401 [Eh]
	 Opposite-Spin Energy      =      -0.9215013841748321 [Eh]
	 Correlation Energy        =      -1.1740119575568722 [Eh]
	 Total Energy              =    -235.4221920609290066 [Eh]

	 ================> DF-SCS-MP2 Energies <==================
	-----------------------------------------------------------
	 SCS Same-Spin Scale       =       0.3333333333333333 [-]
	 SCS Opposite-Spin Scale   =       1.2000000000000000 [-]
	 SCS Same-Spin Energy      =      -0.0841701911273467 [Eh]
	 SCS Opposite-Spin Energy  =      -1.1058016610097985 [Eh]
	 SCS Correlation Energy    =      -1.1899718521371452 [Eh]
	 SCS Total Energy          =    -235.4381519555092837 [Eh]
	-----------------------------------------------------------

  Dipole Moment: [D]
     X:    -0.0572      Y:     0.0488      Z:     0.0493     Total:     0.0899

*** Psi4 exiting successfully. Buy a developer a beer!
