                               Psi4 1.3.2 release

  ==> Input File <==

--------------------------------------------------------------------------
#psi4
#
memory 32 gb

molecule  {
0 1
  C        0.0115380     0.2135990     0.3546250
  C        1.2941630     0.9919190    -0.0205040
  C        0.7065190    -1.0643830    -0.1744580
  C        2.0598330    -0.3481190     0.0263490
  C       -1.2759804     0.6258461    -0.3341520
  C       -2.4410400    -0.3538850     0.0887730
  H       -0.0679110     0.1527640     1.4490850
  H        1.6199900     1.8060400     0.6343450
  H        1.2250320     1.3706910    -1.0467180
  H        0.4892460    -1.2032850    -1.2402580
  H        0.5335860    -2.0108350     0.3468040
  H        2.8518490    -0.5196980    -0.7084510
  H        2.4619040    -0.5379660     1.0262650
  H       -1.5851000     1.6330430     0.1250760
  H       -1.2082630     0.7153210    -1.3275710
  H       -2.5819740    -0.4371880     1.1710350
  H       -2.2056380    -1.3508490    -0.2961240
  H       -3.3922610    -0.0400190    -0.3512830
units angstrom
no_reorient  #important for SAPT in psi4, default
symmetry c1  #important for SAPT in psi4, default
}

set PROPERTIES_ORIGIN ["COM"]
properties('MP2/aug-cc-pvtz', properties = ['dipole'])
--------------------------------------------------------------------------

    Molecular point group: c1
  Charge       = 0
  Multiplicity = 1
  Basis Set: AUG-CC-PVTZ
    Blend: AUG-CC-PVTZ
  Basis Set: (AUG-CC-PVTZ AUX)
    Blend: AUG-CC-PVTZ-JKFIT

    Orbital Energies [Eh]
    ---------------------

    Doubly Occupied:

       1A    -11.219863     2A    -11.215289     3A    -11.213254
       4A    -11.212924     5A    -11.212530     6A    -11.211472
       7A     -1.134497     8A     -1.020198     9A     -0.897704
      10A     -0.887368    11A     -0.814562    12A     -0.746881
      13A     -0.648770    14A     -0.627420    15A     -0.597515
      16A     -0.548039    17A     -0.533639    18A     -0.529239
      19A     -0.503473    20A     -0.500951    21A     -0.454417
      22A     -0.450984    23A     -0.418893    24A     -0.410783

  @DF-RHF Final Energy:  -234.23590123950504

   => Energetics <=

    Nuclear Repulsion Energy =            247.2199184216490835
    One-Electron Energy =                -804.8903081836288038
    Two-Electron Energy =                 323.4344885224747372
    Total Energy =                       -234.2359012395050399
  Basis Set: (AUG-CC-PVTZ AUX)
    Blend: AUG-CC-PVTZ-RI
    Molecular point group: c1

    Geometry (in Angstrom), charge = 0, multiplicity = 1:

       Center              X                  Y                   Z               Mass
    ------------   -----------------  -----------------  -----------------  -----------------
         C           -0.016838615053     0.209384161784     0.365706698537    12.000000000000
         C            1.265786384947     0.987704161784    -0.009422301463    12.000000000000
         C            0.678142384947    -1.068597838216    -0.163376301463    12.000000000000
         C            2.031456384947    -0.352333838216     0.037430698537    12.000000000000
         C           -1.304357015053     0.621631261784    -0.323070301463    12.000000000000
         C           -2.469416615053    -0.358099838216     0.099854698537    12.000000000000
         H           -0.096287615053     0.148549161784     1.460166698537     1.007825032230
         H            1.591613384947     1.801825161784     0.645426698537     1.007825032230
         H            1.196655384947     1.366476161784    -1.035636301463     1.007825032230
         H            0.460869384947    -1.207499838216    -1.229176301463     1.007825032230
         H            0.505209384947    -2.015049838216     0.357885698537     1.007825032230
         H            2.823472384947    -0.523912838216    -0.697369301463     1.007825032230
         H            2.433527384947    -0.542180838216     1.037346698537     1.007825032230
         H           -1.613476615053     1.628828161784     0.136157698537     1.007825032230
         H           -1.236639615053     0.711106161784    -1.316489301463     1.007825032230
         H           -2.610350615053    -0.441402838216     1.182116698537     1.007825032230
         H           -2.234014615053    -1.355063838216    -0.285042301463     1.007825032230
         H           -3.420637615053    -0.044233838216    -0.340201301463     1.007825032230

  Basis Set: AUG-CC-PVTZ
    Blend: AUG-CC-PVTZ
  Basis Set: (AUG-CC-PVTZ AUX)
    Blend: AUG-CC-PVTZ-JKFIT
	 Reference Energy          =    -234.2359012395050399 [Eh]
	 Singles Energy            =      -0.0000000000000000 [Eh]
	 Same-Spin Energy          =      -0.2525085288454229 [Eh]
	 Opposite-Spin Energy      =      -0.9219174073693026 [Eh]
	 Correlation Energy        =      -1.1744259362147256 [Eh]
	 Total Energy              =    -235.4103271757197717 [Eh]

	 ================> DF-SCS-MP2 Energies <==================
	-----------------------------------------------------------
	 SCS Same-Spin Scale       =       0.3333333333333333 [-]
	 SCS Opposite-Spin Scale   =       1.2000000000000000 [-]
	 SCS Same-Spin Energy      =      -0.0841695096151409 [Eh]
	 SCS Opposite-Spin Energy  =      -1.1063008888431631 [Eh]
	 SCS Correlation Energy    =      -1.1904703984583040 [Eh]
	 SCS Total Energy          =    -235.4263716379633422 [Eh]
	-----------------------------------------------------------

  Dipole Moment: [D]
     X:    -0.0463      Y:     0.0305      Z:     0.0229     Total:     0.0600

*** Psi4 exiting successfully. Buy a developer a beer!
