                               Psi4 1.3.2 release

  ==> Input File <==

--------------------------------------------------------------------------
#psi4
#
memory 32 gb

molecule  {
0 1
  C       -0.0044962     0.0778344     0.2737993
  C        1.2941630     0.9919190    -0.0205040
  C        0.7065190    -1.0643830    -0.1744580
  C        2.0598330    -0.3481190     0.0263490
  C       -1.3210890     0.6311990    -0.2384860
  C       -2.4410400    -0.3538850     0.0887730
  H       -0.0679110     0.1527640     1.4490850
  H        1.6199900     1.8060400     0.6343450
  H        1.2250320     1.3706910    -1.0467180
  H        0.4892460    -1.2032850    -1.2402580
  H        0.5335860    -2.0108350     0.3468040
  H        2.8518490    -0.5196980    -0.7084510
  H        2.4619040    -0.5379660     1.0262650
  H       -1.5851000     1.6330430     0.1250760
  H       -1.2082630     0.7153210    -1.3275710
  H       -2.5819740    -0.4371880     1.1710350
  H       -2.2056380    -1.3508490    -0.2961240
  H       -3.3922610    -0.0400190    -0.3512830
units angstrom
no_reorient  #important for SAPT in psi4, default
symmetry c1  #important for SAPT in psi4, default
}

set PROPERTIES_ORIGIN ["COM"]
properties('MP2/aug-cc-pvtz', properties = ['dipole'])
--------------------------------------------------------------------------

    Molecular point group: c1
  Charge       = 0
  Multiplicity = 1
  Basis Set: AUG-CC-PVTZ
    Blend: AUG-CC-PVTZ
  Basis Set: (AUG-CC-PVTZ AUX)
    Blend: AUG-CC-PVTZ-JKFIT

    Orbital Energies [Eh]
    ---------------------

    Doubly Occupied:

       1A    -11.225079     2A    -11.217143     3A    -11.216282
       4A    -11.213992     5A    -11.211439     6A    -11.208790
       7A     -1.145735     8A     -1.029451     9A     -0.903961
      10A     -0.889971    11A     -0.809256    12A     -0.734282
      13A     -0.653704    14A     -0.633195    15A     -0.603357
      16A     -0.548162    17A     -0.533798    18A     -0.528018
      19A     -0.514301    20A     -0.481288    21A     -0.472516
      22A     -0.450269    23A     -0.426341    24A     -0.390790

  @DF-RHF Final Energy:  -234.22421647142190

   => Energetics <=

    Nuclear Repulsion Energy =            248.1004074366197187
    One-Electron Energy =                -806.5670104595383236
    Two-Electron Energy =                 324.2423865514967929
    Total Energy =                       -234.2242164714218688
  Basis Set: (AUG-CC-PVTZ AUX)
    Blend: AUG-CC-PVTZ-RI
    Molecular point group: c1

    Geometry (in Angstrom), charge = 0, multiplicity = 1:

       Center              X                  Y                   Z               Mass
    ------------   -----------------  -----------------  -----------------  -----------------
         C           -0.024147882607     0.092229001860     0.282763322948    12.000000000000
         C            1.274511317393     1.006313601860    -0.011539977052    12.000000000000
         C            0.686867317393    -1.049988398140    -0.165493977052    12.000000000000
         C            2.040181317393    -0.333724398140     0.035313022948    12.000000000000
         C           -1.340740682607     0.645593601860    -0.229521977052    12.000000000000
         C           -2.460691682607    -0.339490398140     0.097737022948    12.000000000000
         H           -0.087562682607     0.167158601860     1.458049022948     1.007825032230
         H            1.600338317393     1.820434601860     0.643309022948     1.007825032230
         H            1.205380317393     1.385085601860    -1.037753977052     1.007825032230
         H            0.469594317393    -1.188890398140    -1.231293977052     1.007825032230
         H            0.513934317393    -1.996440398140     0.355768022948     1.007825032230
         H            2.832197317393    -0.505303398140    -0.699486977052     1.007825032230
         H            2.442252317393    -0.523571398140     1.035229022948     1.007825032230
         H           -1.604751682607     1.647437601860     0.134040022948     1.007825032230
         H           -1.227914682607     0.729715601860    -1.318606977052     1.007825032230
         H           -2.601625682607    -0.422793398140     1.179999022948     1.007825032230
         H           -2.225289682607    -1.336454398140    -0.287159977052     1.007825032230
         H           -3.411912682607    -0.025624398140    -0.342318977052     1.007825032230

  Basis Set: AUG-CC-PVTZ
    Blend: AUG-CC-PVTZ
  Basis Set: (AUG-CC-PVTZ AUX)
    Blend: AUG-CC-PVTZ-JKFIT
	 Reference Energy          =    -234.2242164714218973 [Eh]
	 Singles Energy            =      -0.0000000000000000 [Eh]
	 Same-Spin Energy          =      -0.2539355453067702 [Eh]
	 Opposite-Spin Energy      =      -0.9235790683093185 [Eh]
	 Correlation Energy        =      -1.1775146136160886 [Eh]
	 Total Energy              =    -235.4017310850379943 [Eh]

	 ================> DF-SCS-MP2 Energies <==================
	-----------------------------------------------------------
	 SCS Same-Spin Scale       =       0.3333333333333333 [-]
	 SCS Opposite-Spin Scale   =       1.2000000000000000 [-]
	 SCS Same-Spin Energy      =      -0.0846451817689234 [Eh]
	 SCS Opposite-Spin Energy  =      -1.1082948819711822 [Eh]
	 SCS Correlation Energy    =      -1.1929400637401055 [Eh]
	 SCS Total Energy          =    -235.4171565351620075 [Eh]
	-----------------------------------------------------------

  Dipole Moment: [D]
     X:    -0.0451      Y:     0.0547      Z:     0.0061     Total:     0.0711

*** Psi4 exiting successfully. Buy a developer a beer!
