                               Psi4 1.3.2 release

  ==> Input File <==

--------------------------------------------------------------------------
#psi4
#
memory 32 gb

molecule  {
0 1
  C        0.0115380     0.2135990     0.3546250
  C        1.2941630     0.9919190    -0.0205040
  C        0.7065190    -1.0643830    -0.1744580
  C        2.0598330    -0.3481190     0.0263490
  C       -1.3210890     0.6311990    -0.2384860
  C       -2.4410400    -0.3538850     0.0887730
  H       -0.0679110     0.1527640     1.4490850
  H        1.6199900     1.8060400     0.6343450
  H        1.2250320     1.3706910    -1.0467180
  H        0.4892460    -1.2032850    -1.2402580
  H        0.5335860    -2.0108350     0.3468040
  H        2.8518490    -0.5196980    -0.7084510
  H        2.4619040    -0.5379660     1.0262650
  H       -1.5851000     1.6330430     0.1250760
  H       -1.2082630     0.7153210    -1.3275710
  H       -2.5819740    -0.4371880     1.1710350
  H       -2.2056380    -1.3508490    -0.2961240
  H       -3.3922610    -0.0400190    -0.3512830
units angstrom
no_reorient  #important for SAPT in psi4, default
symmetry c1  #important for SAPT in psi4, default
}

set PROPERTIES_ORIGIN ["COM"]
properties('MP2/aug-cc-pvtz', properties = ['dipole'])
--------------------------------------------------------------------------

    Molecular point group: c1
  Charge       = 0
  Multiplicity = 1
  Basis Set: AUG-CC-PVTZ
    Blend: AUG-CC-PVTZ
  Basis Set: (AUG-CC-PVTZ AUX)
    Blend: AUG-CC-PVTZ-JKFIT

    Orbital Energies [Eh]
    ---------------------

    Doubly Occupied:

       1A    -11.219139     2A    -11.215782     3A    -11.213965
       4A    -11.213927     5A    -11.213685     6A    -11.209720
       7A     -1.134074     8A     -1.027005     9A     -0.898979
      10A     -0.887974    11A     -0.808467    12A     -0.743437
      13A     -0.648919    14A     -0.625409    15A     -0.601339
      16A     -0.552948    17A     -0.534577    18A     -0.530443
      19A     -0.506305    20A     -0.477937    21A     -0.462302
      22A     -0.445312    23A     -0.425614    24A     -0.418644

  @DF-RHF Final Energy:  -234.24869867546971

   => Energetics <=

    Nuclear Repulsion Energy =            247.2881565162991819
    One-Electron Energy =                -805.0419092766315998
    Two-Electron Energy =                 323.5050540848627065
    Total Energy =                       -234.2486986754697114
  Basis Set: (AUG-CC-PVTZ AUX)
    Blend: AUG-CC-PVTZ-RI
    Molecular point group: c1

    Geometry (in Angstrom), charge = 0, multiplicity = 1:

       Center              X                  Y                   Z               Mass
    ------------   -----------------  -----------------  -----------------  -----------------
         C           -0.010401724892     0.208620315658     0.352055387387    12.000000000000
         C            1.272223275108     0.986940315658    -0.023073612613    12.000000000000
         C            0.684579275108    -1.069361684342    -0.177027612613    12.000000000000
         C            2.037893275108    -0.353097684342     0.023779387387    12.000000000000
         C           -1.343028724892     0.626220315658    -0.241055612613    12.000000000000
         C           -2.462979724892    -0.358863684342     0.086203387387    12.000000000000
         H           -0.089850724892     0.147785315658     1.446515387387     1.007825032230
         H            1.598050275108     1.801061315658     0.631775387387     1.007825032230
         H            1.203092275108     1.365712315658    -1.049287612613     1.007825032230
         H            0.467306275108    -1.208263684342    -1.242827612613     1.007825032230
         H            0.511646275108    -2.015813684342     0.344234387387     1.007825032230
         H            2.829909275108    -0.524676684342    -0.711020612613     1.007825032230
         H            2.439964275108    -0.542944684342     1.023695387387     1.007825032230
         H           -1.607039724892     1.628064315658     0.122506387387     1.007825032230
         H           -1.230202724892     0.710342315658    -1.330140612613     1.007825032230
         H           -2.603913724892    -0.442166684342     1.168465387387     1.007825032230
         H           -2.227577724892    -1.355827684342    -0.298693612613     1.007825032230
         H           -3.414200724892    -0.044997684342    -0.353852612613     1.007825032230

  Basis Set: AUG-CC-PVTZ
    Blend: AUG-CC-PVTZ
  Basis Set: (AUG-CC-PVTZ AUX)
    Blend: AUG-CC-PVTZ-JKFIT
	 Reference Energy          =    -234.2486986754697114 [Eh]
	 Singles Energy            =      -0.0000000000000000 [Eh]
	 Same-Spin Energy          =      -0.2525951304705441 [Eh]
	 Opposite-Spin Energy      =      -0.9214772336638448 [Eh]
	 Correlation Energy        =      -1.1740723641343889 [Eh]
	 Total Energy              =    -235.4227710396041005 [Eh]

	 ================> DF-SCS-MP2 Energies <==================
	-----------------------------------------------------------
	 SCS Same-Spin Scale       =       0.3333333333333333 [-]
	 SCS Opposite-Spin Scale   =       1.2000000000000000 [-]
	 SCS Same-Spin Energy      =      -0.0841983768235147 [Eh]
	 SCS Opposite-Spin Energy  =      -1.1057726803966137 [Eh]
	 SCS Correlation Energy    =      -1.1899710572201283 [Eh]
	 SCS Total Energy          =    -235.4386697326898457 [Eh]
	-----------------------------------------------------------

  Dipole Moment: [D]
     X:    -0.0639      Y:     0.0479      Z:     0.0563     Total:     0.0977

*** Psi4 exiting successfully. Buy a developer a beer!
