                               Psi4 1.3.2 release

  ==> Input File <==

--------------------------------------------------------------------------
#psi4
#
memory 32 gb

molecule  {
0 1
  C        0.0115380     0.2135990     0.3546250
  C        1.2941630     0.9919190    -0.0205040
  C        0.7065190    -1.0643830    -0.1744580
  C        2.0598330    -0.3481190     0.0263490
  C       -1.3104125     0.6300507    -0.2626919
  C       -2.4410400    -0.3538850     0.0887730
  H       -0.0679110     0.1527640     1.4490850
  H        1.6199900     1.8060400     0.6343450
  H        1.2250320     1.3706910    -1.0467180
  H        0.4892460    -1.2032850    -1.2402580
  H        0.5335860    -2.0108350     0.3468040
  H        2.8518490    -0.5196980    -0.7084510
  H        2.4619040    -0.5379660     1.0262650
  H       -1.5851000     1.6330430     0.1250760
  H       -1.2082630     0.7153210    -1.3275710
  H       -2.5819740    -0.4371880     1.1710350
  H       -2.2056380    -1.3508490    -0.2961240
  H       -3.3922610    -0.0400190    -0.3512830
units angstrom
no_reorient  #important for SAPT in psi4, default
symmetry c1  #important for SAPT in psi4, default
}

set PROPERTIES_ORIGIN ["COM"]
properties('MP2/aug-cc-pvtz', properties = ['dipole'])
--------------------------------------------------------------------------

    Molecular point group: c1
  Charge       = 0
  Multiplicity = 1
  Basis Set: AUG-CC-PVTZ
    Blend: AUG-CC-PVTZ
  Basis Set: (AUG-CC-PVTZ AUX)
    Blend: AUG-CC-PVTZ-JKFIT

    Orbital Energies [Eh]
    ---------------------

    Doubly Occupied:

       1A    -11.219153     2A    -11.215631     3A    -11.213646
       4A    -11.213471     5A    -11.213362     6A    -11.210033
       7A     -1.134103     8A     -1.025125     9A     -0.898575
      10A     -0.887788    11A     -0.809464    12A     -0.744192
      13A     -0.648877    14A     -0.624973    15A     -0.601125
      16A     -0.551235    17A     -0.534231    18A     -0.530157
      19A     -0.505133    20A     -0.484145    21A     -0.460413
      22A     -0.447287    23A     -0.424296    24A     -0.416747

  @DF-RHF Final Energy:  -234.24808124005204

   => Energetics <=

    Nuclear Repulsion Energy =            247.2692042943458546
    One-Electron Energy =                -805.0082487471336208
    Two-Electron Energy =                 323.4909632127357213
    Total Energy =                       -234.2480812400520449
  Basis Set: (AUG-CC-PVTZ AUX)
    Blend: AUG-CC-PVTZ-RI
    Molecular point group: c1

    Geometry (in Angstrom), charge = 0, multiplicity = 1:

       Center              X                  Y                   Z               Mass
    ------------   -----------------  -----------------  -----------------  -----------------
         C           -0.011925236103     0.208784175343     0.355509511868    12.000000000000
         C            1.270699763897     0.987104175343    -0.019619488132    12.000000000000
         C            0.683055763897    -1.069197824657    -0.173573488132    12.000000000000
         C            2.036369763897    -0.352933824657     0.027233511868    12.000000000000
         C           -1.333875736103     0.625235875343    -0.261807388132    12.000000000000
         C           -2.464503236103    -0.358699824657     0.089657511868    12.000000000000
         H           -0.091374236103     0.147949175343     1.449969511868     1.007825032230
         H            1.596526763897     1.801225175343     0.635229511868     1.007825032230
         H            1.201568763897     1.365876175343    -1.045833488132     1.007825032230
         H            0.465782763897    -1.208099824657    -1.239373488132     1.007825032230
         H            0.510122763897    -2.015649824657     0.347688511868     1.007825032230
         H            2.828385763897    -0.524512824657    -0.707566488132     1.007825032230
         H            2.438440763897    -0.542780824657     1.027149511868     1.007825032230
         H           -1.608563236103     1.628228175343     0.125960511868     1.007825032230
         H           -1.231726236103     0.710506175343    -1.326686488132     1.007825032230
         H           -2.605437236103    -0.442002824657     1.171919511868     1.007825032230
         H           -2.229101236103    -1.355663824657    -0.295239488132     1.007825032230
         H           -3.415724236103    -0.044833824657    -0.350398488132     1.007825032230

  Basis Set: AUG-CC-PVTZ
    Blend: AUG-CC-PVTZ
  Basis Set: (AUG-CC-PVTZ AUX)
    Blend: AUG-CC-PVTZ-JKFIT
	 Reference Energy          =    -234.2480812400520449 [Eh]
	 Singles Energy            =      -0.0000000000000000 [Eh]
	 Same-Spin Energy          =      -0.2525299820692674 [Eh]
	 Opposite-Spin Energy      =      -0.9214600974499667 [Eh]
	 Correlation Energy        =      -1.1739900795192342 [Eh]
	 Total Energy              =    -235.4220713195712733 [Eh]

	 ================> DF-SCS-MP2 Energies <==================
	-----------------------------------------------------------
	 SCS Same-Spin Scale       =       0.3333333333333333 [-]
	 SCS Opposite-Spin Scale   =       1.2000000000000000 [-]
	 SCS Same-Spin Energy      =      -0.0841766606897558 [Eh]
	 SCS Opposite-Spin Energy  =      -1.1057521169399600 [Eh]
	 SCS Correlation Energy    =      -1.1899287776297158 [Eh]
	 SCS Total Energy          =    -235.4380100176817621 [Eh]
	-----------------------------------------------------------

  Dipole Moment: [D]
     X:    -0.0605      Y:     0.0460      Z:     0.0443     Total:     0.0880

*** Psi4 exiting successfully. Buy a developer a beer!
