                               Psi4 1.3.2 release

  ==> Input File <==

--------------------------------------------------------------------------
#psi4
#
memory 32 gb

molecule  {
0 1
  O       -0.8874150    -1.1053680    -0.0000120
  N       -0.2975850     1.0586860     0.0000180
  C        1.5208660    -0.6926320     0.0000250
  C        0.1219560    -0.1795350     0.0000030
  C        2.5397680     0.4426120    -0.0000230
  C       -2.0377090    -0.3588510    -0.0000130
  C       -1.6838560     0.9546860     0.0000050
  H        1.6599850    -1.3368650     0.8764330
  H        1.6599860    -1.3369460    -0.8763220
  H        2.4145620     1.0741370    -0.8814520
  H        3.5546530     0.0364140    -0.0000210
  H        2.4145820     1.0741970     0.8813660
  H       -2.9679597    -0.9049737     0.0999950
  H       -2.3195540     1.8284960    -0.0000070
units angstrom
no_reorient  #important for SAPT in psi4, default
symmetry c1  #important for SAPT in psi4, default
}

set PROPERTIES_ORIGIN ["COM"]
properties('MP2/aug-cc-pvtz', properties = ['dipole'])
--------------------------------------------------------------------------

    Molecular point group: c1
  Charge       = 0
  Multiplicity = 1
  Basis Set: AUG-CC-PVTZ
    Blend: AUG-CC-PVTZ
  Basis Set: (AUG-CC-PVTZ AUX)
    Blend: AUG-CC-PVTZ-JKFIT

    Orbital Energies [Eh]
    ---------------------

    Doubly Occupied:

       1A    -20.634248     2A    -15.560797     3A    -11.337932
       4A    -11.291095     5A    -11.260834     6A    -11.248824
       7A    -11.220890     8A     -1.476595     9A     -1.226416
      10A     -1.082738    11A     -0.997018    12A     -0.884204
      13A     -0.827353    14A     -0.780382    15A     -0.716736
      16A     -0.667367    17A     -0.629811    18A     -0.609084
      19A     -0.585177    20A     -0.571894    21A     -0.526751
      22A     -0.514733    23A     -0.504998    24A     -0.457046
      25A     -0.449492    26A     -0.332072

  @DF-RHF Final Energy:  -322.82654548969901

   => Energetics <=

    Nuclear Repulsion Energy =            292.3264576873449982
    One-Electron Energy =               -1017.5170368887896757
    Two-Electron Energy =                 402.3640337117457193
    Total Energy =                       -322.8265454896990150
  Basis Set: (AUG-CC-PVTZ AUX)
    Blend: AUG-CC-PVTZ-RI
    Molecular point group: c1

    Geometry (in Angstrom), charge = 0, multiplicity = 1:

       Center              X                  Y                   Z               Mass
    ------------   -----------------  -----------------  -----------------  -----------------
         O           -0.821858183422    -1.101017898025    -0.001050595430    15.994914619570
         N           -0.232028183422     1.063036101975    -0.001020595430    14.003074004430
         C            1.586422816578    -0.688281898025    -0.001013595430    12.000000000000
         C            0.187512816578    -0.175184898025    -0.001035595430    12.000000000000
         C            2.605324816578     0.446962101975    -0.001061595430    12.000000000000
         C           -1.972152183422    -0.354500898025    -0.001051595430    12.000000000000
         C           -1.618299183422     0.959036101975    -0.001033595430    12.000000000000
         H            1.725541816578    -1.332514898025     0.875394404570     1.007825032230
         H            1.725542816578    -1.332595898025    -0.877360595430     1.007825032230
         H            2.480118816578     1.078487101975    -0.882490595430     1.007825032230
         H            3.620209816578     0.040764101975    -0.001059595430     1.007825032230
         H            2.480138816578     1.078547101975     0.880327404570     1.007825032230
         H           -2.902402883422    -0.900623598025     0.098956404570     1.007825032230
         H           -2.253997183422     1.832846101975    -0.001045595430     1.007825032230

  Basis Set: AUG-CC-PVTZ
    Blend: AUG-CC-PVTZ
  Basis Set: (AUG-CC-PVTZ AUX)
    Blend: AUG-CC-PVTZ-JKFIT
	 Reference Energy          =    -322.8265454896990150 [Eh]
	 Singles Energy            =      -0.0000000000000000 [Eh]
	 Same-Spin Energy          =      -0.3358003926497755 [Eh]
	 Opposite-Spin Energy      =      -1.0619671810981561 [Eh]
	 Correlation Energy        =      -1.3977675737479316 [Eh]
	 Total Energy              =    -324.2243130634469708 [Eh]

	 ================> DF-SCS-MP2 Energies <==================
	-----------------------------------------------------------
	 SCS Same-Spin Scale       =       0.3333333333333333 [-]
	 SCS Opposite-Spin Scale   =       1.2000000000000000 [-]
	 SCS Same-Spin Energy      =      -0.1119334642165918 [Eh]
	 SCS Opposite-Spin Energy  =      -1.2743606173177873 [Eh]
	 SCS Correlation Energy    =      -1.3862940815343792 [Eh]
	 SCS Total Energy          =    -324.2128395712334168 [Eh]
	-----------------------------------------------------------

  Dipole Moment: [D]
     X:    -0.3595      Y:    -1.1775      Z:     0.0880     Total:     1.2343

*** Psi4 exiting successfully. Buy a developer a beer!
