                               Psi4 1.3.2 release

  ==> Input File <==

--------------------------------------------------------------------------
#psi4
#
memory 32 gb

molecule  {
0 1
  O       -0.8874150    -1.1053680    -0.0000120
  N       -0.2975850     1.0586860     0.0000180
  C        1.5208660    -0.6926320     0.0000250
  C        0.1219560    -0.1795350     0.0000030
  C        2.5397680     0.4426120    -0.0000230
  C       -2.0377090    -0.3588510    -0.0000130
  C       -1.6838560     0.9546860     0.0000050
  H        1.6599850    -1.3368650     0.8764330
  H        1.6599860    -1.3369460    -0.8763220
  H        2.4145620     1.0741370    -0.8814520
  H        3.5546530     0.0364140    -0.0000210
  H        2.4145820     1.0741970     0.8813660
  H       -2.9679596    -0.9049741     0.1499950
  H       -2.3195540     1.8284960    -0.0000070
units angstrom
no_reorient  #important for SAPT in psi4, default
symmetry c1  #important for SAPT in psi4, default
}

set PROPERTIES_ORIGIN ["COM"]
properties('MP2/aug-cc-pvtz', properties = ['dipole'])
--------------------------------------------------------------------------

    Molecular point group: c1
  Charge       = 0
  Multiplicity = 1
  Basis Set: AUG-CC-PVTZ
    Blend: AUG-CC-PVTZ
  Basis Set: (AUG-CC-PVTZ AUX)
    Blend: AUG-CC-PVTZ-JKFIT

    Orbital Energies [Eh]
    ---------------------

    Doubly Occupied:

       1A    -20.634203     2A    -15.560898     3A    -11.338094
       4A    -11.291432     5A    -11.261045     6A    -11.248895
       7A    -11.220947     8A     -1.476602     9A     -1.226527
      10A     -1.082780    11A     -0.996888    12A     -0.884255
      13A     -0.826903    14A     -0.780436    15A     -0.716226
      16A     -0.667556    17A     -0.628862    18A     -0.608920
      19A     -0.585278    20A     -0.571627    21A     -0.526731
      22A     -0.514805    23A     -0.505044    24A     -0.457095
      25A     -0.449565    26A     -0.332108

  @DF-RHF Final Energy:  -322.82587796014820

   => Energetics <=

    Nuclear Repulsion Energy =            292.3045512878406953
    One-Electron Energy =               -1017.4734115716231599
    Two-Electron Energy =                 402.3429823236342600
    Total Energy =                       -322.8258779601482047
  Basis Set: (AUG-CC-PVTZ AUX)
    Blend: AUG-CC-PVTZ-RI
    Molecular point group: c1

    Geometry (in Angstrom), charge = 0, multiplicity = 1:

       Center              X                  Y                   Z               Mass
    ------------   -----------------  -----------------  -----------------  -----------------
         O           -0.821858184461    -1.101017893871    -0.001569810438    15.994914619570
         N           -0.232028184461     1.063036106129    -0.001539810438    14.003074004430
         C            1.586422815539    -0.688281893871    -0.001532810438    12.000000000000
         C            0.187512815539    -0.175184893871    -0.001554810438    12.000000000000
         C            2.605324815539     0.446962106129    -0.001580810438    12.000000000000
         C           -1.972152184461    -0.354500893871    -0.001570810438    12.000000000000
         C           -1.618299184461     0.959036106129    -0.001552810438    12.000000000000
         H            1.725541815539    -1.332514893871     0.874875189562     1.007825032230
         H            1.725542815539    -1.332595893871    -0.877879810438     1.007825032230
         H            2.480118815539     1.078487106129    -0.883009810438     1.007825032230
         H            3.620209815539     0.040764106129    -0.001578810438     1.007825032230
         H            2.480138815539     1.078547106129     0.879808189562     1.007825032230
         H           -2.902402784461    -0.900623993871     0.148437189562     1.007825032230
         H           -2.253997184461     1.832846106129    -0.001564810438     1.007825032230

  Basis Set: AUG-CC-PVTZ
    Blend: AUG-CC-PVTZ
  Basis Set: (AUG-CC-PVTZ AUX)
    Blend: AUG-CC-PVTZ-JKFIT
	 Reference Energy          =    -322.8258779601482047 [Eh]
	 Singles Energy            =      -0.0000000000000000 [Eh]
	 Same-Spin Energy          =      -0.3358385020874978 [Eh]
	 Opposite-Spin Energy      =      -1.0620531475214077 [Eh]
	 Correlation Energy        =      -1.3978916496089056 [Eh]
	 Total Energy              =    -324.2237696097570847 [Eh]

	 ================> DF-SCS-MP2 Energies <==================
	-----------------------------------------------------------
	 SCS Same-Spin Scale       =       0.3333333333333333 [-]
	 SCS Opposite-Spin Scale   =       1.2000000000000000 [-]
	 SCS Same-Spin Energy      =      -0.1119461673624993 [Eh]
	 SCS Opposite-Spin Energy  =      -1.2744637770256892 [Eh]
	 SCS Correlation Energy    =      -1.3864099443881885 [Eh]
	 SCS Total Energy          =    -324.2122879045363675 [Eh]
	-----------------------------------------------------------

  Dipole Moment: [D]
     X:    -0.3497      Y:    -1.1714      Z:     0.1316     Total:     1.2295

*** Psi4 exiting successfully. Buy a developer a beer!
