                               Psi4 1.3.2 release

  ==> Input File <==

--------------------------------------------------------------------------
#psi4
#
memory 32 gb

molecule  {
0 1
  O       -0.8874150    -1.1053680    -0.0000120
  N       -0.2975850     1.0586860     0.0000180
  C        1.5208660    -0.6926320     0.0000250
  C        0.1219560    -0.1795350     0.0000030
  C        2.5397680     0.4426120    -0.0000230
  C       -2.0377090    -0.3588510    -0.0000130
  C       -1.6838560     0.9546860     0.0000050
  H        1.6599850    -1.3368650     0.8764330
  H        1.6599860    -1.3369460    -0.8763220
  H        2.4145620     1.0741370    -0.8814520
  H        3.5546530     0.0364140    -0.0000210
  H        2.4145820     1.0741970     0.8813660
  H       -2.9679592    -0.9049752     0.2999950
  H       -2.3195540     1.8284960    -0.0000070
units angstrom
no_reorient  #important for SAPT in psi4, default
symmetry c1  #important for SAPT in psi4, default
}

set PROPERTIES_ORIGIN ["COM"]
properties('MP2/aug-cc-pvtz', properties = ['dipole'])
--------------------------------------------------------------------------

    Molecular point group: c1
  Charge       = 0
  Multiplicity = 1
  Basis Set: AUG-CC-PVTZ
    Blend: AUG-CC-PVTZ
  Basis Set: (AUG-CC-PVTZ AUX)
    Blend: AUG-CC-PVTZ-JKFIT

    Orbital Energies [Eh]
    ---------------------

    Doubly Occupied:

       1A    -20.634001     2A    -15.561434     3A    -11.338949
       4A    -11.293219     5A    -11.262156     6A    -11.249270
       7A    -11.221253     8A     -1.476658     9A     -1.227118
      10A     -1.083015    11A     -0.996268    12A     -0.884539
      13A     -0.824735    14A     -0.780732    15A     -0.713749
      16A     -0.668419    17A     -0.624348    18A     -0.607808
      19A     -0.585811    20A     -0.569991    21A     -0.526570
      22A     -0.515185    23A     -0.505279    24A     -0.457348
      25A     -0.449957    26A     -0.332316

  @DF-RHF Final Energy:  -322.82176025466958

   => Energetics <=

    Nuclear Repulsion Energy =            292.1906695296844418
    One-Electron Energy =               -1017.2446049230940162
    Two-Electron Energy =                 402.2321751387399900
    Total Energy =                       -322.8217602546695844
  Basis Set: (AUG-CC-PVTZ AUX)
    Blend: AUG-CC-PVTZ-RI
    Molecular point group: c1

    Geometry (in Angstrom), charge = 0, multiplicity = 1:

       Center              X                  Y                   Z               Mass
    ------------   -----------------  -----------------  -----------------  -----------------
         O           -0.821858188615    -1.101017882448    -0.003127455464    15.994914619570
         N           -0.232028188615     1.063036117552    -0.003097455464    14.003074004430
         C            1.586422811385    -0.688281882448    -0.003090455464    12.000000000000
         C            0.187512811385    -0.175184882448    -0.003112455464    12.000000000000
         C            2.605324811385     0.446962117552    -0.003138455464    12.000000000000
         C           -1.972152188615    -0.354500882448    -0.003128455464    12.000000000000
         C           -1.618299188615     0.959036117552    -0.003110455464    12.000000000000
         H            1.725541811385    -1.332514882448     0.873317544536     1.007825032230
         H            1.725542811385    -1.332595882448    -0.879437455464     1.007825032230
         H            2.480118811385     1.078487117552    -0.884567455464     1.007825032230
         H            3.620209811385     0.040764117552    -0.003136455464     1.007825032230
         H            2.480138811385     1.078547117552     0.878250544536     1.007825032230
         H           -2.902402388615    -0.900625082448     0.296879544536     1.007825032230
         H           -2.253997188615     1.832846117552    -0.003122455464     1.007825032230

  Basis Set: AUG-CC-PVTZ
    Blend: AUG-CC-PVTZ
  Basis Set: (AUG-CC-PVTZ AUX)
    Blend: AUG-CC-PVTZ-JKFIT
	 Reference Energy          =    -322.8217602546695844 [Eh]
	 Singles Energy            =      -0.0000000000000000 [Eh]
	 Same-Spin Energy          =      -0.3360403414292452 [Eh]
	 Opposite-Spin Energy      =      -1.0625555437161385 [Eh]
	 Correlation Energy        =      -1.3985958851453837 [Eh]
	 Total Energy              =    -324.2203561398149532 [Eh]

	 ================> DF-SCS-MP2 Energies <==================
	-----------------------------------------------------------
	 SCS Same-Spin Scale       =       0.3333333333333333 [-]
	 SCS Opposite-Spin Scale   =       1.2000000000000000 [-]
	 SCS Same-Spin Energy      =      -0.1120134471430817 [Eh]
	 SCS Opposite-Spin Energy  =      -1.2750666524593661 [Eh]
	 SCS Correlation Energy    =      -1.3870800996024479 [Eh]
	 SCS Total Energy          =    -324.2088403542720130 [Eh]
	-----------------------------------------------------------

  Dipole Moment: [D]
     X:    -0.2983      Y:    -1.1396      Z:     0.2587     Total:     1.2061

*** Psi4 exiting successfully. Buy a developer a beer!
