                               Psi4 1.3.2 release

  ==> Input File <==

--------------------------------------------------------------------------
#psi4
#
memory 32 gb

molecule  {
0 1
  O       -0.8874150    -1.1053680    -0.0000120
  N       -0.2975850     1.0586860     0.0000180
  C        1.5208674    -0.6926310    -0.0999750
  C        0.1219560    -0.1795350     0.0000030
  C        2.5397680     0.4426120    -0.0000230
  C       -2.0377090    -0.3588510    -0.0000130
  C       -1.6838560     0.9546860     0.0000050
  H        1.6599850    -1.3368650     0.8764330
  H        1.6599860    -1.3369460    -0.8763220
  H        2.4145620     1.0741370    -0.8814520
  H        3.5546530     0.0364140    -0.0000210
  H        2.4145820     1.0741970     0.8813660
  H       -2.9679600    -0.9049730    -0.0000050
  H       -2.3195540     1.8284960    -0.0000070
units angstrom
no_reorient  #important for SAPT in psi4, default
symmetry c1  #important for SAPT in psi4, default
}

set PROPERTIES_ORIGIN ["COM"]
properties('MP2/aug-cc-pvtz', properties = ['dipole'])
--------------------------------------------------------------------------

    Molecular point group: c1
  Charge       = 0
  Multiplicity = 1
  Basis Set: AUG-CC-PVTZ
    Blend: AUG-CC-PVTZ
  Basis Set: (AUG-CC-PVTZ AUX)
    Blend: AUG-CC-PVTZ-JKFIT

    Orbital Energies [Eh]
    ---------------------

    Doubly Occupied:

       1A    -20.634258     2A    -15.560833     3A    -11.338569
       4A    -11.290912     5A    -11.260789     6A    -11.250074
       7A    -11.221704     8A     -1.476620     9A     -1.226448
      10A     -1.082632    11A     -0.997305    12A     -0.885085
      13A     -0.827825    14A     -0.781753    15A     -0.720102
      16A     -0.666092    17A     -0.632992    18A     -0.608061
      19A     -0.584081    20A     -0.572120    21A     -0.535402
      22A     -0.520030    23A     -0.488442    24A     -0.457143
      25A     -0.449123    26A     -0.331659

  @DF-RHF Final Energy:  -322.81636503846181

   => Energetics <=

    Nuclear Repulsion Energy =            292.2875367466231751
    One-Electron Energy =               -1017.4076933253682000
    Two-Electron Energy =                 402.3037915402832709
    Total Energy =                       -322.8163650384618109
  Basis Set: (AUG-CC-PVTZ AUX)
    Blend: AUG-CC-PVTZ-RI
    Molecular point group: c1

    Geometry (in Angstrom), charge = 0, multiplicity = 1:

       Center              X                  Y                   Z               Mass
    ------------   -----------------  -----------------  -----------------  -----------------
         O           -0.821858353409    -1.101018028938     0.012352242899    15.994914619570
         N           -0.232028353409     1.063035971062     0.012382242899    14.003074004430
         C            1.586424046591    -0.688281028938    -0.087610757101    12.000000000000
         C            0.187512646591    -0.175185028938     0.012367242899    12.000000000000
         C            2.605324646591     0.446961971062     0.012341242899    12.000000000000
         C           -1.972152353409    -0.354501028938     0.012351242899    12.000000000000
         C           -1.618299353409     0.959035971062     0.012369242899    12.000000000000
         H            1.725541646591    -1.332515028938     0.888797242899     1.007825032230
         H            1.725542646591    -1.332596028938    -0.863957757101     1.007825032230
         H            2.480118646591     1.078486971062    -0.869087757101     1.007825032230
         H            3.620209646591     0.040763971062     0.012343242899     1.007825032230
         H            2.480138646591     1.078546971062     0.893730242899     1.007825032230
         H           -2.902403353409    -0.900623028938     0.012359242899     1.007825032230
         H           -2.253997353409     1.832845971062     0.012357242899     1.007825032230

  Basis Set: AUG-CC-PVTZ
    Blend: AUG-CC-PVTZ
  Basis Set: (AUG-CC-PVTZ AUX)
    Blend: AUG-CC-PVTZ-JKFIT
	 Reference Energy          =    -322.8163650384618109 [Eh]
	 Singles Energy            =      -0.0000000000000000 [Eh]
	 Same-Spin Energy          =      -0.3359034662068914 [Eh]
	 Opposite-Spin Energy      =      -1.0623951771841760 [Eh]
	 Correlation Energy        =      -1.3982986433910674 [Eh]
	 Total Energy              =    -324.2146636818528691 [Eh]

	 ================> DF-SCS-MP2 Energies <==================
	-----------------------------------------------------------
	 SCS Same-Spin Scale       =       0.3333333333333333 [-]
	 SCS Opposite-Spin Scale   =       1.2000000000000000 [-]
	 SCS Same-Spin Energy      =      -0.1119678220689638 [Eh]
	 SCS Opposite-Spin Energy  =      -1.2748742126210111 [Eh]
	 SCS Correlation Energy    =      -1.3868420346899748 [Eh]
	 SCS Total Energy          =    -324.2032070731517592 [Eh]
	-----------------------------------------------------------

  Dipole Moment: [D]
     X:    -0.3703      Y:    -1.1650      Z:    -0.0679     Total:     1.2244

*** Psi4 exiting successfully. Buy a developer a beer!
