                               Psi4 1.3.2 release

  ==> Input File <==

--------------------------------------------------------------------------
#psi4
#
memory 32 gb

molecule  {
0 1
  O       -0.8874150    -1.1053680    -0.0000120
  N       -0.2975850     1.0586860     0.0000180
  C        1.5208680    -0.6926305    -0.1499750
  C        0.1219560    -0.1795350     0.0000030
  C        2.5397680     0.4426120    -0.0000230
  C       -2.0377090    -0.3588510    -0.0000130
  C       -1.6838560     0.9546860     0.0000050
  H        1.6599850    -1.3368650     0.8764330
  H        1.6599860    -1.3369460    -0.8763220
  H        2.4145620     1.0741370    -0.8814520
  H        3.5546530     0.0364140    -0.0000210
  H        2.4145820     1.0741970     0.8813660
  H       -2.9679600    -0.9049730    -0.0000050
  H       -2.3195540     1.8284960    -0.0000070
units angstrom
no_reorient  #important for SAPT in psi4, default
symmetry c1  #important for SAPT in psi4, default
}

set PROPERTIES_ORIGIN ["COM"]
properties('MP2/aug-cc-pvtz', properties = ['dipole'])
--------------------------------------------------------------------------

    Molecular point group: c1
  Charge       = 0
  Multiplicity = 1
  Basis Set: AUG-CC-PVTZ
    Blend: AUG-CC-PVTZ
  Basis Set: (AUG-CC-PVTZ AUX)
    Blend: AUG-CC-PVTZ-JKFIT

    Orbital Energies [Eh]
    ---------------------

    Doubly Occupied:

       1A    -20.634222     2A    -15.560976     3A    -11.339518
       4A    -11.291020     5A    -11.260943     6A    -11.251707
       7A    -11.222768     8A     -1.476657     9A     -1.226596
      10A     -1.082550    11A     -0.997536    12A     -0.886301
      13A     -0.827949    14A     -0.783561    15A     -0.723311
      16A     -0.664886    17A     -0.635426    18A     -0.607025
      19A     -0.582979    20A     -0.572144    21A     -0.543310
      22A     -0.519739    23A     -0.477897    24A     -0.457294
      25A     -0.448573    26A     -0.331167

  @DF-RHF Final Energy:  -322.80291103436787

   => Energetics <=

    Nuclear Repulsion Energy =            292.2170050319341499
    One-Electron Energy =               -1017.2277207812696815
    Two-Electron Energy =                 402.2078047149676649
    Total Energy =                       -322.8029110343678667
  Basis Set: (AUG-CC-PVTZ AUX)
    Blend: AUG-CC-PVTZ-RI
    Molecular point group: c1

    Geometry (in Angstrom), charge = 0, multiplicity = 1:

       Center              X                  Y                   Z               Mass
    ------------   -----------------  -----------------  -----------------  -----------------
         O           -0.821858427595    -1.101018090760     0.018534447055    15.994914619570
         N           -0.232028427595     1.063035909240     0.018564447055    14.003074004430
         C            1.586424572405    -0.688280590760    -0.131428552945    12.000000000000
         C            0.187512572405    -0.175185090760     0.018549447055    12.000000000000
         C            2.605324572405     0.446961909240     0.018523447055    12.000000000000
         C           -1.972152427595    -0.354501090760     0.018533447055    12.000000000000
         C           -1.618299427595     0.959035909240     0.018551447055    12.000000000000
         H            1.725541572405    -1.332515090760     0.894979447055     1.007825032230
         H            1.725542572405    -1.332596090760    -0.857775552945     1.007825032230
         H            2.480118572405     1.078486909240    -0.862905552945     1.007825032230
         H            3.620209572405     0.040763909240     0.018525447055     1.007825032230
         H            2.480138572405     1.078546909240     0.899912447055     1.007825032230
         H           -2.902403427595    -0.900623090760     0.018541447055     1.007825032230
         H           -2.253997427595     1.832845909240     0.018539447055     1.007825032230

  Basis Set: AUG-CC-PVTZ
    Blend: AUG-CC-PVTZ
  Basis Set: (AUG-CC-PVTZ AUX)
    Blend: AUG-CC-PVTZ-JKFIT
	 Reference Energy          =    -322.8029110343678667 [Eh]
	 Singles Energy            =      -0.0000000000000000 [Eh]
	 Same-Spin Energy          =      -0.3360722740949522 [Eh]
	 Opposite-Spin Energy      =      -1.0630259681642311 [Eh]
	 Correlation Energy        =      -1.3990982422591833 [Eh]
	 Total Energy              =    -324.2020092766270523 [Eh]

	 ================> DF-SCS-MP2 Energies <==================
	-----------------------------------------------------------
	 SCS Same-Spin Scale       =       0.3333333333333333 [-]
	 SCS Opposite-Spin Scale   =       1.2000000000000000 [-]
	 SCS Same-Spin Energy      =      -0.1120240913649841 [Eh]
	 SCS Opposite-Spin Energy  =      -1.2756311617970773 [Eh]
	 SCS Correlation Energy    =      -1.3876552531620614 [Eh]
	 SCS Total Energy          =    -324.1905662875299186 [Eh]
	-----------------------------------------------------------

  Dipole Moment: [D]
     X:    -0.3738      Y:    -1.1439      Z:    -0.1010     Total:     1.2076

*** Psi4 exiting successfully. Buy a developer a beer!
