                               Psi4 1.3.2 release

  ==> Input File <==

--------------------------------------------------------------------------
#psi4
#
memory 32 gb

molecule  {
0 1
  O       -0.8874150    -1.1053680    -0.0000120
  N       -0.2975850     1.0586860     0.0000180
  C        1.5208660    -0.6926320     0.0000250
  C        0.1219560    -0.1795350     0.0000030
  C        2.5397680     0.4426120    -0.0000230
  C       -2.0377090    -0.3588510    -0.0000130
  C       -1.6838560     0.9546860     0.0000050
  H        1.6599850    -1.3368650     0.8764330
  H        1.6599860    -1.3369460    -0.8763220
  H        2.4145620     1.0741370    -0.8814520
  H        3.5546530     0.0364140    -0.0000210
  H        2.4145820     1.0741970     0.8813660
  H       -2.9679600    -0.9049730    -0.0000050
  H       -2.3195533     1.8284962    -0.0500070
units angstrom
no_reorient  #important for SAPT in psi4, default
symmetry c1  #important for SAPT in psi4, default
}

set PROPERTIES_ORIGIN ["COM"]
properties('MP2/aug-cc-pvtz', properties = ['dipole'])
--------------------------------------------------------------------------

    Molecular point group: c1
  Charge       = 0
  Multiplicity = 1
  Basis Set: AUG-CC-PVTZ
    Blend: AUG-CC-PVTZ
  Basis Set: (AUG-CC-PVTZ AUX)
    Blend: AUG-CC-PVTZ-JKFIT

    Orbital Energies [Eh]
    ---------------------

    Doubly Occupied:

       1A    -20.634309     2A    -15.560719     3A    -11.337810
       4A    -11.290869     5A    -11.260755     6A    -11.248774
       7A    -11.220847     8A     -1.476614     9A     -1.226332
      10A     -1.082708    11A     -0.997120    12A     -0.884152
      13A     -0.827651    14A     -0.780331    15A     -0.717079
      16A     -0.667233    17A     -0.630559    18A     -0.609224
      19A     -0.584950    20A     -0.572042    21A     -0.526772
      22A     -0.514675    23A     -0.504966    24A     -0.457039
      25A     -0.449374    26A     -0.332049

  @DF-RHF Final Energy:  -322.82690853459519

   => Energetics <=

    Nuclear Repulsion Energy =            292.3398094351076111
    One-Electron Energy =               -1017.5435291070201629
    Two-Electron Energy =                 402.3768111373173042
    Total Energy =                       -322.8269085345951908
  Basis Set: (AUG-CC-PVTZ AUX)
    Blend: AUG-CC-PVTZ-RI
    Molecular point group: c1

    Geometry (in Angstrom), charge = 0, multiplicity = 1:

       Center              X                  Y                   Z               Mass
    ------------   -----------------  -----------------  -----------------  -----------------
         O           -0.821858187576    -1.101017907371     0.000507049596    15.994914619570
         N           -0.232028187576     1.063036092629     0.000537049596    14.003074004430
         C            1.586422812424    -0.688281907371     0.000544049596    12.000000000000
         C            0.187512812424    -0.175184907371     0.000522049596    12.000000000000
         C            2.605324812424     0.446962092629     0.000496049596    12.000000000000
         C           -1.972152187576    -0.354500907371     0.000506049596    12.000000000000
         C           -1.618299187576     0.959036092629     0.000524049596    12.000000000000
         H            1.725541812424    -1.332514907371     0.876952049596     1.007825032230
         H            1.725542812424    -1.332595907371    -0.875802950404     1.007825032230
         H            2.480118812424     1.078487092629    -0.880932950404     1.007825032230
         H            3.620209812424     0.040764092629     0.000498049596     1.007825032230
         H            2.480138812424     1.078547092629     0.881885049596     1.007825032230
         H           -2.902403187576    -0.900622907371     0.000514049596     1.007825032230
         H           -2.253996487576     1.832846292629    -0.049487950404     1.007825032230

  Basis Set: AUG-CC-PVTZ
    Blend: AUG-CC-PVTZ
  Basis Set: (AUG-CC-PVTZ AUX)
    Blend: AUG-CC-PVTZ-JKFIT
	 Reference Energy          =    -322.8269085345951908 [Eh]
	 Singles Energy            =      -0.0000000000000000 [Eh]
	 Same-Spin Energy          =      -0.3357779277417559 [Eh]
	 Opposite-Spin Energy      =      -1.0619190527130029 [Eh]
	 Correlation Energy        =      -1.3976969804547588 [Eh]
	 Total Energy              =    -324.2246055150499728 [Eh]

	 ================> DF-SCS-MP2 Energies <==================
	-----------------------------------------------------------
	 SCS Same-Spin Scale       =       0.3333333333333333 [-]
	 SCS Opposite-Spin Scale   =       1.2000000000000000 [-]
	 SCS Same-Spin Energy      =      -0.1119259759139186 [Eh]
	 SCS Opposite-Spin Energy  =      -1.2743028632556035 [Eh]
	 SCS Correlation Energy    =      -1.3862288391695221 [Eh]
	 SCS Total Energy          =    -324.2131373737647095 [Eh]
	-----------------------------------------------------------

  Dipole Moment: [D]
     X:    -0.3661      Y:    -1.1842      Z:    -0.0384     Total:     1.2401

*** Psi4 exiting successfully. Buy a developer a beer!
