                               Psi4 1.3.2 release

  ==> Input File <==

--------------------------------------------------------------------------
#psi4
#
memory 32 gb

molecule  {
0 1
  O       -0.8874150    -1.1053680    -0.0000120
  N       -0.2975850     1.0586860     0.0000180
  C        1.5208660    -0.6926320     0.0000250
  C        0.1219560    -0.1795350     0.0000030
  C        2.5397680     0.4426120    -0.0000230
  C       -2.0377090    -0.3588510    -0.0000130
  C       -1.6838560     0.9546860     0.0000050
  H        1.6599850    -1.3368650     0.8764330
  H        1.6599860    -1.3369460    -0.8763220
  H        2.4145620     1.0741370    -0.8814520
  H        3.5546530     0.0364140    -0.0000210
  H        2.4145820     1.0741970     0.8813660
  H       -2.9679600    -0.9049730    -0.0000050
  H       -2.3195526     1.8284965    -0.1000070
units angstrom
no_reorient  #important for SAPT in psi4, default
symmetry c1  #important for SAPT in psi4, default
}

set PROPERTIES_ORIGIN ["COM"]
properties('MP2/aug-cc-pvtz', properties = ['dipole'])
--------------------------------------------------------------------------

    Molecular point group: c1
  Charge       = 0
  Multiplicity = 1
  Basis Set: AUG-CC-PVTZ
    Blend: AUG-CC-PVTZ
  Basis Set: (AUG-CC-PVTZ AUX)
    Blend: AUG-CC-PVTZ-JKFIT

    Orbital Energies [Eh]
    ---------------------

    Doubly Occupied:

       1A    -20.634380     2A    -15.560728     3A    -11.337839
       4A    -11.291005     5A    -11.261029     6A    -11.248793
       7A    -11.220859     8A     -1.476684     9A     -1.226348
      10A     -1.082718    11A     -0.997106    12A     -0.884120
      13A     -0.827430    14A     -0.780311    15A     -0.716848
      16A     -0.667308    17A     -0.630455    18A     -0.609277
      19A     -0.584525    20A     -0.571857    21A     -0.526794
      22A     -0.514673    23A     -0.504979    24A     -0.457135
      25A     -0.449200    26A     -0.332068

  @DF-RHF Final Energy:  -322.82646090500168

   => Energetics <=

    Nuclear Repulsion Energy =            292.3267679683725078
    One-Electron Energy =               -1017.5175150853413015
    Two-Electron Energy =                 402.3642862119671690
    Total Energy =                       -322.8264609050016816
  Basis Set: (AUG-CC-PVTZ AUX)
    Blend: AUG-CC-PVTZ-RI
    Molecular point group: c1

    Geometry (in Angstrom), charge = 0, multiplicity = 1:

       Center              X                  Y                   Z               Mass
    ------------   -----------------  -----------------  -----------------  -----------------
         O           -0.821858194845    -1.101017910486     0.001026264604    15.994914619570
         N           -0.232028194845     1.063036089514     0.001056264604    14.003074004430
         C            1.586422805155    -0.688281910486     0.001063264604    12.000000000000
         C            0.187512805155    -0.175184910486     0.001041264604    12.000000000000
         C            2.605324805155     0.446962089514     0.001015264604    12.000000000000
         C           -1.972152194845    -0.354500910486     0.001025264604    12.000000000000
         C           -1.618299194845     0.959036089514     0.001043264604    12.000000000000
         H            1.725541805155    -1.332514910486     0.877471264604     1.007825032230
         H            1.725542805155    -1.332595910486    -0.875283735396     1.007825032230
         H            2.480118805155     1.078487089514    -0.880413735396     1.007825032230
         H            3.620209805155     0.040764089514     0.001017264604     1.007825032230
         H            2.480138805155     1.078547089514     0.882404264604     1.007825032230
         H           -2.902403194845    -0.900622910486     0.001033264604     1.007825032230
         H           -2.253995794845     1.832846589514    -0.098968735396     1.007825032230

  Basis Set: AUG-CC-PVTZ
    Blend: AUG-CC-PVTZ
  Basis Set: (AUG-CC-PVTZ AUX)
    Blend: AUG-CC-PVTZ-JKFIT
	 Reference Energy          =    -322.8264609050016816 [Eh]
	 Singles Energy            =      -0.0000000000000000 [Eh]
	 Same-Spin Energy          =      -0.3358021717601554 [Eh]
	 Opposite-Spin Energy      =      -1.0619738452712402 [Eh]
	 Correlation Energy        =      -1.3977760170313955 [Eh]
	 Total Energy              =    -324.2242369220330716 [Eh]

	 ================> DF-SCS-MP2 Energies <==================
	-----------------------------------------------------------
	 SCS Same-Spin Scale       =       0.3333333333333333 [-]
	 SCS Opposite-Spin Scale   =       1.2000000000000000 [-]
	 SCS Same-Spin Energy      =      -0.1119340572533851 [Eh]
	 SCS Opposite-Spin Energy  =      -1.2743686143254882 [Eh]
	 SCS Correlation Energy    =      -1.3863026715788733 [Eh]
	 SCS Total Energy          =    -324.2127635765805280 [Eh]
	-----------------------------------------------------------

  Dipole Moment: [D]
     X:    -0.3624      Y:    -1.1892      Z:    -0.0767     Total:     1.2456

*** Psi4 exiting successfully. Buy a developer a beer!
