                               Psi4 1.3.2 release

  ==> Input File <==

--------------------------------------------------------------------------
#psi4
#
memory 32 gb

molecule  {
0 1
  O       -0.8874150    -1.1053680    -0.0000120
  N       -0.2975850     1.0586860     0.0000180
  C        1.5208667    -0.6926315    -0.0499750
  C        0.1219560    -0.1795350     0.0000030
  C        2.5397680     0.4426120    -0.0000230
  C       -2.0377090    -0.3588510    -0.0000130
  C       -1.6838560     0.9546860     0.0000050
  H        1.6599850    -1.3368650     0.8764330
  H        1.6599860    -1.3369460    -0.8763220
  H        2.4145620     1.0741370    -0.8814520
  H        3.5546530     0.0364140    -0.0000210
  H        2.4145820     1.0741970     0.8813660
  H       -2.9679600    -0.9049730    -0.0000050
  H       -2.3195540     1.8284960    -0.0000070
units angstrom
no_reorient  #important for SAPT in psi4, default
symmetry c1  #important for SAPT in psi4, default
}

set PROPERTIES_ORIGIN ["COM"]
properties('MP2/aug-cc-pvtz', properties = ['dipole'])
--------------------------------------------------------------------------

    Molecular point group: c1
  Charge       = 0
  Multiplicity = 1
  Basis Set: AUG-CC-PVTZ
    Blend: AUG-CC-PVTZ
  Basis Set: (AUG-CC-PVTZ AUX)
    Blend: AUG-CC-PVTZ-JKFIT

    Orbital Energies [Eh]
    ---------------------

    Doubly Occupied:

       1A    -20.634279     2A    -15.560746     3A    -11.337994
       4A    -11.290846     5A    -11.260696     6A    -11.249094
       7A    -11.221059     8A     -1.476598     9A     -1.226357
      10A     -1.082686    11A     -0.997170    12A     -0.884389
      13A     -0.827751    14A     -0.780688    15A     -0.717927
      16A     -0.666914    17A     -0.631243    18A     -0.608882
      19A     -0.584830    20A     -0.572105    21A     -0.528890
      22A     -0.518235    23A     -0.498632    24A     -0.457041
      25A     -0.449364    26A     -0.331947

  @DF-RHF Final Energy:  -322.82438911937771

   => Energetics <=

    Nuclear Repulsion Energy =            292.3300063730184206
    One-Electron Energy =               -1017.5160651731570169
    Two-Electron Energy =                 402.3616696807609401
    Total Energy =                       -322.8243891193777131
  Basis Set: (AUG-CC-PVTZ AUX)
    Blend: AUG-CC-PVTZ-RI
    Molecular point group: c1

    Geometry (in Angstrom), charge = 0, multiplicity = 1:

       Center              X                  Y                   Z               Mass
    ------------   -----------------  -----------------  -----------------  -----------------
         O           -0.821858266858    -1.101017967116     0.006170038743    15.994914619570
         N           -0.232028266858     1.063036032884     0.006200038743    14.003074004430
         C            1.586423433142    -0.688281467116    -0.043792961257    12.000000000000
         C            0.187512733142    -0.175184967116     0.006185038743    12.000000000000
         C            2.605324733142     0.446962032884     0.006159038743    12.000000000000
         C           -1.972152266858    -0.354500967116     0.006169038743    12.000000000000
         C           -1.618299266858     0.959036032884     0.006187038743    12.000000000000
         H            1.725541733142    -1.332514967116     0.882615038743     1.007825032230
         H            1.725542733142    -1.332595967116    -0.870139961257     1.007825032230
         H            2.480118733142     1.078487032884    -0.875269961257     1.007825032230
         H            3.620209733142     0.040764032884     0.006161038743     1.007825032230
         H            2.480138733142     1.078547032884     0.887548038743     1.007825032230
         H           -2.902403266858    -0.900622967116     0.006177038743     1.007825032230
         H           -2.253997266858     1.832846032884     0.006175038743     1.007825032230

  Basis Set: AUG-CC-PVTZ
    Blend: AUG-CC-PVTZ
  Basis Set: (AUG-CC-PVTZ AUX)
    Blend: AUG-CC-PVTZ-JKFIT
	 Reference Energy          =    -322.8243891193777131 [Eh]
	 Singles Energy            =      -0.0000000000000000 [Eh]
	 Same-Spin Energy          =      -0.3358031127453124 [Eh]
	 Opposite-Spin Energy      =      -1.0620238198268863 [Eh]
	 Correlation Energy        =      -1.3978269325721988 [Eh]
	 Total Energy              =    -324.2222160519498857 [Eh]

	 ================> DF-SCS-MP2 Energies <==================
	-----------------------------------------------------------
	 SCS Same-Spin Scale       =       0.3333333333333333 [-]
	 SCS Opposite-Spin Scale   =       1.2000000000000000 [-]
	 SCS Same-Spin Energy      =      -0.1119343709151041 [Eh]
	 SCS Opposite-Spin Energy  =      -1.2744285837922635 [Eh]
	 SCS Correlation Energy    =      -1.3863629547073677 [Eh]
	 SCS Total Energy          =    -324.2107520740850646 [Eh]
	-----------------------------------------------------------

  Dipole Moment: [D]
     X:    -0.3681      Y:    -1.1781      Z:    -0.0341     Total:     1.2348

*** Psi4 exiting successfully. Buy a developer a beer!
