                               Psi4 1.3.2 release

  ==> Input File <==

--------------------------------------------------------------------------
#psi4
#
memory 32 gb

molecule  {
0 1
  O       -0.8874150    -1.1053680    -0.0000120
  N       -0.2975850     1.0586860     0.0000180
  C        1.5208660    -0.6926320     0.0000250
  C        0.1219560    -0.1795350     0.0000030
  C        2.5397680     0.4426120    -0.0000230
  C       -2.0377090    -0.3588510    -0.0000130
  C       -1.6838560     0.9546860     0.0000050
  H        1.6599850    -1.3368650     0.8764330
  H        1.6599860    -1.3369460    -0.8763220
  H        2.4145620     1.0741370    -0.8814520
  H        3.5546530     0.0364140    -0.0000210
  H        2.4145820     1.0741970     0.8813660
  H       -2.9679600    -0.9049730    -0.0000050
  H       -2.3195505     1.8284971    -0.2500070
units angstrom
no_reorient  #important for SAPT in psi4, default
symmetry c1  #important for SAPT in psi4, default
}

set PROPERTIES_ORIGIN ["COM"]
properties('MP2/aug-cc-pvtz', properties = ['dipole'])
--------------------------------------------------------------------------

    Molecular point group: c1
  Charge       = 0
  Multiplicity = 1
  Basis Set: AUG-CC-PVTZ
    Blend: AUG-CC-PVTZ
  Basis Set: (AUG-CC-PVTZ AUX)
    Blend: AUG-CC-PVTZ-JKFIT

    Orbital Energies [Eh]
    ---------------------

    Doubly Occupied:

       1A    -20.634866     2A    -15.560805     3A    -11.338041
       4A    -11.291937     5A    -11.262904     6A    -11.248931
       7A    -11.220945     8A     -1.477173     9A     -1.226468
      10A     -1.082799    11A     -0.997028    12A     -0.883935
      13A     -0.826020    14A     -0.780187    15A     -0.715339
      16A     -0.667807    17A     -0.629815    18A     -0.609616
      19A     -0.582061    20A     -0.570049    21A     -0.526951
      22A     -0.514656    23A     -0.505068    24A     -0.457720
      25A     -0.448086    26A     -0.332205

  @DF-RHF Final Energy:  -322.82302967221790

   => Energetics <=

    Nuclear Repulsion Energy =            292.2380927248455578
    One-Electron Energy =               -1017.3394228043168823
    Two-Electron Energy =                 402.2783004072534823
    Total Energy =                       -322.8230296722178991
  Basis Set: (AUG-CC-PVTZ AUX)
    Blend: AUG-CC-PVTZ-RI
    Molecular point group: c1

    Geometry (in Angstrom), charge = 0, multiplicity = 1:

       Center              X                  Y                   Z               Mass
    ------------   -----------------  -----------------  -----------------  -----------------
         O           -0.821858216652    -1.101017916716     0.002583909630    15.994914619570
         N           -0.232028216652     1.063036083284     0.002613909630    14.003074004430
         C            1.586422783348    -0.688281916716     0.002620909630    12.000000000000
         C            0.187512783348    -0.175184916716     0.002598909630    12.000000000000
         C            2.605324783348     0.446962083284     0.002572909630    12.000000000000
         C           -1.972152216652    -0.354500916716     0.002582909630    12.000000000000
         C           -1.618299216652     0.959036083284     0.002600909630    12.000000000000
         H            1.725541783348    -1.332514916716     0.879028909630     1.007825032230
         H            1.725542783348    -1.332595916716    -0.873726090370     1.007825032230
         H            2.480118783348     1.078487083284    -0.878856090370     1.007825032230
         H            3.620209783348     0.040764083284     0.002574909630     1.007825032230
         H            2.480138783348     1.078547083284     0.883961909630     1.007825032230
         H           -2.902403216652    -0.900622916716     0.002590909630     1.007825032230
         H           -2.253993716652     1.832847183284    -0.247411090370     1.007825032230

  Basis Set: AUG-CC-PVTZ
    Blend: AUG-CC-PVTZ
  Basis Set: (AUG-CC-PVTZ AUX)
    Blend: AUG-CC-PVTZ-JKFIT
	 Reference Energy          =    -322.8230296722178991 [Eh]
	 Singles Energy            =      -0.0000000000000000 [Eh]
	 Same-Spin Energy          =      -0.3359692820125518 [Eh]
	 Opposite-Spin Energy      =      -1.0624034989806921 [Eh]
	 Correlation Energy        =      -1.3983727809932440 [Eh]
	 Total Energy              =    -324.2214024532111694 [Eh]

	 ================> DF-SCS-MP2 Energies <==================
	-----------------------------------------------------------
	 SCS Same-Spin Scale       =       0.3333333333333333 [-]
	 SCS Opposite-Spin Scale   =       1.2000000000000000 [-]
	 SCS Same-Spin Energy      =      -0.1119897606708506 [Eh]
	 SCS Opposite-Spin Energy  =      -1.2748841987768305 [Eh]
	 SCS Correlation Energy    =      -1.3868739594476811 [Eh]
	 SCS Total Energy          =    -324.2099036316655543 [Eh]
	-----------------------------------------------------------

  Dipole Moment: [D]
     X:    -0.3366      Y:    -1.2233      Z:    -0.1895     Total:     1.2829

*** Psi4 exiting successfully. Buy a developer a beer!
