                               Psi4 1.3.2 release

  ==> Input File <==

--------------------------------------------------------------------------
#psi4
#
memory 32 gb

molecule  {
0 1
  O       -0.8874150    -1.1053680    -0.0000120
  N       -0.2975850     1.0586860     0.0000180
  C        1.5208660    -0.6926320     0.0000250
  C        0.1219560    -0.1795350     0.0000030
  C        2.5397680     0.4426120    -0.0000230
  C       -2.0377090    -0.3588510    -0.0000130
  C       -1.6838560     0.9546860     0.0000050
  H        1.6599850    -1.3368650     0.8764330
  H        1.6599860    -1.3369460    -0.8763220
  H        2.4145620     1.0741370    -0.8814520
  H        3.5546530     0.0364140    -0.0000210
  H        2.4145820     1.0741970     0.8813660
  H       -2.9679600    -0.9049730    -0.0000050
  H       -2.3195512     1.8284969    -0.2000070
units angstrom
no_reorient  #important for SAPT in psi4, default
symmetry c1  #important for SAPT in psi4, default
}

set PROPERTIES_ORIGIN ["COM"]
properties('MP2/aug-cc-pvtz', properties = ['dipole'])
--------------------------------------------------------------------------

    Molecular point group: c1
  Charge       = 0
  Multiplicity = 1
  Basis Set: AUG-CC-PVTZ
    Blend: AUG-CC-PVTZ
  Basis Set: (AUG-CC-PVTZ AUX)
    Blend: AUG-CC-PVTZ-JKFIT

    Orbital Energies [Eh]
    ---------------------

    Doubly Occupied:

       1A    -20.634659     2A    -15.560770     3A    -11.337954
       4A    -11.291541     5A    -11.262108     6A    -11.248871
       7A    -11.220908     8A     -1.476965     9A     -1.226415
      10A     -1.082763    11A     -0.997057    12A     -0.884007
      13A     -0.826596    14A     -0.780237    15A     -0.715963
      16A     -0.667599    17A     -0.630072    18A     -0.609477
      19A     -0.583001    20A     -0.570941    21A     -0.526884
      22A     -0.514665    23A     -0.505029    24A     -0.457486
      25A     -0.448544    26A     -0.332145

  @DF-RHF Final Energy:  -322.82456042315567

   => Energetics <=

    Nuclear Repulsion Energy =            292.2755505885259595
    One-Electron Energy =               -1017.4149069320189938
    Two-Electron Energy =                 402.3147959203374171
    Total Energy =                       -322.8245604231556740
  Basis Set: (AUG-CC-PVTZ AUX)
    Blend: AUG-CC-PVTZ-RI
    Molecular point group: c1

    Geometry (in Angstrom), charge = 0, multiplicity = 1:

       Center              X                  Y                   Z               Mass
    ------------   -----------------  -----------------  -----------------  -----------------
         O           -0.821858209383    -1.101017914640     0.002064694622    15.994914619570
         N           -0.232028209383     1.063036085360     0.002094694622    14.003074004430
         C            1.586422790617    -0.688281914640     0.002101694622    12.000000000000
         C            0.187512790617    -0.175184914640     0.002079694622    12.000000000000
         C            2.605324790617     0.446962085360     0.002053694622    12.000000000000
         C           -1.972152209383    -0.354500914640     0.002063694622    12.000000000000
         C           -1.618299209383     0.959036085360     0.002081694622    12.000000000000
         H            1.725541790617    -1.332514914640     0.878509694622     1.007825032230
         H            1.725542790617    -1.332595914640    -0.874245305378     1.007825032230
         H            2.480118790617     1.078487085360    -0.879375305378     1.007825032230
         H            3.620209790617     0.040764085360     0.002055694622     1.007825032230
         H            2.480138790617     1.078547085360     0.883442694622     1.007825032230
         H           -2.902403209383    -0.900622914640     0.002071694622     1.007825032230
         H           -2.253994409383     1.832846985360    -0.197930305378     1.007825032230

  Basis Set: AUG-CC-PVTZ
    Blend: AUG-CC-PVTZ
  Basis Set: (AUG-CC-PVTZ AUX)
    Blend: AUG-CC-PVTZ-JKFIT
	 Reference Energy          =    -322.8245604231556740 [Eh]
	 Singles Energy            =      -0.0000000000000000 [Eh]
	 Same-Spin Energy          =      -0.3358982721538033 [Eh]
	 Opposite-Spin Energy      =      -1.0622124163414042 [Eh]
	 Correlation Energy        =      -1.3981106884952075 [Eh]
	 Total Energy              =    -324.2226711116508682 [Eh]

	 ================> DF-SCS-MP2 Energies <==================
	-----------------------------------------------------------
	 SCS Same-Spin Scale       =       0.3333333333333333 [-]
	 SCS Opposite-Spin Scale   =       1.2000000000000000 [-]
	 SCS Same-Spin Energy      =      -0.1119660907179344 [Eh]
	 SCS Opposite-Spin Energy  =      -1.2746548996096849 [Eh]
	 SCS Correlation Energy    =      -1.3866209903276194 [Eh]
	 SCS Total Energy          =    -324.2111814134833025 [Eh]
	-----------------------------------------------------------

  Dipole Moment: [D]
     X:    -0.3476      Y:    -1.2089      Z:    -0.1524     Total:     1.2671

*** Psi4 exiting successfully. Buy a developer a beer!
