                               Psi4 1.3.2 release

  ==> Input File <==

--------------------------------------------------------------------------
#psi4
#
memory 32 gb

molecule  {
0 1
  O       -0.8874150    -1.1053680    -0.0000120
  N       -0.2975850     1.0586860     0.0000180
  C        1.5208660    -0.6926320     0.0000250
  C        0.1219560    -0.1795350     0.0000030
  C        2.5397680     0.4426120    -0.0000230
  C       -2.0377090    -0.3588510    -0.0000130
  C       -1.6838560     0.9546860     0.0000050
  H        1.6599850    -1.3368650     0.8764330
  H        1.6599860    -1.3369460    -0.8763220
  H        2.4145620     1.0741370    -0.8814520
  H        3.5546530     0.0364140    -0.0000210
  H        2.4145820     1.0741970     0.8813660
  H       -2.9679600    -0.9049730    -0.0000050
  H       -2.3195498     1.8284974    -0.3000070
units angstrom
no_reorient  #important for SAPT in psi4, default
symmetry c1  #important for SAPT in psi4, default
}

set PROPERTIES_ORIGIN ["COM"]
properties('MP2/aug-cc-pvtz', properties = ['dipole'])
--------------------------------------------------------------------------

    Molecular point group: c1
  Charge       = 0
  Multiplicity = 1
  Basis Set: AUG-CC-PVTZ
    Blend: AUG-CC-PVTZ
  Basis Set: (AUG-CC-PVTZ AUX)
    Blend: AUG-CC-PVTZ-JKFIT

    Orbital Energies [Eh]
    ---------------------

    Doubly Occupied:

       1A    -20.635117     2A    -15.560851     3A    -11.338149
       4A    -11.292414     5A    -11.263861     6A    -11.249003
       7A    -11.220990     8A     -1.477424     9A     -1.226534
      10A     -1.082846    11A     -0.997003    12A     -0.883860
      13A     -0.825369    14A     -0.780130    15A     -0.714621
      16A     -0.668051    17A     -0.629535    18A     -0.609775
      19A     -0.581153    20A     -0.568719    21A     -0.527033
      22A     -0.514640    23A     -0.505115    24A     -0.457980
      25A     -0.447557    26A     -0.332280

  @DF-RHF Final Energy:  -322.82105056832290

   => Energetics <=

    Nuclear Repulsion Energy =            292.1933663747179253
    One-Electron Energy =               -1017.2488107235786856
    Two-Electron Energy =                 402.2343937805378573
    Total Energy =                       -322.8210505683229030
  Basis Set: (AUG-CC-PVTZ AUX)
    Blend: AUG-CC-PVTZ-RI
    Molecular point group: c1

    Geometry (in Angstrom), charge = 0, multiplicity = 1:

       Center              X                  Y                   Z               Mass
    ------------   -----------------  -----------------  -----------------  -----------------
         O           -0.821858223921    -1.101017919832     0.003103124639    15.994914619570
         N           -0.232028223921     1.063036080168     0.003133124639    14.003074004430
         C            1.586422776079    -0.688281919832     0.003140124639    12.000000000000
         C            0.187512776079    -0.175184919832     0.003118124639    12.000000000000
         C            2.605324776079     0.446962080168     0.003092124639    12.000000000000
         C           -1.972152223921    -0.354500919832     0.003102124639    12.000000000000
         C           -1.618299223921     0.959036080168     0.003120124639    12.000000000000
         H            1.725541776079    -1.332514919832     0.879548124639     1.007825032230
         H            1.725542776079    -1.332595919832    -0.873206875361     1.007825032230
         H            2.480118776079     1.078487080168    -0.878336875361     1.007825032230
         H            3.620209776079     0.040764080168     0.003094124639     1.007825032230
         H            2.480138776079     1.078547080168     0.884481124639     1.007825032230
         H           -2.902403223921    -0.900622919832     0.003110124639     1.007825032230
         H           -2.253993023921     1.832847480168    -0.296891875361     1.007825032230

  Basis Set: AUG-CC-PVTZ
    Blend: AUG-CC-PVTZ
  Basis Set: (AUG-CC-PVTZ AUX)
    Blend: AUG-CC-PVTZ-JKFIT
	 Reference Energy          =    -322.8210505683229030 [Eh]
	 Singles Energy            =      -0.0000000000000000 [Eh]
	 Same-Spin Energy          =      -0.3360547362036506 [Eh]
	 Opposite-Spin Energy      =      -1.0626445419078470 [Eh]
	 Correlation Energy        =      -1.3986992781114975 [Eh]
	 Total Energy              =    -324.2197498464344108 [Eh]

	 ================> DF-SCS-MP2 Energies <==================
	-----------------------------------------------------------
	 SCS Same-Spin Scale       =       0.3333333333333333 [-]
	 SCS Opposite-Spin Scale   =       1.2000000000000000 [-]
	 SCS Same-Spin Energy      =      -0.1120182454012169 [Eh]
	 SCS Opposite-Spin Energy  =      -1.2751734502894163 [Eh]
	 SCS Correlation Energy    =      -1.3871916956906332 [Eh]
	 SCS Total Energy          =    -324.2082422640135633 [Eh]
	-----------------------------------------------------------

  Dipole Moment: [D]
     X:    -0.3233      Y:    -1.2406      Z:    -0.2260     Total:     1.3018

*** Psi4 exiting successfully. Buy a developer a beer!
