                               Psi4 1.3.2 release

  ==> Input File <==

--------------------------------------------------------------------------
#psi4
#
memory 32 gb

molecule  {
0 1
  O       -0.8874150    -1.1053680    -0.0000120
  N       -0.2975850     1.0586860     0.0000180
  C        1.5208660    -0.6926320     0.0000250
  C        0.1219560    -0.1795350     0.0000030
  C        2.5397680     0.4426120    -0.0000230
  C       -2.0377090    -0.3588510    -0.0000130
  C       -1.6838560     0.9546860     0.0000050
  H        1.6599850    -1.3368650     0.8764330
  H        1.6599860    -1.3369460    -0.8763220
  H        2.4145620     1.0741370    -0.8814520
  H        3.5546530     0.0364140    -0.0000210
  H        2.4145820     1.0741970     0.8813660
  H       -2.9679600    -0.9049730    -0.0000050
  H       -2.3195519     1.8284967    -0.1500070
units angstrom
no_reorient  #important for SAPT in psi4, default
symmetry c1  #important for SAPT in psi4, default
}

set PROPERTIES_ORIGIN ["COM"]
properties('MP2/aug-cc-pvtz', properties = ['dipole'])
--------------------------------------------------------------------------

    Molecular point group: c1
  Charge       = 0
  Multiplicity = 1
  Basis Set: AUG-CC-PVTZ
    Blend: AUG-CC-PVTZ
  Basis Set: (AUG-CC-PVTZ AUX)
    Blend: AUG-CC-PVTZ-JKFIT

    Orbital Energies [Eh]
    ---------------------

    Doubly Occupied:

       1A    -20.634496     2A    -15.560745     3A    -11.337887
       4A    -11.291229     5A    -11.261481     6A    -11.248826
       7A    -11.220879     8A     -1.476802     9A     -1.226375
      10A     -1.082737    11A     -0.997084    12A     -0.884070
      13A     -0.827073    14A     -0.780279    15A     -0.716472
      16A     -0.667432    17A     -0.630289    18A     -0.609363
      19A     -0.583855    20A     -0.571512    21A     -0.526832
      22A     -0.514671    23A     -0.505000    24A     -0.457288
      25A     -0.448919    26A     -0.332100

  @DF-RHF Final Energy:  -322.82568978198856

   => Energetics <=

    Nuclear Repulsion Energy =            292.3052458151003634
    One-Electron Energy =               -1017.4744836669037795
    Two-Electron Energy =                 402.3435480698149149
    Total Energy =                       -322.8256897819885580
  Basis Set: (AUG-CC-PVTZ AUX)
    Blend: AUG-CC-PVTZ-RI
    Molecular point group: c1

    Geometry (in Angstrom), charge = 0, multiplicity = 1:

       Center              X                  Y                   Z               Mass
    ------------   -----------------  -----------------  -----------------  -----------------
         O           -0.821858202114    -1.101017912563     0.001545479613    15.994914619570
         N           -0.232028202114     1.063036087437     0.001575479613    14.003074004430
         C            1.586422797886    -0.688281912563     0.001582479613    12.000000000000
         C            0.187512797886    -0.175184912563     0.001560479613    12.000000000000
         C            2.605324797886     0.446962087437     0.001534479613    12.000000000000
         C           -1.972152202114    -0.354500912563     0.001544479613    12.000000000000
         C           -1.618299202114     0.959036087437     0.001562479613    12.000000000000
         H            1.725541797886    -1.332514912563     0.877990479613     1.007825032230
         H            1.725542797886    -1.332595912563    -0.874764520387     1.007825032230
         H            2.480118797886     1.078487087437    -0.879894520387     1.007825032230
         H            3.620209797886     0.040764087437     0.001536479613     1.007825032230
         H            2.480138797886     1.078547087437     0.882923479613     1.007825032230
         H           -2.902403202114    -0.900622912563     0.001552479613     1.007825032230
         H           -2.253995102114     1.832846787437    -0.148449520387     1.007825032230

  Basis Set: AUG-CC-PVTZ
    Blend: AUG-CC-PVTZ
  Basis Set: (AUG-CC-PVTZ AUX)
    Blend: AUG-CC-PVTZ-JKFIT
	 Reference Energy          =    -322.8256897819885580 [Eh]
	 Singles Energy            =      -0.0000000000000000 [Eh]
	 Same-Spin Energy          =      -0.3358423965374808 [Eh]
	 Opposite-Spin Energy      =      -1.0620701638069932 [Eh]
	 Correlation Energy        =      -1.3979125603444740 [Eh]
	 Total Energy              =    -324.2236023423330380 [Eh]

	 ================> DF-SCS-MP2 Energies <==================
	-----------------------------------------------------------
	 SCS Same-Spin Scale       =       0.3333333333333333 [-]
	 SCS Opposite-Spin Scale   =       1.2000000000000000 [-]
	 SCS Same-Spin Energy      =      -0.1119474655124936 [Eh]
	 SCS Opposite-Spin Energy  =      -1.2744841965683917 [Eh]
	 SCS Correlation Energy    =      -1.3864316620808854 [Eh]
	 SCS Total Energy          =    -324.2121214440694530 [Eh]
	-----------------------------------------------------------

  Dipole Moment: [D]
     X:    -0.3562      Y:    -1.1975      Z:    -0.1147     Total:     1.2546

*** Psi4 exiting successfully. Buy a developer a beer!
