                               Psi4 1.3.2 release

  ==> Input File <==

--------------------------------------------------------------------------
#psi4
#
memory 32 gb

molecule  {
0 1
  O       -0.8874150    -1.1053680    -0.0000120
  N       -0.2975850     1.0586860     0.0000180
  C        1.5208660    -0.6926320     0.0000250
  C        0.1219560    -0.1795350     0.0000030
  C        2.5397680     0.4426120    -0.0000230
  C       -2.0377090    -0.3588510    -0.0000130
  C       -1.6838560     0.9546860     0.0000050
  H        1.6599850    -1.3368650     0.8764330
  H        1.6599860    -1.3369460    -0.8763220
  H        2.4145620     1.0741370    -0.8814520
  H        3.5546530     0.0364140    -0.0000210
  H        2.4145820     1.0741970     0.8813660
  H       -2.9679595    -0.9049744     0.1999950
  H       -2.3195540     1.8284960    -0.0000070
units angstrom
no_reorient  #important for SAPT in psi4, default
symmetry c1  #important for SAPT in psi4, default
}

set PROPERTIES_ORIGIN ["COM"]
properties('MP2/aug-cc-pvtz', properties = ['dipole'])
--------------------------------------------------------------------------

    Molecular point group: c1
  Charge       = 0
  Multiplicity = 1
  Basis Set: AUG-CC-PVTZ
    Blend: AUG-CC-PVTZ
  Basis Set: (AUG-CC-PVTZ AUX)
    Blend: AUG-CC-PVTZ-JKFIT

    Orbital Energies [Eh]
    ---------------------

    Doubly Occupied:

       1A    -20.634144     2A    -15.561038     3A    -11.338320
       4A    -11.291901     5A    -11.261338     6A    -11.248993
       7A    -11.221028     8A     -1.476613     9A     -1.226682
      10A     -1.082839    11A     -0.996714    12A     -0.884328
      13A     -0.826299    14A     -0.780513    15A     -0.715540
      16A     -0.667804    17A     -0.627591    18A     -0.608670
      19A     -0.585418    20A     -0.571235    21A     -0.526698
      22A     -0.514905    23A     -0.505106    24A     -0.457163
      25A     -0.449667    26A     -0.332161

  @DF-RHF Final Energy:  -322.82488977495370

   => Energetics <=

    Nuclear Repulsion Energy =            292.2743256156543339
    One-Electron Energy =               -1017.4130115314895875
    Two-Electron Energy =                 402.3137961408815499
    Total Energy =                       -322.8248897749537036
  Basis Set: (AUG-CC-PVTZ AUX)
    Blend: AUG-CC-PVTZ-RI
    Molecular point group: c1

    Geometry (in Angstrom), charge = 0, multiplicity = 1:

       Center              X                  Y                   Z               Mass
    ------------   -----------------  -----------------  -----------------  -----------------
         O           -0.821858185499    -1.101017890756    -0.002089025447    15.994914619570
         N           -0.232028185499     1.063036109244    -0.002059025447    14.003074004430
         C            1.586422814501    -0.688281890756    -0.002052025447    12.000000000000
         C            0.187512814501    -0.175184890756    -0.002074025447    12.000000000000
         C            2.605324814501     0.446962109244    -0.002100025447    12.000000000000
         C           -1.972152185499    -0.354500890756    -0.002090025447    12.000000000000
         C           -1.618299185499     0.959036109244    -0.002072025447    12.000000000000
         H            1.725541814501    -1.332514890756     0.874355974553     1.007825032230
         H            1.725542814501    -1.332595890756    -0.878399025447     1.007825032230
         H            2.480118814501     1.078487109244    -0.883529025447     1.007825032230
         H            3.620209814501     0.040764109244    -0.002098025447     1.007825032230
         H            2.480138814501     1.078547109244     0.879288974553     1.007825032230
         H           -2.902402685499    -0.900624290756     0.197917974553     1.007825032230
         H           -2.253997185499     1.832846109244    -0.002084025447     1.007825032230

  Basis Set: AUG-CC-PVTZ
    Blend: AUG-CC-PVTZ
  Basis Set: (AUG-CC-PVTZ AUX)
    Blend: AUG-CC-PVTZ-JKFIT
	 Reference Energy          =    -322.8248897749537036 [Eh]
	 Singles Energy            =      -0.0000000000000000 [Eh]
	 Same-Spin Energy          =      -0.3358915467044176 [Eh]
	 Opposite-Spin Energy      =      -1.0621785246191628 [Eh]
	 Correlation Energy        =      -1.3980700713235805 [Eh]
	 Total Energy              =    -324.2229598462772628 [Eh]

	 ================> DF-SCS-MP2 Energies <==================
	-----------------------------------------------------------
	 SCS Same-Spin Scale       =       0.3333333333333333 [-]
	 SCS Opposite-Spin Scale   =       1.2000000000000000 [-]
	 SCS Same-Spin Energy      =      -0.1119638489014725 [Eh]
	 SCS Opposite-Spin Energy  =      -1.2746142295429954 [Eh]
	 SCS Correlation Energy    =      -1.3865780784444679 [Eh]
	 SCS Total Energy          =    -324.2114678533981760 [Eh]
	-----------------------------------------------------------

  Dipole Moment: [D]
     X:    -0.3361      Y:    -1.1629      Z:     0.1746     Total:     1.2230

*** Psi4 exiting successfully. Buy a developer a beer!
