                               Psi4 1.3.2 release

  ==> Input File <==

--------------------------------------------------------------------------
#psi4
#
memory 32 gb

molecule  {
0 1
  O       -0.8874150    -1.1053680    -0.0000120
  N       -0.2975850     1.0586860     0.0000180
  C        1.5208701    -0.6926290    -0.2999750
  C        0.1219560    -0.1795350     0.0000030
  C        2.5397680     0.4426120    -0.0000230
  C       -2.0377090    -0.3588510    -0.0000130
  C       -1.6838560     0.9546860     0.0000050
  H        1.6599850    -1.3368650     0.8764330
  H        1.6599860    -1.3369460    -0.8763220
  H        2.4145620     1.0741370    -0.8814520
  H        3.5546530     0.0364140    -0.0000210
  H        2.4145820     1.0741970     0.8813660
  H       -2.9679600    -0.9049730    -0.0000050
  H       -2.3195540     1.8284960    -0.0000070
units angstrom
no_reorient  #important for SAPT in psi4, default
symmetry c1  #important for SAPT in psi4, default
}

set PROPERTIES_ORIGIN ["COM"]
properties('MP2/aug-cc-pvtz', properties = ['dipole'])
--------------------------------------------------------------------------

    Molecular point group: c1
  Charge       = 0
  Multiplicity = 1
  Basis Set: AUG-CC-PVTZ
    Blend: AUG-CC-PVTZ
  Basis Set: (AUG-CC-PVTZ AUX)
    Blend: AUG-CC-PVTZ-JKFIT

    Orbital Energies [Eh]
    ---------------------

    Doubly Occupied:

       1A    -20.634016     2A    -15.561659     3A    -11.344434
       4A    -11.291541     5A    -11.261716     6A    -11.260453
       7A    -11.228271     8A     -1.476816     9A     -1.227321
      10A     -1.082260    11A     -0.998863    12A     -0.893891
      13A     -0.828638    14A     -0.793067    15A     -0.734227
      16A     -0.660534    17A     -0.643428    18A     -0.604064
      19A     -0.580128    20A     -0.572310    21A     -0.562543
      22A     -0.514588    23A     -0.459016    24A     -0.455168
      25A     -0.437737    26A     -0.328294

  @DF-RHF Final Energy:  -322.72900904447937

   => Energetics <=

    Nuclear Repulsion Energy =            291.8408181403548269
    One-Electron Energy =               -1016.2696832626933201
    Two-Electron Energy =                 401.6998560778591241
    Total Energy =                       -322.7290090444793691
  Basis Set: (AUG-CC-PVTZ AUX)
    Blend: AUG-CC-PVTZ-RI
    Molecular point group: c1

    Geometry (in Angstrom), charge = 0, multiplicity = 1:

       Center              X                  Y                   Z               Mass
    ------------   -----------------  -----------------  -----------------  -----------------
         O           -0.821858687248    -1.101018276226     0.037081059522    15.994914619570
         N           -0.232028687248     1.063035723774     0.037111059522    14.003074004430
         C            1.586426412752    -0.688279276226    -0.262881940478    12.000000000000
         C            0.187512312752    -0.175185276226     0.037096059522    12.000000000000
         C            2.605324312752     0.446961723774     0.037070059522    12.000000000000
         C           -1.972152687248    -0.354501276226     0.037080059522    12.000000000000
         C           -1.618299687248     0.959035723774     0.037098059522    12.000000000000
         H            1.725541312752    -1.332515276226     0.913526059522     1.007825032230
         H            1.725542312752    -1.332596276226    -0.839228940478     1.007825032230
         H            2.480118312752     1.078486723774    -0.844358940478     1.007825032230
         H            3.620209312752     0.040763723774     0.037072059522     1.007825032230
         H            2.480138312752     1.078546723774     0.918459059522     1.007825032230
         H           -2.902403687248    -0.900623276226     0.037088059522     1.007825032230
         H           -2.253997687248     1.832845723774     0.037086059522     1.007825032230

  Basis Set: AUG-CC-PVTZ
    Blend: AUG-CC-PVTZ
  Basis Set: (AUG-CC-PVTZ AUX)
    Blend: AUG-CC-PVTZ-JKFIT
	 Reference Energy          =    -322.7290090444793691 [Eh]
	 Singles Energy            =      -0.0000000000000000 [Eh]
	 Same-Spin Energy          =      -0.3370128653594538 [Eh]
	 Opposite-Spin Energy      =      -1.0665817353081799 [Eh]
	 Correlation Energy        =      -1.4035946006676336 [Eh]
	 Total Energy              =    -324.1326036451470145 [Eh]

	 ================> DF-SCS-MP2 Energies <==================
	-----------------------------------------------------------
	 SCS Same-Spin Scale       =       0.3333333333333333 [-]
	 SCS Opposite-Spin Scale   =       1.2000000000000000 [-]
	 SCS Same-Spin Energy      =      -0.1123376217864846 [Eh]
	 SCS Opposite-Spin Energy  =      -1.2798980823698158 [Eh]
	 SCS Correlation Energy    =      -1.3922357041563005 [Eh]
	 SCS Total Energy          =    -324.1212447486356609 [Eh]
	-----------------------------------------------------------

  Dipole Moment: [D]
     X:    -0.3891      Y:    -1.0444      Z:    -0.1877     Total:     1.1302

*** Psi4 exiting successfully. Buy a developer a beer!
