                               Psi4 1.3.2 release

  ==> Input File <==

--------------------------------------------------------------------------
#psi4
#
memory 32 gb

molecule  {
0 1
  O       -0.8874150    -1.1053680    -0.0000120
  N       -0.2975850     1.0586860     0.0000180
  C        1.5208694    -0.6926295    -0.2499750
  C        0.1219560    -0.1795350     0.0000030
  C        2.5397680     0.4426120    -0.0000230
  C       -2.0377090    -0.3588510    -0.0000130
  C       -1.6838560     0.9546860     0.0000050
  H        1.6599850    -1.3368650     0.8764330
  H        1.6599860    -1.3369460    -0.8763220
  H        2.4145620     1.0741370    -0.8814520
  H        3.5546530     0.0364140    -0.0000210
  H        2.4145820     1.0741970     0.8813660
  H       -2.9679600    -0.9049730    -0.0000050
  H       -2.3195540     1.8284960    -0.0000070
units angstrom
no_reorient  #important for SAPT in psi4, default
symmetry c1  #important for SAPT in psi4, default
}

set PROPERTIES_ORIGIN ["COM"]
properties('MP2/aug-cc-pvtz', properties = ['dipole'])
--------------------------------------------------------------------------

    Molecular point group: c1
  Charge       = 0
  Multiplicity = 1
  Basis Set: AUG-CC-PVTZ
    Blend: AUG-CC-PVTZ
  Basis Set: (AUG-CC-PVTZ AUX)
    Blend: AUG-CC-PVTZ-JKFIT

    Orbital Energies [Eh]
    ---------------------

    Doubly Occupied:

       1A    -20.634104     2A    -15.561399     3A    -11.342476
       4A    -11.291342     5A    -11.261413     6A    -11.256911
       7A    -11.226080     8A     -1.476759     9A     -1.227042
      10A     -1.082349    11A     -0.998306    12A     -0.890618
      13A     -0.828354    14A     -0.789361    15A     -0.730832
      16A     -0.661969    17A     -0.640893    18A     -0.604989
      19A     -0.580655    20A     -0.572221    21A     -0.557369
      22A     -0.516860    23A     -0.460869    24A     -0.457154
      25A     -0.444094    26A     -0.329508

  @DF-RHF Final Energy:  -322.75931171265762

   => Energetics <=

    Nuclear Repulsion Energy =            291.9932312165365715
    One-Electron Energy =               -1016.6572337010883302
    Two-Electron Energy =                 401.9046907718940815
    Total Energy =                       -322.7593117126576203
  Basis Set: (AUG-CC-PVTZ AUX)
    Blend: AUG-CC-PVTZ-RI
    Molecular point group: c1

    Geometry (in Angstrom), charge = 0, multiplicity = 1:

       Center              X                  Y                   Z               Mass
    ------------   -----------------  -----------------  -----------------  -----------------
         O           -0.821858600697    -1.101018214404     0.030898855366    15.994914619570
         N           -0.232028600697     1.063035785596     0.030928855366    14.003074004430
         C            1.586425799303    -0.688279714404    -0.219064144634    12.000000000000
         C            0.187512399303    -0.175185214404     0.030913855366    12.000000000000
         C            2.605324399303     0.446961785596     0.030887855366    12.000000000000
         C           -1.972152600697    -0.354501214404     0.030897855366    12.000000000000
         C           -1.618299600697     0.959035785596     0.030915855366    12.000000000000
         H            1.725541399303    -1.332515214404     0.907343855366     1.007825032230
         H            1.725542399303    -1.332596214404    -0.845411144634     1.007825032230
         H            2.480118399303     1.078486785596    -0.850541144634     1.007825032230
         H            3.620209399303     0.040763785596     0.030889855366     1.007825032230
         H            2.480138399303     1.078546785596     0.912276855366     1.007825032230
         H           -2.902403600697    -0.900623214404     0.030905855366     1.007825032230
         H           -2.253997600697     1.832845785596     0.030903855366     1.007825032230

  Basis Set: AUG-CC-PVTZ
    Blend: AUG-CC-PVTZ
  Basis Set: (AUG-CC-PVTZ AUX)
    Blend: AUG-CC-PVTZ-JKFIT
	 Reference Energy          =    -322.7593117126576203 [Eh]
	 Singles Energy            =      -0.0000000000000000 [Eh]
	 Same-Spin Energy          =      -0.3366239458295822 [Eh]
	 Opposite-Spin Energy      =      -1.0651126381545206 [Eh]
	 Correlation Energy        =      -1.4017365839841029 [Eh]
	 Total Energy              =    -324.1610482966416953 [Eh]

	 ================> DF-SCS-MP2 Energies <==================
	-----------------------------------------------------------
	 SCS Same-Spin Scale       =       0.3333333333333333 [-]
	 SCS Opposite-Spin Scale   =       1.2000000000000000 [-]
	 SCS Same-Spin Energy      =      -0.1122079819431941 [Eh]
	 SCS Opposite-Spin Energy  =      -1.2781351657854247 [Eh]
	 SCS Correlation Energy    =      -1.3903431477286188 [Eh]
	 SCS Total Energy          =    -324.1496548603862493 [Eh]
	-----------------------------------------------------------

  Dipole Moment: [D]
     X:    -0.3836      Y:    -1.0818      Z:    -0.1620     Total:     1.1592

*** Psi4 exiting successfully. Buy a developer a beer!
