                               Psi4 1.3.2 release

  ==> Input File <==

--------------------------------------------------------------------------
#psi4
#
memory 32 gb

molecule  {
0 1
  O       -0.8874150    -1.1053680    -0.0000120
  N       -0.2975850     1.0586860     0.0000180
  C        1.5208660    -0.6926320     0.0000250
  C        0.1219560    -0.1795350     0.0000030
  C        2.5397680     0.4426120    -0.0000230
  C       -2.0377090    -0.3588510    -0.0000130
  C       -1.6838560     0.9546860     0.0000050
  H        1.6599850    -1.3368650     0.8764330
  H        1.6599860    -1.3369460    -0.8763220
  H        2.4145620     1.0741370    -0.8814520
  H        3.5546530     0.0364140    -0.0000210
  H        2.4145820     1.0741970     0.8813660
  H       -2.9679593    -0.9049748     0.2499950
  H       -2.3195540     1.8284960    -0.0000070
units angstrom
no_reorient  #important for SAPT in psi4, default
symmetry c1  #important for SAPT in psi4, default
}

set PROPERTIES_ORIGIN ["COM"]
properties('MP2/aug-cc-pvtz', properties = ['dipole'])
--------------------------------------------------------------------------

    Molecular point group: c1
  Charge       = 0
  Multiplicity = 1
  Basis Set: AUG-CC-PVTZ
    Blend: AUG-CC-PVTZ
  Basis Set: (AUG-CC-PVTZ AUX)
    Blend: AUG-CC-PVTZ-JKFIT

    Orbital Energies [Eh]
    ---------------------

    Doubly Occupied:

       1A    -20.634075     2A    -15.561217     3A    -11.338605
       4A    -11.292498     5A    -11.261709     6A    -11.249119
       7A    -11.221130     8A     -1.476631     9A     -1.226879
      10A     -1.082917    11A     -0.996505    12A     -0.884422
      13A     -0.825567    14A     -0.780612    15A     -0.714704
      16A     -0.668096    17A     -0.626058    18A     -0.608311
      19A     -0.585596    20A     -0.570699    21A     -0.526647
      22A     -0.515032    23A     -0.505185    24A     -0.457248
      25A     -0.449798    26A     -0.332229

  @DF-RHF Final Energy:  -322.82353424390863

   => Energetics <=

    Nuclear Repulsion Energy =            292.2361977417394883
    One-Electron Energy =               -1017.3364807638490674
    Two-Electron Energy =                 402.2767487782009539
    Total Energy =                       -322.8235342439086253
  Basis Set: (AUG-CC-PVTZ AUX)
    Blend: AUG-CC-PVTZ-RI
    Molecular point group: c1

    Geometry (in Angstrom), charge = 0, multiplicity = 1:

       Center              X                  Y                   Z               Mass
    ------------   -----------------  -----------------  -----------------  -----------------
         O           -0.821858187576    -1.101017886602    -0.002608240455    15.994914619570
         N           -0.232028187576     1.063036113398    -0.002578240455    14.003074004430
         C            1.586422812424    -0.688281886602    -0.002571240455    12.000000000000
         C            0.187512812424    -0.175184886602    -0.002593240455    12.000000000000
         C            2.605324812424     0.446962113398    -0.002619240455    12.000000000000
         C           -1.972152187576    -0.354500886602    -0.002609240455    12.000000000000
         C           -1.618299187576     0.959036113398    -0.002591240455    12.000000000000
         H            1.725541812424    -1.332514886602     0.873836759545     1.007825032230
         H            1.725542812424    -1.332595886602    -0.878918240455     1.007825032230
         H            2.480118812424     1.078487113398    -0.884048240455     1.007825032230
         H            3.620209812424     0.040764113398    -0.002617240455     1.007825032230
         H            2.480138812424     1.078547113398     0.878769759545     1.007825032230
         H           -2.902402487576    -0.900624686602     0.247398759545     1.007825032230
         H           -2.253997187576     1.832846113398    -0.002603240455     1.007825032230

  Basis Set: AUG-CC-PVTZ
    Blend: AUG-CC-PVTZ
  Basis Set: (AUG-CC-PVTZ AUX)
    Blend: AUG-CC-PVTZ-JKFIT
	 Reference Energy          =    -322.8235342439086253 [Eh]
	 Singles Energy            =      -0.0000000000000000 [Eh]
	 Same-Spin Energy          =      -0.3359590522713397 [Eh]
	 Opposite-Spin Energy      =      -1.0623455904126557 [Eh]
	 Correlation Energy        =      -1.3983046426839953 [Eh]
	 Total Energy              =    -324.2218388865925931 [Eh]

	 ================> DF-SCS-MP2 Energies <==================
	-----------------------------------------------------------
	 SCS Same-Spin Scale       =       0.3333333333333333 [-]
	 SCS Opposite-Spin Scale   =       1.2000000000000000 [-]
	 SCS Same-Spin Energy      =      -0.1119863507571132 [Eh]
	 SCS Opposite-Spin Energy  =      -1.2748147084951869 [Eh]
	 SCS Correlation Energy    =      -1.3868010592523001 [Eh]
	 SCS Total Energy          =    -324.2103353031609458 [Eh]
	-----------------------------------------------------------

  Dipole Moment: [D]
     X:    -0.3189      Y:    -1.1522      Z:     0.2171     Total:     1.2151

*** Psi4 exiting successfully. Buy a developer a beer!
