                               Psi4 1.3.2 release

  ==> Input File <==

--------------------------------------------------------------------------
#psi4
#
memory 32 gb

molecule  {
0 1
  O       -0.8874150    -1.1053680    -0.0000120
  N       -0.2975850     1.0586860     0.0000180
  C        1.5208660    -0.6926320     0.0000250
  C        0.1219560    -0.1795350     0.0000030
  C        2.5397680     0.4426120    -0.0000230
  C       -2.0377090    -0.3588510    -0.0000130
  C       -1.6838560     0.9546860     0.0000050
  H        1.6599850    -1.3368650     0.8764330
  H        1.6599860    -1.3369460    -0.8763220
  H        2.4145620     1.0741370    -0.8814520
  H        3.5546530     0.0364140    -0.0000210
  H        2.4145820     1.0741970     0.8813660
  H       -2.9679599    -0.9049734     0.0499950
  H       -2.3195540     1.8284960    -0.0000070
units angstrom
no_reorient  #important for SAPT in psi4, default
symmetry c1  #important for SAPT in psi4, default
}

set PROPERTIES_ORIGIN ["COM"]
properties('MP2/aug-cc-pvtz', properties = ['dipole'])
--------------------------------------------------------------------------

    Molecular point group: c1
  Charge       = 0
  Multiplicity = 1
  Basis Set: AUG-CC-PVTZ
    Blend: AUG-CC-PVTZ
  Basis Set: (AUG-CC-PVTZ AUX)
    Blend: AUG-CC-PVTZ-JKFIT

    Orbital Energies [Eh]
    ---------------------

    Doubly Occupied:

       1A    -20.634276     2A    -15.560736     3A    -11.337834
       4A    -11.290892     5A    -11.260707     6A    -11.248781
       7A    -11.220855     8A     -1.476591     9A     -1.226349
      10A     -1.082713    11A     -0.997098    12A     -0.884173
      13A     -0.827632    14A     -0.780349    15A     -0.717050
      16A     -0.667248    17A     -0.630397    18A     -0.609176
      19A     -0.585116    20A     -0.572049    21A     -0.526761
      22A     -0.514690    23A     -0.504971    24A     -0.457016
      25A     -0.449448    26A     -0.332050

  @DF-RHF Final Energy:  -322.82692982327217

   => Energetics <=

    Nuclear Repulsion Energy =            292.3397309750604904
    One-Electron Energy =               -1017.5434080222565854
    Two-Electron Energy =                 402.3767472239239851
    Total Energy =                       -322.8269298232721667
  Basis Set: (AUG-CC-PVTZ AUX)
    Blend: AUG-CC-PVTZ-RI
    Molecular point group: c1

    Geometry (in Angstrom), charge = 0, multiplicity = 1:

       Center              X                  Y                   Z               Mass
    ------------   -----------------  -----------------  -----------------  -----------------
         O           -0.821858181346    -1.101017901140    -0.000531380421    15.994914619570
         N           -0.232028181346     1.063036098860    -0.000501380421    14.003074004430
         C            1.586422818654    -0.688281901140    -0.000494380421    12.000000000000
         C            0.187512818654    -0.175184901140    -0.000516380421    12.000000000000
         C            2.605324818654     0.446962098860    -0.000542380421    12.000000000000
         C           -1.972152181346    -0.354500901140    -0.000532380421    12.000000000000
         C           -1.618299181346     0.959036098860    -0.000514380421    12.000000000000
         H            1.725541818654    -1.332514901140     0.875913619579     1.007825032230
         H            1.725542818654    -1.332595901140    -0.876841380421     1.007825032230
         H            2.480118818654     1.078487098860    -0.881971380421     1.007825032230
         H            3.620209818654     0.040764098860    -0.000540380421     1.007825032230
         H            2.480138818654     1.078547098860     0.880846619579     1.007825032230
         H           -2.902403081346    -0.900623301140     0.049475619579     1.007825032230
         H           -2.253997181346     1.832846098860    -0.000526380421     1.007825032230

  Basis Set: AUG-CC-PVTZ
    Blend: AUG-CC-PVTZ
  Basis Set: (AUG-CC-PVTZ AUX)
    Blend: AUG-CC-PVTZ-JKFIT
	 Reference Energy          =    -322.8269298232721667 [Eh]
	 Singles Energy            =      -0.0000000000000000 [Eh]
	 Same-Spin Energy          =      -0.3357774742406767 [Eh]
	 Opposite-Spin Energy      =      -1.0619175582926546 [Eh]
	 Correlation Energy        =      -1.3976950325333313 [Eh]
	 Total Energy              =    -324.2246248558054731 [Eh]

	 ================> DF-SCS-MP2 Energies <==================
	-----------------------------------------------------------
	 SCS Same-Spin Scale       =       0.3333333333333333 [-]
	 SCS Opposite-Spin Scale   =       1.2000000000000000 [-]
	 SCS Same-Spin Energy      =      -0.1119258247468922 [Eh]
	 SCS Opposite-Spin Energy  =      -1.2743010699511854 [Eh]
	 SCS Correlation Energy    =      -1.3862268946980776 [Eh]
	 SCS Total Energy          =    -324.2131567179702643 [Eh]
	-----------------------------------------------------------

  Dipole Moment: [D]
     X:    -0.3654      Y:    -1.1813      Z:     0.0441     Total:     1.2373

*** Psi4 exiting successfully. Buy a developer a beer!
