                               Psi4 1.3.2 release

  ==> Input File <==

--------------------------------------------------------------------------
#psi4
#
memory 32 gb

molecule  {
0 1
  O       -0.8874150    -1.1053680    -0.0000120
  N       -0.2975850     1.0586860     0.0000180
  C        1.5208687    -0.6926300    -0.1999750
  C        0.1219560    -0.1795350     0.0000030
  C        2.5397680     0.4426120    -0.0000230
  C       -2.0377090    -0.3588510    -0.0000130
  C       -1.6838560     0.9546860     0.0000050
  H        1.6599850    -1.3368650     0.8764330
  H        1.6599860    -1.3369460    -0.8763220
  H        2.4145620     1.0741370    -0.8814520
  H        3.5546530     0.0364140    -0.0000210
  H        2.4145820     1.0741970     0.8813660
  H       -2.9679600    -0.9049730    -0.0000050
  H       -2.3195540     1.8284960    -0.0000070
units angstrom
no_reorient  #important for SAPT in psi4, default
symmetry c1  #important for SAPT in psi4, default
}

set PROPERTIES_ORIGIN ["COM"]
properties('MP2/aug-cc-pvtz', properties = ['dipole'])
--------------------------------------------------------------------------

    Molecular point group: c1
  Charge       = 0
  Multiplicity = 1
  Basis Set: AUG-CC-PVTZ
    Blend: AUG-CC-PVTZ
  Basis Set: (AUG-CC-PVTZ AUX)
    Blend: AUG-CC-PVTZ-JKFIT

    Orbital Energies [Eh]
    ---------------------

    Doubly Occupied:

       1A    -20.634171     2A    -15.561167     3A    -11.340828
       4A    -11.291166     5A    -11.261153     6A    -11.253989
       7A    -11.224234     8A     -1.476704     9A     -1.226796
      10A     -1.082451    11A     -0.997866    12A     -0.888114
      13A     -0.828125    14A     -0.786122    15A     -0.727057
      16A     -0.663462    17A     -0.638156    18A     -0.605976
      19A     -0.581739    20A     -0.572175    21A     -0.550822
      22A     -0.518594    23A     -0.468079    24A     -0.457431
      25A     -0.447291    26A     -0.330457

  @DF-RHF Final Energy:  -322.78392653966506

   => Energetics <=

    Nuclear Repulsion Energy =            292.1187632178203444
    One-Electron Energy =               -1016.9771240747953698
    Two-Electron Energy =                 402.0744343173099082
    Total Energy =                       -322.7839265396650603
  Basis Set: (AUG-CC-PVTZ AUX)
    Blend: AUG-CC-PVTZ-RI
    Molecular point group: c1

    Geometry (in Angstrom), charge = 0, multiplicity = 1:

       Center              X                  Y                   Z               Mass
    ------------   -----------------  -----------------  -----------------  -----------------
         O           -0.821858514146    -1.101018152582     0.024716651210    15.994914619570
         N           -0.232028514146     1.063035847418     0.024746651210    14.003074004430
         C            1.586425185854    -0.688280152582    -0.175246348790    12.000000000000
         C            0.187512485854    -0.175185152582     0.024731651210    12.000000000000
         C            2.605324485854     0.446961847418     0.024705651210    12.000000000000
         C           -1.972152514146    -0.354501152582     0.024715651210    12.000000000000
         C           -1.618299514146     0.959035847418     0.024733651210    12.000000000000
         H            1.725541485854    -1.332515152582     0.901161651210     1.007825032230
         H            1.725542485854    -1.332596152582    -0.851593348790     1.007825032230
         H            2.480118485854     1.078486847418    -0.856723348790     1.007825032230
         H            3.620209485854     0.040763847418     0.024707651210     1.007825032230
         H            2.480138485854     1.078546847418     0.906094651210     1.007825032230
         H           -2.902403514146    -0.900623152582     0.024723651210     1.007825032230
         H           -2.253997514146     1.832845847418     0.024721651210     1.007825032230

  Basis Set: AUG-CC-PVTZ
    Blend: AUG-CC-PVTZ
  Basis Set: (AUG-CC-PVTZ AUX)
    Blend: AUG-CC-PVTZ-JKFIT
	 Reference Energy          =    -322.7839265396650603 [Eh]
	 Singles Energy            =      -0.0000000000000000 [Eh]
	 Same-Spin Energy          =      -0.3363115578522931 [Eh]
	 Opposite-Spin Energy      =      -1.0639286306671576 [Eh]
	 Correlation Energy        =      -1.4002401885194506 [Eh]
	 Total Energy              =    -324.1841667281844934 [Eh]

	 ================> DF-SCS-MP2 Energies <==================
	-----------------------------------------------------------
	 SCS Same-Spin Scale       =       0.3333333333333333 [-]
	 SCS Opposite-Spin Scale   =       1.2000000000000000 [-]
	 SCS Same-Spin Energy      =      -0.1121038526174310 [Eh]
	 SCS Opposite-Spin Energy  =      -1.2767143568005890 [Eh]
	 SCS Correlation Energy    =      -1.3888182094180199 [Eh]
	 SCS Total Energy          =    -324.1727447490831082 [Eh]
	-----------------------------------------------------------

  Dipole Moment: [D]
     X:    -0.3784      Y:    -1.1156      Z:    -0.1326     Total:     1.1855

*** Psi4 exiting successfully. Buy a developer a beer!
