                               Psi4 1.3.2 release

  ==> Input File <==

--------------------------------------------------------------------------
#psi4
#
memory 32 gb

molecule  {
0 1
  O        0.6831730     1.9514370    -0.1851230
  N        0.3221270    -0.3206750    -0.2979720
  C        1.7580560    -0.4955670    -0.5492050
  C       -0.1211040     1.0090560    -0.1118080
  C       -0.4973450    -1.4105120    -0.1972350
  C        2.5603930    -0.4317450     0.7423750
  C       -1.3412578     1.1066493     0.1160548
  C       -1.8319680    -1.2780450     0.0712850
  C       -2.3551590     0.0280850     0.2487950
  H        1.8855710    -1.4559800    -1.0561060
  H        2.0595230     0.3051280    -1.2266110
  H       -0.0197130    -2.3738180    -0.3527730
  H        2.4186300     0.5432120     1.2108420
  H        2.2423160    -1.2153800     1.4354410
  H        3.6255180    -0.5665000     0.5315230
  H       -1.9126600     2.1320090     0.2855670
  H       -2.4591310    -2.1595270     0.1391440
  H       -3.4140320     0.1624990     0.4585800
units angstrom
no_reorient  #important for SAPT in psi4, default
symmetry c1  #important for SAPT in psi4, default
}

set PROPERTIES_ORIGIN ["COM"]
properties('MP2/aug-cc-pvtz', properties = ['dipole'])
--------------------------------------------------------------------------

    Molecular point group: c1
  Charge       = 0
  Multiplicity = 1
  Basis Set: AUG-CC-PVTZ
    Blend: AUG-CC-PVTZ
  Basis Set: (AUG-CC-PVTZ AUX)
    Blend: AUG-CC-PVTZ-JKFIT

    Orbital Energies [Eh]
    ---------------------

    Doubly Occupied:

       1A    -20.476007     2A    -15.633532     3A    -11.320743
       4A    -11.313668     5A    -11.298248     6A    -11.274168
       7A    -11.248086     8A    -11.228587     9A    -11.220832
      10A     -1.362538    11A     -1.275351    12A     -1.120527
      13A     -1.046884    14A     -1.022419    15A     -0.914439
      16A     -0.861094    17A     -0.836916    18A     -0.715814
      19A     -0.707254    20A     -0.669187    21A     -0.633547
      22A     -0.613684    23A     -0.609150    24A     -0.599583
      25A     -0.569376    26A     -0.535397    27A     -0.527760
      28A     -0.508920    29A     -0.488148    30A     -0.473239
      31A     -0.408568    32A     -0.394916    33A     -0.310701

  @DF-RHF Final Energy:  -399.70705372858845

   => Energetics <=

    Nuclear Repulsion Energy =            440.4353751420962908
    One-Electron Energy =               -1415.8462928781846131
    Two-Electron Energy =                 575.7038640074998739
    Total Energy =                       -399.7070537285884484
  Basis Set: (AUG-CC-PVTZ AUX)
    Blend: AUG-CC-PVTZ-RI
    Molecular point group: c1

    Geometry (in Angstrom), charge = 0, multiplicity = 1:

       Center              X                  Y                   Z               Mass
    ------------   -----------------  -----------------  -----------------  -----------------
         O            0.699764583047     1.915740480790    -0.170061080644    15.994914619570
         N            0.338718583047    -0.356371519210    -0.282910080644    14.003074004430
         C            1.774647583047    -0.531263519210    -0.534143080644    12.000000000000
         C           -0.104512416953     0.973359480790    -0.096746080644    12.000000000000
         C           -0.480753416953    -1.446208519210    -0.182173080644    12.000000000000
         C            2.576984583047    -0.467441519210     0.757436919356    12.000000000000
         C           -1.324666216953     1.070952780790     0.131116719356    12.000000000000
         C           -1.815376416953    -1.313741519210     0.086346919356    12.000000000000
         C           -2.338567416953    -0.007611519210     0.263856919356    12.000000000000
         H            1.902162583047    -1.491676519210    -1.041044080644     1.007825032230
         H            2.076114583047     0.269431480790    -1.211549080644     1.007825032230
         H           -0.003121416953    -2.409514519210    -0.337711080644     1.007825032230
         H            2.435221583047     0.507515480790     1.225903919356     1.007825032230
         H            2.258907583047    -1.251076519210     1.450502919356     1.007825032230
         H            3.642109583047    -0.602196519210     0.546584919356     1.007825032230
         H           -1.896068416953     2.096312480790     0.300628919356     1.007825032230
         H           -2.442539416953    -2.195223519210     0.154205919356     1.007825032230
         H           -3.397440416953     0.126802480790     0.473641919356     1.007825032230

  Basis Set: AUG-CC-PVTZ
    Blend: AUG-CC-PVTZ
  Basis Set: (AUG-CC-PVTZ AUX)
    Blend: AUG-CC-PVTZ-JKFIT
	 Reference Energy          =    -399.7070537285884484 [Eh]
	 Singles Energy            =      -0.0000000000000000 [Eh]
	 Same-Spin Energy          =      -0.4283506443379672 [Eh]
	 Opposite-Spin Energy      =      -1.3451515302219275 [Eh]
	 Correlation Energy        =      -1.7735021745598947 [Eh]
	 Total Energy              =    -401.4805559031483426 [Eh]

	 ================> DF-SCS-MP2 Energies <==================
	-----------------------------------------------------------
	 SCS Same-Spin Scale       =       0.3333333333333333 [-]
	 SCS Opposite-Spin Scale   =       1.2000000000000000 [-]
	 SCS Same-Spin Energy      =      -0.1427835481126557 [Eh]
	 SCS Opposite-Spin Energy  =      -1.6141818362663130 [Eh]
	 SCS Correlation Energy    =      -1.7569653843789688 [Eh]
	 SCS Total Energy          =    -401.4640191129674349 [Eh]
	-----------------------------------------------------------

  Dipole Moment: [D]
     X:    -1.0325      Y:    -4.3386      Z:     0.0627     Total:     4.4602

*** Psi4 exiting successfully. Buy a developer a beer!
