                               Psi4 1.3.2 release

  ==> Input File <==

--------------------------------------------------------------------------
#psi4
#
memory 32 gb

molecule  {
0 1
  O        0.6831730     1.9514370    -0.1851230
  N        0.3221270    -0.3206750    -0.2979720
  C        1.7580560    -0.4955670    -0.5492050
  C       -0.1211040     1.0090560    -0.1118080
  C       -0.4904091    -1.3154010    -0.1927100
  C        2.5603930    -0.4317450     0.7423750
  C       -1.5372540     1.1223260     0.1526570
  C       -1.8319680    -1.2780450     0.0712850
  C       -2.3551590     0.0280850     0.2487950
  H        1.8855710    -1.4559800    -1.0561060
  H        2.0595230     0.3051280    -1.2266110
  H       -0.0197130    -2.3738180    -0.3527730
  H        2.4186300     0.5432120     1.2108420
  H        2.2423160    -1.2153800     1.4354410
  H        3.6255180    -0.5665000     0.5315230
  H       -1.9126600     2.1320090     0.2855670
  H       -2.4591310    -2.1595270     0.1391440
  H       -3.4140320     0.1624990     0.4585800
units angstrom
no_reorient  #important for SAPT in psi4, default
symmetry c1  #important for SAPT in psi4, default
}

set PROPERTIES_ORIGIN ["COM"]
properties('MP2/aug-cc-pvtz', properties = ['dipole'])
--------------------------------------------------------------------------

    Molecular point group: c1
  Charge       = 0
  Multiplicity = 1
  Basis Set: AUG-CC-PVTZ
    Blend: AUG-CC-PVTZ
  Basis Set: (AUG-CC-PVTZ AUX)
    Blend: AUG-CC-PVTZ-JKFIT

    Orbital Energies [Eh]
    ---------------------

    Doubly Occupied:

       1A    -20.506635     2A    -15.631830     3A    -11.349890
       4A    -11.310683     5A    -11.279855     6A    -11.268241
       7A    -11.233980     8A    -11.230717     9A    -11.225161
      10A     -1.377673    11A     -1.300301    12A     -1.120834
      13A     -1.037064    14A     -1.016362    15A     -0.898782
      16A     -0.875319    17A     -0.831121    18A     -0.715207
      19A     -0.702932    20A     -0.659787    21A     -0.644625
      22A     -0.623038    23A     -0.609338    24A     -0.595503
      25A     -0.564690    26A     -0.542065    27A     -0.531443
      28A     -0.518492    29A     -0.510423    30A     -0.480300
      31A     -0.419811    32A     -0.412738    33A     -0.303104

  @DF-RHF Final Energy:  -399.76191169856907

   => Energetics <=

    Nuclear Repulsion Energy =            439.3398184833833398
    One-Electron Energy =               -1413.5475684615187220
    Two-Electron Energy =                 574.4458382795662601
    Total Energy =                       -399.7619116985690653
  Basis Set: (AUG-CC-PVTZ AUX)
    Blend: AUG-CC-PVTZ-RI
    Molecular point group: c1

    Geometry (in Angstrom), charge = 0, multiplicity = 1:

       Center              X                  Y                   Z               Mass
    ------------   -----------------  -----------------  -----------------  -----------------
         O            0.718199236813     1.904937933185    -0.174071259896    15.994914619570
         N            0.357153236813    -0.367174066815    -0.286920259896    14.003074004430
         C            1.793082236813    -0.542066066815    -0.538153259896    12.000000000000
         C           -0.086077763187     0.962556933185    -0.100756259896    12.000000000000
         C           -0.455382863187    -1.361900066815    -0.181658259896    12.000000000000
         C            2.595419236813    -0.478244066815     0.753426740104    12.000000000000
         C           -1.502227763187     1.075826933185     0.163708740104    12.000000000000
         C           -1.796941763187    -1.324544066815     0.082336740104    12.000000000000
         C           -2.320132763187    -0.018414066815     0.259846740104    12.000000000000
         H            1.920597236813    -1.502479066815    -1.045054259896     1.007825032230
         H            2.094549236813     0.258628933185    -1.215559259896     1.007825032230
         H            0.015313236813    -2.420317066815    -0.341721259896     1.007825032230
         H            2.453656236813     0.496712933185     1.221893740104     1.007825032230
         H            2.277342236813    -1.261879066815     1.446492740104     1.007825032230
         H            3.660544236813    -0.612999066815     0.542574740104     1.007825032230
         H           -1.877633763187     2.085509933185     0.296618740104     1.007825032230
         H           -2.424104763187    -2.206026066815     0.150195740104     1.007825032230
         H           -3.379005763187     0.115999933185     0.469631740104     1.007825032230

  Basis Set: AUG-CC-PVTZ
    Blend: AUG-CC-PVTZ
  Basis Set: (AUG-CC-PVTZ AUX)
    Blend: AUG-CC-PVTZ-JKFIT
	 Reference Energy          =    -399.7619116985690653 [Eh]
	 Singles Energy            =      -0.0000000000000000 [Eh]
	 Same-Spin Energy          =      -0.4238744319028983 [Eh]
	 Opposite-Spin Energy      =      -1.3391058598067780 [Eh]
	 Correlation Energy        =      -1.7629802917096762 [Eh]
	 Total Energy              =    -401.5248919902787179 [Eh]

	 ================> DF-SCS-MP2 Energies <==================
	-----------------------------------------------------------
	 SCS Same-Spin Scale       =       0.3333333333333333 [-]
	 SCS Opposite-Spin Scale   =       1.2000000000000000 [-]
	 SCS Same-Spin Energy      =      -0.1412914773009661 [Eh]
	 SCS Opposite-Spin Energy  =      -1.6069270317681335 [Eh]
	 SCS Correlation Energy    =      -1.7482185090690996 [Eh]
	 SCS Total Energy          =    -401.5101302076381558 [Eh]
	-----------------------------------------------------------

  Dipole Moment: [D]
     X:    -0.4919      Y:    -3.7548      Z:     0.0081     Total:     3.7869

*** Psi4 exiting successfully. Buy a developer a beer!
