                               Psi4 1.3.2 release

  ==> Input File <==

--------------------------------------------------------------------------
#psi4
#
memory 32 gb

molecule  {
0 1
  O        0.6831730     1.9514370    -0.1851230
  N        0.3221270    -0.3206750    -0.2979720
  C        1.7580560    -0.4955670    -0.5492050
  C       -0.1211040     1.0090560    -0.1118080
  C       -0.4973450    -1.4105120    -0.1972350
  C        2.5603930    -0.4317450     0.7423750
  C       -1.5372540     1.1223260     0.1526570
  C       -1.8319680    -1.2780450     0.0712850
  C       -2.2787728    -0.0264329     0.2306139
  H        1.8855710    -1.4559800    -1.0561060
  H        2.0595230     0.3051280    -1.2266110
  H       -0.0197130    -2.3738180    -0.3527730
  H        2.4186300     0.5432120     1.2108420
  H        2.2423160    -1.2153800     1.4354410
  H        3.6255180    -0.5665000     0.5315230
  H       -1.9126600     2.1320090     0.2855670
  H       -2.4591310    -2.1595270     0.1391440
  H       -3.4140320     0.1624990     0.4585800
units angstrom
no_reorient  #important for SAPT in psi4, default
symmetry c1  #important for SAPT in psi4, default
}

set PROPERTIES_ORIGIN ["COM"]
properties('MP2/aug-cc-pvtz', properties = ['dipole'])
--------------------------------------------------------------------------

    Molecular point group: c1
  Charge       = 0
  Multiplicity = 1
  Basis Set: AUG-CC-PVTZ
    Blend: AUG-CC-PVTZ
  Basis Set: (AUG-CC-PVTZ AUX)
    Blend: AUG-CC-PVTZ-JKFIT

    Orbital Energies [Eh]
    ---------------------

    Doubly Occupied:

       1A    -20.501558     2A    -15.629875     3A    -11.345357
       4A    -11.314152     5A    -11.275385     6A    -11.268395
       7A    -11.234788     8A    -11.233307     9A    -11.222192
      10A     -1.367474    11A     -1.280782    12A     -1.131213
      13A     -1.030645    14A     -1.023532    15A     -0.897596
      16A     -0.873618    17A     -0.819903    18A     -0.718660
      19A     -0.705237    20A     -0.661316    21A     -0.641642
      22A     -0.611929    23A     -0.609035    24A     -0.603868
      25A     -0.555238    26A     -0.545353    27A     -0.528892
      28A     -0.520268    29A     -0.507779    30A     -0.478484
      31A     -0.416135    32A     -0.411760    33A     -0.307204

  @DF-RHF Final Energy:  -399.75901501140777

   => Energetics <=

    Nuclear Repulsion Energy =            439.0737411674173245
    One-Electron Energy =               -1413.1203686638675663
    Two-Electron Energy =                 574.2876124850424731
    Total Energy =                       -399.7590150114077687
  Basis Set: (AUG-CC-PVTZ AUX)
    Blend: AUG-CC-PVTZ-RI
    Molecular point group: c1

    Geometry (in Angstrom), charge = 0, multiplicity = 1:

       Center              X                  Y                   Z               Mass
    ------------   -----------------  -----------------  -----------------  -----------------
         O            0.711427364377     1.919527759631    -0.171857262077    15.994914619570
         N            0.350381364377    -0.352584240369    -0.284706262077    14.003074004430
         C            1.786310364377    -0.527476240369    -0.535939262077    12.000000000000
         C           -0.092849635623     0.977146759631    -0.098542262077    12.000000000000
         C           -0.469090635623    -1.442421240369    -0.183969262077    12.000000000000
         C            2.588647364377    -0.463654240369     0.755640737923    12.000000000000
         C           -1.508999635623     1.090416759631     0.165922737923    12.000000000000
         C           -1.803713635623    -1.309954240369     0.084550737923    12.000000000000
         C           -2.250518435623    -0.058342140369     0.243879637923    12.000000000000
         H            1.913825364377    -1.487889240369    -1.042840262077     1.007825032230
         H            2.087777364377     0.273218759631    -1.213345262077     1.007825032230
         H            0.008541364377    -2.405727240369    -0.339507262077     1.007825032230
         H            2.446884364377     0.511302759631     1.224107737923     1.007825032230
         H            2.270570364377    -1.247289240369     1.448706737923     1.007825032230
         H            3.653772364377    -0.598409240369     0.544788737923     1.007825032230
         H           -1.884405635623     2.100099759631     0.298832737923     1.007825032230
         H           -2.430876635623    -2.191436240369     0.152409737923     1.007825032230
         H           -3.385777635623     0.130589759631     0.471845737923     1.007825032230

  Basis Set: AUG-CC-PVTZ
    Blend: AUG-CC-PVTZ
  Basis Set: (AUG-CC-PVTZ AUX)
    Blend: AUG-CC-PVTZ-JKFIT
	 Reference Energy          =    -399.7590150114077687 [Eh]
	 Singles Energy            =      -0.0000000000000000 [Eh]
	 Same-Spin Energy          =      -0.4247355811983737 [Eh]
	 Opposite-Spin Energy      =      -1.3406009242929913 [Eh]
	 Correlation Energy        =      -1.7653365054913650 [Eh]
	 Total Energy              =    -401.5243515168991166 [Eh]

	 ================> DF-SCS-MP2 Energies <==================
	-----------------------------------------------------------
	 SCS Same-Spin Scale       =       0.3333333333333333 [-]
	 SCS Opposite-Spin Scale   =       1.2000000000000000 [-]
	 SCS Same-Spin Energy      =      -0.1415785270661246 [Eh]
	 SCS Opposite-Spin Energy  =      -1.6087211091515894 [Eh]
	 SCS Correlation Energy    =      -1.7502996362177139 [Eh]
	 SCS Total Energy          =    -401.5093146476255015 [Eh]
	-----------------------------------------------------------

  Dipole Moment: [D]
     X:    -0.6508      Y:    -3.9643      Z:     0.0063     Total:     4.0174

*** Psi4 exiting successfully. Buy a developer a beer!
