                               Psi4 1.3.2 release

  ==> Input File <==

--------------------------------------------------------------------------
#psi4
#
memory 32 gb

molecule  {
0 1
  O        0.6831730     1.9514370    -0.1851230
  N        0.3221270    -0.3206750    -0.2979720
  C        1.7300163    -0.6464418    -0.5574352
  C       -0.1211040     1.0090560    -0.1118080
  C       -0.4973450    -1.4105120    -0.1972350
  C        2.5603930    -0.4317450     0.7423750
  C       -1.5372540     1.1223260     0.1526570
  C       -1.8319680    -1.2780450     0.0712850
  C       -2.3551590     0.0280850     0.2487950
  H        1.8855710    -1.4559800    -1.0561060
  H        2.0595230     0.3051280    -1.2266110
  H       -0.0197130    -2.3738180    -0.3527730
  H        2.4186300     0.5432120     1.2108420
  H        2.2423160    -1.2153800     1.4354410
  H        3.6255180    -0.5665000     0.5315230
  H       -1.9126600     2.1320090     0.2855670
  H       -2.4591310    -2.1595270     0.1391440
  H       -3.4140320     0.1624990     0.4585800
units angstrom
no_reorient  #important for SAPT in psi4, default
symmetry c1  #important for SAPT in psi4, default
}

set PROPERTIES_ORIGIN ["COM"]
properties('MP2/aug-cc-pvtz', properties = ['dipole'])
--------------------------------------------------------------------------

    Molecular point group: c1
  Charge       = 0
  Multiplicity = 1
  Basis Set: AUG-CC-PVTZ
    Blend: AUG-CC-PVTZ
  Basis Set: (AUG-CC-PVTZ AUX)
    Blend: AUG-CC-PVTZ-JKFIT

    Orbital Energies [Eh]
    ---------------------

    Doubly Occupied:

       1A    -20.506607     2A    -15.627558     3A    -11.352399
       4A    -11.307221     5A    -11.274615     6A    -11.270860
       7A    -11.239407     8A    -11.238190     9A    -11.224161
      10A     -1.368270    11A     -1.280677    12A     -1.118673
      13A     -1.028269    14A     -1.017817    15A     -0.896202
      16A     -0.876929    17A     -0.827791    18A     -0.722332
      19A     -0.696609    20A     -0.677117    21A     -0.637236
      22A     -0.618041    23A     -0.607833    24A     -0.597661
      25A     -0.560745    26A     -0.547028    27A     -0.537623
      28A     -0.524597    29A     -0.481338    30A     -0.474916
      31A     -0.421578    32A     -0.402516    33A     -0.308447

  @DF-RHF Final Energy:  -399.74074469430627

   => Energetics <=

    Nuclear Repulsion Energy =            436.8726542957957690
    One-Electron Energy =               -1408.6842689472750862
    Two-Electron Energy =                 572.0708699571730449
    Total Energy =                       -399.7407446943062723
  Basis Set: (AUG-CC-PVTZ AUX)
    Blend: AUG-CC-PVTZ-RI
    Molecular point group: c1

    Geometry (in Angstrom), charge = 0, multiplicity = 1:

       Center              X                  Y                   Z               Mass
    ------------   -----------------  -----------------  -----------------  -----------------
         O            0.721609593595     1.928923206954    -0.172827541909    15.994914619570
         N            0.360563593595    -0.343188793046    -0.285676541909    14.003074004430
         C            1.768452893595    -0.668955593046    -0.545139741909    12.000000000000
         C           -0.082667406405     0.986542206954    -0.099512541909    12.000000000000
         C           -0.458908406405    -1.433025793046    -0.184939541909    12.000000000000
         C            2.598829593595    -0.454258793046     0.754670458091    12.000000000000
         C           -1.498817406405     1.099812206954     0.164952458091    12.000000000000
         C           -1.793531406405    -1.300558793046     0.083580458091    12.000000000000
         C           -2.316722406405     0.005571206954     0.261090458091    12.000000000000
         H            1.924007593595    -1.478493793046    -1.043810541909     1.007825032230
         H            2.097959593595     0.282614206954    -1.214315541909     1.007825032230
         H            0.018723593595    -2.396331793046    -0.340477541909     1.007825032230
         H            2.457066593595     0.520698206954     1.223137458091     1.007825032230
         H            2.280752593595    -1.237893793046     1.447736458091     1.007825032230
         H            3.663954593595    -0.589013793046     0.543818458091     1.007825032230
         H           -1.874223406405     2.109495206954     0.297862458091     1.007825032230
         H           -2.420694406405    -2.182040793046     0.151439458091     1.007825032230
         H           -3.375595406405     0.139985206954     0.470875458091     1.007825032230

  Basis Set: AUG-CC-PVTZ
    Blend: AUG-CC-PVTZ
  Basis Set: (AUG-CC-PVTZ AUX)
    Blend: AUG-CC-PVTZ-JKFIT
	 Reference Energy          =    -399.7407446943062723 [Eh]
	 Singles Energy            =      -0.0000000000000000 [Eh]
	 Same-Spin Energy          =      -0.4241099907291978 [Eh]
	 Opposite-Spin Energy      =      -1.3416486035492428 [Eh]
	 Correlation Energy        =      -1.7657585942784406 [Eh]
	 Total Energy              =    -401.5065032885847245 [Eh]

	 ================> DF-SCS-MP2 Energies <==================
	-----------------------------------------------------------
	 SCS Same-Spin Scale       =       0.3333333333333333 [-]
	 SCS Opposite-Spin Scale   =       1.2000000000000000 [-]
	 SCS Same-Spin Energy      =      -0.1413699969097326 [Eh]
	 SCS Opposite-Spin Energy  =      -1.6099783242590913 [Eh]
	 SCS Correlation Energy    =      -1.7513483211688239 [Eh]
	 SCS Total Energy          =    -401.4920930154751204 [Eh]
	-----------------------------------------------------------

  Dipole Moment: [D]
     X:    -0.7950      Y:    -3.8909      Z:     0.0369     Total:     3.9715

*** Psi4 exiting successfully. Buy a developer a beer!
