                               Psi4 1.3.2 release

  ==> Input File <==

--------------------------------------------------------------------------
#psi4
#
memory 32 gb

molecule  {
0 1
  O        0.6831730     1.9514370    -0.1851230
  N        0.3221270    -0.3206750    -0.2979720
  C        1.7580560    -0.4955670    -0.5492050
  C       -0.1211040     1.0090560    -0.1118080
  C       -0.4973450    -1.4105120    -0.1972350
  C        2.5603930    -0.4317450     0.7423750
  C       -1.5005195     1.0930464     0.1438038
  C       -1.8319680    -1.2780450     0.0712850
  C       -2.3551590     0.0280850     0.2487950
  H        1.8855710    -1.4559800    -1.0561060
  H        2.0595230     0.3051280    -1.2266110
  H       -0.0197130    -2.3738180    -0.3527730
  H        2.4186300     0.5432120     1.2108420
  H        2.2423160    -1.2153800     1.4354410
  H        3.6255180    -0.5665000     0.5315230
  H       -1.9126600     2.1320090     0.2855670
  H       -2.4591310    -2.1595270     0.1391440
  H       -3.4140320     0.1624990     0.4585800
units angstrom
no_reorient  #important for SAPT in psi4, default
symmetry c1  #important for SAPT in psi4, default
}

set PROPERTIES_ORIGIN ["COM"]
properties('MP2/aug-cc-pvtz', properties = ['dipole'])
--------------------------------------------------------------------------

    Molecular point group: c1
  Charge       = 0
  Multiplicity = 1
  Basis Set: AUG-CC-PVTZ
    Blend: AUG-CC-PVTZ
  Basis Set: (AUG-CC-PVTZ AUX)
    Blend: AUG-CC-PVTZ-JKFIT

    Orbital Energies [Eh]
    ---------------------

    Doubly Occupied:

       1A    -20.503536     2A    -15.626068     3A    -11.345751
       4A    -11.309366     5A    -11.273579     6A    -11.272960
       7A    -11.240597     8A    -11.236132     9A    -11.221072
      10A     -1.368668    11A     -1.278479    12A     -1.121585
      13A     -1.032304    14A     -1.020717    15A     -0.899211
      16A     -0.867888    17A     -0.828115    18A     -0.713744
      19A     -0.703703    20A     -0.665899    21A     -0.636982
      22A     -0.614385    23A     -0.607674    24A     -0.605308
      25A     -0.563648    26A     -0.534372    27A     -0.529092
      28A     -0.521041    29A     -0.504725    30A     -0.474817
      31A     -0.422058    32A     -0.407394    33A     -0.309926

  @DF-RHF Final Energy:  -399.76758336587540

   => Energetics <=

    Nuclear Repulsion Energy =            438.3272710216448900
    One-Electron Energy =               -1411.6681157161599458
    Two-Electron Energy =                 573.5732613286395463
    Total Energy =                       -399.7675833658754527
  Basis Set: (AUG-CC-PVTZ AUX)
    Blend: AUG-CC-PVTZ-RI
    Molecular point group: c1

    Geometry (in Angstrom), charge = 0, multiplicity = 1:

       Center              X                  Y                   Z               Mass
    ------------   -----------------  -----------------  -----------------  -----------------
         O            0.715293672431     1.917066855242    -0.172766795209    15.994914619570
         N            0.354247672431    -0.355045144758    -0.285615795209    14.003074004430
         C            1.790176672431    -0.529937144758    -0.536848795209    12.000000000000
         C           -0.088983327569     0.974685855242    -0.099451795209    12.000000000000
         C           -0.465224327569    -1.444882144758    -0.184878795209    12.000000000000
         C            2.592513672431    -0.466115144758     0.754731204791    12.000000000000
         C           -1.468398827569     1.058676255242     0.156160004791    12.000000000000
         C           -1.799847327569    -1.312415144758     0.083641204791    12.000000000000
         C           -2.323038327569    -0.006285144758     0.261151204791    12.000000000000
         H            1.917691672431    -1.490350144758    -1.043749795209     1.007825032230
         H            2.091643672431     0.270757855242    -1.214254795209     1.007825032230
         H            0.012407672431    -2.408188144758    -0.340416795209     1.007825032230
         H            2.450750672431     0.508841855242     1.223198204791     1.007825032230
         H            2.274436672431    -1.249750144758     1.447797204791     1.007825032230
         H            3.657638672431    -0.600870144758     0.543879204791     1.007825032230
         H           -1.880539327569     2.097638855242     0.297923204791     1.007825032230
         H           -2.427010327569    -2.193897144758     0.151500204791     1.007825032230
         H           -3.381911327569     0.128128855242     0.470936204791     1.007825032230

  Basis Set: AUG-CC-PVTZ
    Blend: AUG-CC-PVTZ
  Basis Set: (AUG-CC-PVTZ AUX)
    Blend: AUG-CC-PVTZ-JKFIT
	 Reference Energy          =    -399.7675833658753959 [Eh]
	 Singles Energy            =      -0.0000000000000000 [Eh]
	 Same-Spin Energy          =      -0.4243242052679826 [Eh]
	 Opposite-Spin Energy      =      -1.3406247783284930 [Eh]
	 Correlation Energy        =      -1.7649489835964756 [Eh]
	 Total Energy              =    -401.5325323494718646 [Eh]

	 ================> DF-SCS-MP2 Energies <==================
	-----------------------------------------------------------
	 SCS Same-Spin Scale       =       0.3333333333333333 [-]
	 SCS Opposite-Spin Scale   =       1.2000000000000000 [-]
	 SCS Same-Spin Energy      =      -0.1414414017559942 [Eh]
	 SCS Opposite-Spin Energy  =      -1.6087497339941916 [Eh]
	 SCS Correlation Energy    =      -1.7501911357501858 [Eh]
	 SCS Total Energy          =    -401.5177745016255813 [Eh]
	-----------------------------------------------------------

  Dipole Moment: [D]
     X:    -0.8159      Y:    -3.9033      Z:     0.0389     Total:     3.9878

*** Psi4 exiting successfully. Buy a developer a beer!
