                               Psi4 1.3.2 release

  ==> Input File <==

--------------------------------------------------------------------------
#psi4
#
memory 32 gb

molecule  {
0 1
  O        0.6831730     1.9514370    -0.1851230
  N        0.3221270    -0.3206750    -0.2979720
  C        1.7580560    -0.4955670    -0.5492050
  C       -0.1175039     1.0593020    -0.1092407
  C       -0.4973450    -1.4105120    -0.1972350
  C        2.5603930    -0.4317450     0.7423750
  C       -1.5372540     1.1223260     0.1526570
  C       -1.8319680    -1.2780450     0.0712850
  C       -2.3551590     0.0280850     0.2487950
  H        1.8855710    -1.4559800    -1.0561060
  H        2.0595230     0.3051280    -1.2266110
  H       -0.0197130    -2.3738180    -0.3527730
  H        2.4186300     0.5432120     1.2108420
  H        2.2423160    -1.2153800     1.4354410
  H        3.6255180    -0.5665000     0.5315230
  H       -1.9126600     2.1320090     0.2855670
  H       -2.4591310    -2.1595270     0.1391440
  H       -3.4140320     0.1624990     0.4585800
units angstrom
no_reorient  #important for SAPT in psi4, default
symmetry c1  #important for SAPT in psi4, default
}

set PROPERTIES_ORIGIN ["COM"]
properties('MP2/aug-cc-pvtz', properties = ['dipole'])
--------------------------------------------------------------------------

    Molecular point group: c1
  Charge       = 0
  Multiplicity = 1
  Basis Set: AUG-CC-PVTZ
    Blend: AUG-CC-PVTZ
  Basis Set: (AUG-CC-PVTZ AUX)
    Blend: AUG-CC-PVTZ-JKFIT

    Orbital Energies [Eh]
    ---------------------

    Doubly Occupied:

       1A    -20.517388     2A    -15.618461     3A    -11.352299
       4A    -11.306720     5A    -11.271259     6A    -11.270383
       7A    -11.235090     8A    -11.234045     9A    -11.220275
      10A     -1.392312    11A     -1.275620    12A     -1.115431
      13A     -1.029732    14A     -1.012115    15A     -0.893750
      16A     -0.859957    17A     -0.824480    18A     -0.710296
      19A     -0.700879    20A     -0.667765    21A     -0.637338
      22A     -0.616725    23A     -0.610291    24A     -0.603832
      25A     -0.564091    26A     -0.538065    27A     -0.533524
      28A     -0.527039    29A     -0.503896    30A     -0.483487
      31A     -0.425567    32A     -0.404187    33A     -0.306196

  @DF-RHF Final Energy:  -399.76978615870604

   => Energetics <=

    Nuclear Repulsion Energy =            437.1229427829933343
    One-Electron Energy =               -1409.2604633954863402
    Two-Electron Energy =                 572.3677344537870795
    Total Energy =                       -399.7697861587059833
  Basis Set: (AUG-CC-PVTZ AUX)
    Blend: AUG-CC-PVTZ-RI
    Molecular point group: c1

    Geometry (in Angstrom), charge = 0, multiplicity = 1:

       Center              X                  Y                   Z               Mass
    ------------   -----------------  -----------------  -----------------  -----------------
         O            0.718524499801     1.909312573134    -0.173880370948    15.994914619570
         N            0.357478499801    -0.362799426866    -0.286729370948    14.003074004430
         C            1.793407499801    -0.537691426866    -0.537962370948    12.000000000000
         C           -0.082152400199     1.017177573134    -0.097998070948    12.000000000000
         C           -0.461993500199    -1.452636426866    -0.185992370948    12.000000000000
         C            2.595744499801    -0.473869426866     0.753617629052    12.000000000000
         C           -1.501902500199     1.080201573134     0.163899629052    12.000000000000
         C           -1.796616500199    -1.320169426866     0.082527629052    12.000000000000
         C           -2.319807500199    -0.014039426866     0.260037629052    12.000000000000
         H            1.920922499801    -1.498104426866    -1.044863370948     1.007825032230
         H            2.094874499801     0.263003573134    -1.215368370948     1.007825032230
         H            0.015638499801    -2.415942426866    -0.341530370948     1.007825032230
         H            2.453981499801     0.501087573134     1.222084629052     1.007825032230
         H            2.277667499801    -1.257504426866     1.446683629052     1.007825032230
         H            3.660869499801    -0.608624426866     0.542765629052     1.007825032230
         H           -1.877308500199     2.089884573134     0.296809629052     1.007825032230
         H           -2.423779500199    -2.201651426866     0.150386629052     1.007825032230
         H           -3.378680500199     0.120374573134     0.469822629052     1.007825032230

  Basis Set: AUG-CC-PVTZ
    Blend: AUG-CC-PVTZ
  Basis Set: (AUG-CC-PVTZ AUX)
    Blend: AUG-CC-PVTZ-JKFIT
	 Reference Energy          =    -399.7697861587060402 [Eh]
	 Singles Energy            =      -0.0000000000000000 [Eh]
	 Same-Spin Energy          =      -0.4231334449233637 [Eh]
	 Opposite-Spin Energy      =      -1.3390947888553681 [Eh]
	 Correlation Energy        =      -1.7622282337787318 [Eh]
	 Total Energy              =    -401.5320143924847685 [Eh]

	 ================> DF-SCS-MP2 Energies <==================
	-----------------------------------------------------------
	 SCS Same-Spin Scale       =       0.3333333333333333 [-]
	 SCS Opposite-Spin Scale   =       1.2000000000000000 [-]
	 SCS Same-Spin Energy      =      -0.1410444816411212 [Eh]
	 SCS Opposite-Spin Energy  =      -1.6069137466264418 [Eh]
	 SCS Correlation Energy    =      -1.7479582282675630 [Eh]
	 SCS Total Energy          =    -401.5177443869736180 [Eh]
	-----------------------------------------------------------

  Dipole Moment: [D]
     X:    -0.5917      Y:    -3.4542      Z:     0.0195     Total:     3.5046

*** Psi4 exiting successfully. Buy a developer a beer!
