                               Psi4 1.3.2 release

  ==> Input File <==

--------------------------------------------------------------------------
#psi4
#
memory 32 gb

molecule  {
0 1
  O        0.7453388     1.8931801    -0.2008018
  N        0.3221270    -0.3206750    -0.2979720
  C        1.7580560    -0.4955670    -0.5492050
  C       -0.1211040     1.0090560    -0.1118080
  C       -0.4973450    -1.4105120    -0.1972350
  C        2.5603930    -0.4317450     0.7423750
  C       -1.5372540     1.1223260     0.1526570
  C       -1.8319680    -1.2780450     0.0712850
  C       -2.3551590     0.0280850     0.2487950
  H        1.8855710    -1.4559800    -1.0561060
  H        2.0595230     0.3051280    -1.2266110
  H       -0.0197130    -2.3738180    -0.3527730
  H        2.4186300     0.5432120     1.2108420
  H        2.2423160    -1.2153800     1.4354410
  H        3.6255180    -0.5665000     0.5315230
  H       -1.9126600     2.1320090     0.2855670
  H       -2.4591310    -2.1595270     0.1391440
  H       -3.4140320     0.1624990     0.4585800
units angstrom
no_reorient  #important for SAPT in psi4, default
symmetry c1  #important for SAPT in psi4, default
}

set PROPERTIES_ORIGIN ["COM"]
properties('MP2/aug-cc-pvtz', properties = ['dipole'])
--------------------------------------------------------------------------

    Molecular point group: c1
  Charge       = 0
  Multiplicity = 1
  Basis Set: AUG-CC-PVTZ
    Blend: AUG-CC-PVTZ
  Basis Set: (AUG-CC-PVTZ AUX)
    Blend: AUG-CC-PVTZ-JKFIT

    Orbital Energies [Eh]
    ---------------------

    Doubly Occupied:

       1A    -20.504776     2A    -15.623155     3A    -11.349918
       4A    -11.308789     5A    -11.273083     6A    -11.271270
       7A    -11.239755     8A    -11.239095     9A    -11.219187
      10A     -1.371133    11A     -1.274562    12A     -1.119591
      13A     -1.031100    14A     -1.017322    15A     -0.895483
      16A     -0.869028    17A     -0.824501    18A     -0.714172
      19A     -0.701121    20A     -0.667430    21A     -0.639701
      22A     -0.613561    23A     -0.607922    24A     -0.602817
      25A     -0.560386    26A     -0.538254    27A     -0.528779
      28A     -0.524469    29A     -0.503575    30A     -0.473942
      31A     -0.421085    32A     -0.407483    33A     -0.309315

  @DF-RHF Final Energy:  -399.76979263184023

   => Energetics <=

    Nuclear Repulsion Energy =            438.1710984564439855
    One-Electron Energy =               -1411.3902620171436411
    Two-Electron Energy =                 573.4493709288593664
    Total Energy =                       -399.7697926318402324
  Basis Set: (AUG-CC-PVTZ AUX)
    Blend: AUG-CC-PVTZ-RI
    Molecular point group: c1

    Geometry (in Angstrom), charge = 0, multiplicity = 1:

       Center              X                  Y                   Z               Mass
    ------------   -----------------  -----------------  -----------------  -----------------
         O            0.772961789836     1.863526510230    -0.187271104836    15.994914619570
         N            0.349749989836    -0.350328589770    -0.284441304836    14.003074004430
         C            1.785678989836    -0.525220589770    -0.535674304836    12.000000000000
         C           -0.093481010164     0.979402410230    -0.098277304836    12.000000000000
         C           -0.469722010164    -1.440165589770    -0.183704304836    12.000000000000
         C            2.588015989836    -0.461398589770     0.755905695164    12.000000000000
         C           -1.509631010164     1.092672410230     0.166187695164    12.000000000000
         C           -1.804345010164    -1.307698589770     0.084815695164    12.000000000000
         C           -2.327536010164    -0.001568589770     0.262325695164    12.000000000000
         H            1.913193989836    -1.485633589770    -1.042575304836     1.007825032230
         H            2.087145989836     0.275474410230    -1.213080304836     1.007825032230
         H            0.007909989836    -2.403471589770    -0.339242304836     1.007825032230
         H            2.446252989836     0.513558410230     1.224372695164     1.007825032230
         H            2.269938989836    -1.245033589770     1.448971695164     1.007825032230
         H            3.653140989836    -0.596153589770     0.545053695164     1.007825032230
         H           -1.885037010164     2.102355410230     0.299097695164     1.007825032230
         H           -2.431508010164    -2.189180589770     0.152674695164     1.007825032230
         H           -3.386409010164     0.132845410230     0.472110695164     1.007825032230

  Basis Set: AUG-CC-PVTZ
    Blend: AUG-CC-PVTZ
  Basis Set: (AUG-CC-PVTZ AUX)
    Blend: AUG-CC-PVTZ-JKFIT
	 Reference Energy          =    -399.7697926318402324 [Eh]
	 Singles Energy            =      -0.0000000000000000 [Eh]
	 Same-Spin Energy          =      -0.4238169847096556 [Eh]
	 Opposite-Spin Energy      =      -1.3400232376600183 [Eh]
	 Correlation Energy        =      -1.7638402223696739 [Eh]
	 Total Energy              =    -401.5336328542098840 [Eh]

	 ================> DF-SCS-MP2 Energies <==================
	-----------------------------------------------------------
	 SCS Same-Spin Scale       =       0.3333333333333333 [-]
	 SCS Opposite-Spin Scale   =       1.2000000000000000 [-]
	 SCS Same-Spin Energy      =      -0.1412723282365518 [Eh]
	 SCS Opposite-Spin Energy  =      -1.6080278851920220 [Eh]
	 SCS Correlation Energy    =      -1.7493002134285738 [Eh]
	 SCS Total Energy          =    -401.5190928452688013 [Eh]
	-----------------------------------------------------------

  Dipole Moment: [D]
     X:    -0.9052      Y:    -3.7027      Z:     0.0560     Total:     3.8122

*** Psi4 exiting successfully. Buy a developer a beer!
