                               Psi4 1.3.2 release

  ==> Input File <==

--------------------------------------------------------------------------
#psi4
#
memory 32 gb

molecule  {
0 1
  O        0.6831730     1.9514370    -0.1851230
  N        0.3221270    -0.3206750    -0.2979720
  C        1.7580560    -0.4955670    -0.5492050
  C       -0.0897573     0.9150132    -0.1249741
  C       -0.4973450    -1.4105120    -0.1972350
  C        2.5603930    -0.4317450     0.7423750
  C       -1.5372540     1.1223260     0.1526570
  C       -1.8319680    -1.2780450     0.0712850
  C       -2.3551590     0.0280850     0.2487950
  H        1.8855710    -1.4559800    -1.0561060
  H        2.0595230     0.3051280    -1.2266110
  H       -0.0197130    -2.3738180    -0.3527730
  H        2.4186300     0.5432120     1.2108420
  H        2.2423160    -1.2153800     1.4354410
  H        3.6255180    -0.5665000     0.5315230
  H       -1.9126600     2.1320090     0.2855670
  H       -2.4591310    -2.1595270     0.1391440
  H       -3.4140320     0.1624990     0.4585800
units angstrom
no_reorient  #important for SAPT in psi4, default
symmetry c1  #important for SAPT in psi4, default
}

set PROPERTIES_ORIGIN ["COM"]
properties('MP2/aug-cc-pvtz', properties = ['dipole'])
--------------------------------------------------------------------------

    Molecular point group: c1
  Charge       = 0
  Multiplicity = 1
  Basis Set: AUG-CC-PVTZ
    Blend: AUG-CC-PVTZ
  Basis Set: (AUG-CC-PVTZ AUX)
    Blend: AUG-CC-PVTZ-JKFIT

    Orbital Energies [Eh]
    ---------------------

    Doubly Occupied:

       1A    -20.491059     2A    -15.634159     3A    -11.345396
       4A    -11.309522     5A    -11.278271     6A    -11.266367
       7A    -11.248720     8A    -11.245418     9A    -11.223453
      10A     -1.365361    11A     -1.270348    12A     -1.122824
      13A     -1.033003    14A     -1.028283    15A     -0.897086
      16A     -0.891456    17A     -0.820528    18A     -0.722855
      19A     -0.698461    20A     -0.669560    21A     -0.647573
      22A     -0.622997    23A     -0.612165    24A     -0.593476
      25A     -0.552826    26A     -0.542577    27A     -0.526788
      28A     -0.521996    29A     -0.509482    30A     -0.459616
      31A     -0.413788    32A     -0.406655    33A     -0.311791

  @DF-RHF Final Energy:  -399.75987764092281

   => Energetics <=

    Nuclear Repulsion Energy =            438.3260043783378137
    One-Electron Energy =               -1411.6040394359347374
    Two-Electron Energy =                 573.5181574166741711
    Total Energy =                       -399.7598776409228094
  Basis Set: (AUG-CC-PVTZ AUX)
    Blend: AUG-CC-PVTZ-RI
    Molecular point group: c1

    Geometry (in Angstrom), charge = 0, multiplicity = 1:

       Center              X                  Y                   Z               Mass
    ------------   -----------------  -----------------  -----------------  -----------------
         O            0.715819019252     1.923381703831    -0.172346258384    15.994914619570
         N            0.354773019252    -0.348730296169    -0.285195258384    14.003074004430
         C            1.790702019252    -0.523622296169    -0.536428258384    12.000000000000
         C           -0.057111280748     0.886957903831    -0.112197358384    12.000000000000
         C           -0.464698980748    -1.438567296169    -0.184458258384    12.000000000000
         C            2.593039019252    -0.459800296169     0.755151741616    12.000000000000
         C           -1.504607980748     1.094270703831     0.165433741616    12.000000000000
         C           -1.799321980748    -1.306100296169     0.084061741616    12.000000000000
         C           -2.322512980748     0.000029703831     0.261571741616    12.000000000000
         H            1.918217019252    -1.484035296169    -1.043329258384     1.007825032230
         H            2.092169019252     0.277072703831    -1.213834258384     1.007825032230
         H            0.012933019252    -2.401873296169    -0.339996258384     1.007825032230
         H            2.451276019252     0.515156703831     1.223618741616     1.007825032230
         H            2.274962019252    -1.243435296169     1.448217741616     1.007825032230
         H            3.658164019252    -0.594555296169     0.544299741616     1.007825032230
         H           -1.880013980748     2.103953703831     0.298343741616     1.007825032230
         H           -2.426484980748    -2.187582296169     0.151920741616     1.007825032230
         H           -3.381385980748     0.134443703831     0.471356741616     1.007825032230

  Basis Set: AUG-CC-PVTZ
    Blend: AUG-CC-PVTZ
  Basis Set: (AUG-CC-PVTZ AUX)
    Blend: AUG-CC-PVTZ-JKFIT
	 Reference Energy          =    -399.7598776409228094 [Eh]
	 Singles Energy            =      -0.0000000000000000 [Eh]
	 Same-Spin Energy          =      -0.4233440943936322 [Eh]
	 Opposite-Spin Energy      =      -1.3406056723792847 [Eh]
	 Correlation Energy        =      -1.7639497667729169 [Eh]
	 Total Energy              =    -401.5238274076957055 [Eh]

	 ================> DF-SCS-MP2 Energies <==================
	-----------------------------------------------------------
	 SCS Same-Spin Scale       =       0.3333333333333333 [-]
	 SCS Opposite-Spin Scale   =       1.2000000000000000 [-]
	 SCS Same-Spin Energy      =      -0.1411146981312107 [Eh]
	 SCS Opposite-Spin Energy  =      -1.6087268068551417 [Eh]
	 SCS Correlation Energy    =      -1.7498415049863525 [Eh]
	 SCS Total Energy          =    -401.5097191459091732 [Eh]
	-----------------------------------------------------------

  Dipole Moment: [D]
     X:    -0.9029      Y:    -4.3179      Z:     0.0374     Total:     4.4114

*** Psi4 exiting successfully. Buy a developer a beer!
