                               Psi4 1.3.2 release

  ==> Input File <==

--------------------------------------------------------------------------
#psi4
#
memory 32 gb

molecule  {
0 1
  O        0.6831730     1.9514370    -0.1851230
  N        0.3221270    -0.3206750    -0.2979720
  C        1.7580560    -0.4955670    -0.5492050
  C       -0.1211040     1.0090560    -0.1118080
  C       -0.4973450    -1.4105120    -0.1972350
  C        2.5603930    -0.4317450     0.7423750
  C       -1.5372540     1.1223260     0.1526570
  C       -1.8319680    -1.2780450     0.0712850
  C       -2.4275605     0.0879340     0.2665077
  H        1.8855710    -1.4559800    -1.0561060
  H        2.0595230     0.3051280    -1.2266110
  H       -0.0197130    -2.3738180    -0.3527730
  H        2.4186300     0.5432120     1.2108420
  H        2.2423160    -1.2153800     1.4354410
  H        3.6255180    -0.5665000     0.5315230
  H       -1.9126600     2.1320090     0.2855670
  H       -2.4591310    -2.1595270     0.1391440
  H       -3.4140320     0.1624990     0.4585800
units angstrom
no_reorient  #important for SAPT in psi4, default
symmetry c1  #important for SAPT in psi4, default
}

set PROPERTIES_ORIGIN ["COM"]
properties('MP2/aug-cc-pvtz', properties = ['dipole'])
--------------------------------------------------------------------------

    Molecular point group: c1
  Charge       = 0
  Multiplicity = 1
  Basis Set: AUG-CC-PVTZ
    Blend: AUG-CC-PVTZ
  Basis Set: (AUG-CC-PVTZ AUX)
    Blend: AUG-CC-PVTZ-JKFIT

    Orbital Energies [Eh]
    ---------------------

    Doubly Occupied:

       1A    -20.511147     2A    -15.621686     3A    -11.354629
       4A    -11.304383     5A    -11.273233     6A    -11.272580
       7A    -11.245106     8A    -11.241877     9A    -11.220336
      10A     -1.371193    11A     -1.276509    12A     -1.110109
      13A     -1.032480    14A     -1.013253    15A     -0.898265
      16A     -0.865540    17A     -0.830719    18A     -0.711518
      19A     -0.697630    20A     -0.678146    21A     -0.638863
      22A     -0.619678    23A     -0.607305    24A     -0.603278
      25A     -0.571398    26A     -0.532190    27A     -0.527142
      28A     -0.516899    29A     -0.503122    30A     -0.472237
      31A     -0.426179    32A     -0.403960    33A     -0.310417

  @DF-RHF Final Energy:  -399.76041144433435

   => Energetics <=

    Nuclear Repulsion Energy =            435.9431716998408319
    One-Electron Energy =               -1406.8811501877191859
    Two-Electron Energy =                 571.1775670435440588
    Total Energy =                       -399.7604114443342951
  Basis Set: (AUG-CC-PVTZ AUX)
    Blend: AUG-CC-PVTZ-RI
    Molecular point group: c1

    Geometry (in Angstrom), charge = 0, multiplicity = 1:

       Center              X                  Y                   Z               Mass
    ------------   -----------------  -----------------  -----------------  -----------------
         O            0.725935168152     1.908376215897    -0.175357149548    15.994914619570
         N            0.364889168152    -0.363735784103    -0.288206149548    14.003074004430
         C            1.800818168152    -0.538627784103    -0.539439149548    12.000000000000
         C           -0.078341831848     0.965995215897    -0.102042149548    12.000000000000
         C           -0.454582831848    -1.453572784103    -0.187469149548    12.000000000000
         C            2.603155168152    -0.474805784103     0.752140850452    12.000000000000
         C           -1.494491831848     1.079265215897     0.162422850452    12.000000000000
         C           -1.789205831848    -1.321105784103     0.081050850452    12.000000000000
         C           -2.384798331848     0.044873215897     0.276273550452    12.000000000000
         H            1.928333168152    -1.499040784103    -1.046340149548     1.007825032230
         H            2.102285168152     0.262067215897    -1.216845149548     1.007825032230
         H            0.023049168152    -2.416878784103    -0.343007149548     1.007825032230
         H            2.461392168152     0.500151215897     1.220607850452     1.007825032230
         H            2.285078168152    -1.258440784103     1.445206850452     1.007825032230
         H            3.668280168152    -0.609560784103     0.541288850452     1.007825032230
         H           -1.869897831848     2.088948215897     0.295332850452     1.007825032230
         H           -2.416368831848    -2.202587784103     0.148909850452     1.007825032230
         H           -3.371269831848     0.119438215897     0.468345850452     1.007825032230

  Basis Set: AUG-CC-PVTZ
    Blend: AUG-CC-PVTZ
  Basis Set: (AUG-CC-PVTZ AUX)
    Blend: AUG-CC-PVTZ-JKFIT
	 Reference Energy          =    -399.7604114443343519 [Eh]
	 Singles Energy            =      -0.0000000000000000 [Eh]
	 Same-Spin Energy          =      -0.4225518091316660 [Eh]
	 Opposite-Spin Energy      =      -1.3403440504051982 [Eh]
	 Correlation Energy        =      -1.7628958595368642 [Eh]
	 Total Energy              =    -401.5233073038712064 [Eh]

	 ================> DF-SCS-MP2 Energies <==================
	-----------------------------------------------------------
	 SCS Same-Spin Scale       =       0.3333333333333333 [-]
	 SCS Opposite-Spin Scale   =       1.2000000000000000 [-]
	 SCS Same-Spin Energy      =      -0.1408506030438887 [Eh]
	 SCS Opposite-Spin Energy  =      -1.6084128604862378 [Eh]
	 SCS Correlation Energy    =      -1.7492634635301265 [Eh]
	 SCS Total Energy          =    -401.5096749078644507 [Eh]
	-----------------------------------------------------------

  Dipole Moment: [D]
     X:    -0.8192      Y:    -3.6568      Z:     0.0499     Total:     3.7477

*** Psi4 exiting successfully. Buy a developer a beer!
