                               Psi4 1.3.2 release

  ==> Input File <==

--------------------------------------------------------------------------
#psi4
#
memory 32 gb

molecule  {
0 1
  O        0.6831730     1.9514370    -0.1851230
  N        0.3221270    -0.3206750    -0.2979720
  C        1.7580560    -0.4955670    -0.5492050
  C       -0.1211040     1.0090560    -0.1118080
  C       -0.4930991    -1.3629967    -0.1953279
  C        2.5603930    -0.4317450     0.7423750
  C       -1.5372540     1.1223260     0.1526570
  C       -1.8319680    -1.2780450     0.0712850
  C       -2.3551590     0.0280850     0.2487950
  H        1.8855710    -1.4559800    -1.0561060
  H        2.0595230     0.3051280    -1.2266110
  H       -0.0197130    -2.3738180    -0.3527730
  H        2.4186300     0.5432120     1.2108420
  H        2.2423160    -1.2153800     1.4354410
  H        3.6255180    -0.5665000     0.5315230
  H       -1.9126600     2.1320090     0.2855670
  H       -2.4591310    -2.1595270     0.1391440
  H       -3.4140320     0.1624990     0.4585800
units angstrom
no_reorient  #important for SAPT in psi4, default
symmetry c1  #important for SAPT in psi4, default
}

set PROPERTIES_ORIGIN ["COM"]
properties('MP2/aug-cc-pvtz', properties = ['dipole'])
--------------------------------------------------------------------------

    Molecular point group: c1
  Charge       = 0
  Multiplicity = 1
  Basis Set: AUG-CC-PVTZ
    Blend: AUG-CC-PVTZ
  Basis Set: (AUG-CC-PVTZ AUX)
    Blend: AUG-CC-PVTZ-JKFIT

    Orbital Energies [Eh]
    ---------------------

    Doubly Occupied:

       1A    -20.506358     2A    -15.628740     3A    -11.349839
       4A    -11.309637     5A    -11.276793     6A    -11.269359
       7A    -11.236815     8A    -11.233818     9A    -11.223127
      10A     -1.372671    11A     -1.289404    12A     -1.119814
      13A     -1.033522    14A     -1.017638    15A     -0.896822
      16A     -0.872190    17A     -0.828561    18A     -0.714154
      19A     -0.701945    20A     -0.662352    21A     -0.642789
      22A     -0.617905    23A     -0.608123    24A     -0.601470
      25A     -0.562661    26A     -0.539340    27A     -0.529946
      28A     -0.524442    29A     -0.508095    30A     -0.477448
      31A     -0.420591    32A     -0.410365    33A     -0.305822

  @DF-RHF Final Energy:  -399.76969807536892

   => Energetics <=

    Nuclear Repulsion Energy =            438.3770054444171933
    One-Electron Energy =               -1411.7083012601954124
    Two-Electron Energy =                 573.5615977404094110
    Total Energy =                       -399.7696980753688649
  Basis Set: (AUG-CC-PVTZ AUX)
    Blend: AUG-CC-PVTZ-RI
    Molecular point group: c1

    Geometry (in Angstrom), charge = 0, multiplicity = 1:

       Center              X                  Y                   Z               Mass
    ------------   -----------------  -----------------  -----------------  -----------------
         O            0.718461529947     1.909578834793    -0.173815996997    15.994914619570
         N            0.357415529947    -0.362533165207    -0.286664996997    14.003074004430
         C            1.793344529947    -0.537425165207    -0.537897996997    12.000000000000
         C           -0.085815470053     0.967197834793    -0.100500996997    12.000000000000
         C           -0.457810570053    -1.404854865207    -0.184020896997    12.000000000000
         C            2.595681529947    -0.473603165207     0.753682003003    12.000000000000
         C           -1.501965470053     1.080467834793     0.163964003003    12.000000000000
         C           -1.796679470053    -1.319903165207     0.082592003003    12.000000000000
         C           -2.319870470053    -0.013773165207     0.260102003003    12.000000000000
         H            1.920859529947    -1.497838165207    -1.044798996997     1.007825032230
         H            2.094811529947     0.263269834793    -1.215303996997     1.007825032230
         H            0.015575529947    -2.415676165207    -0.341465996997     1.007825032230
         H            2.453918529947     0.501353834793     1.222149003003     1.007825032230
         H            2.277604529947    -1.257238165207     1.446748003003     1.007825032230
         H            3.660806529947    -0.608358165207     0.542830003003     1.007825032230
         H           -1.877371470053     2.090150834793     0.296874003003     1.007825032230
         H           -2.423842470053    -2.201385165207     0.150451003003     1.007825032230
         H           -3.378743470053     0.120640834793     0.469887003003     1.007825032230

  Basis Set: AUG-CC-PVTZ
    Blend: AUG-CC-PVTZ
  Basis Set: (AUG-CC-PVTZ AUX)
    Blend: AUG-CC-PVTZ-JKFIT
	 Reference Energy          =    -399.7696980753689218 [Eh]
	 Singles Energy            =      -0.0000000000000000 [Eh]
	 Same-Spin Energy          =      -0.4236331133283560 [Eh]
	 Opposite-Spin Energy      =      -1.3393253977415618 [Eh]
	 Correlation Energy        =      -1.7629585110699177 [Eh]
	 Total Energy              =    -401.5326565864388613 [Eh]

	 ================> DF-SCS-MP2 Energies <==================
	-----------------------------------------------------------
	 SCS Same-Spin Scale       =       0.3333333333333333 [-]
	 SCS Opposite-Spin Scale   =       1.2000000000000000 [-]
	 SCS Same-Spin Energy      =      -0.1412110377761187 [Eh]
	 SCS Opposite-Spin Energy  =      -1.6071904772898742 [Eh]
	 SCS Correlation Energy    =      -1.7484015150659928 [Eh]
	 SCS Total Energy          =    -401.5180995904349288 [Eh]
	-----------------------------------------------------------

  Dipole Moment: [D]
     X:    -0.6242      Y:    -3.7877      Z:     0.0193     Total:     3.8389

*** Psi4 exiting successfully. Buy a developer a beer!
