                               Psi4 1.4a3.dev225

  ==> Input File <==

--------------------------------------------------------------------------
#psi4
#
memory 32 gb

molecule  {
0 1
  O        0.6831730     1.9514370    -0.1851230
  N        0.3221270    -0.3206750    -0.2979720
  C        1.7580560    -0.4955670    -0.5492050
  C       -0.1211040     1.0090560    -0.1118080
  C       -0.4973450    -1.4105120    -0.1972350
  C        2.5603930    -0.4317450     0.7423750
  C       -1.5372540     1.1223260     0.1526570
  C       -1.8319680    -1.2780450     0.0712850
  C       -2.3671034     0.0121050     0.2501990
  H        1.8855710    -1.4559800    -1.0561060
  H        2.0595230     0.3051280    -1.2266110
  H       -0.0197130    -2.3738180    -0.3527730
  H        2.4186300     0.5432120     1.2108420
  H        2.2423160    -1.2153800     1.4354410
  H        3.6255180    -0.5665000     0.5315230
  H       -1.9126600     2.1320090     0.2855670
  H       -2.4591310    -2.1595270     0.1391440
  H       -3.4140320     0.1624990     0.4585800
units angstrom
no_reorient  #important for SAPT in psi4, default
symmetry c1  #important for SAPT in psi4, default
}

set PROPERTIES_ORIGIN ["COM"]
properties('MP2/aug-cc-pvtz', properties = ['dipole'])
--------------------------------------------------------------------------

    Molecular point group: c1
  Charge       = 0
  Multiplicity = 1
  Basis Set: AUG-CC-PVTZ
    Blend: AUG-CC-PVTZ
  Basis Set: (AUG-CC-PVTZ AUX)
    Blend: AUG-CC-PVTZ-JKFIT

    Orbital Energies [Eh]
    ---------------------

    Doubly Occupied:

       1A    -20.504866     2A    -15.626648     3A    -11.349059
       4A    -11.310030     5A    -11.274089     6A    -11.271823
       7A    -11.240074     8A    -11.238534     9A    -11.221315
      10A     -1.368348    11A     -1.278398    12A     -1.118507
      13A     -1.029703    14A     -1.018517    15A     -0.897126
      16A     -0.869985    17A     -0.825483    18A     -0.714979
      19A     -0.699875    20A     -0.668539    21A     -0.639733
      22A     -0.614213    23A     -0.607528    24A     -0.604761
      25A     -0.560211    26A     -0.538314    27A     -0.530321
      28A     -0.526430    29A     -0.505666    30A     -0.475188
      31A     -0.420451    32A     -0.406166    33A     -0.307270

  @DF-RHF Final Energy:  -399.77003408351192

   => Energetics <=

    Nuclear Repulsion Energy =            437.2123462221396153
    One-Electron Energy =               -1409.4404568547192866
    Two-Electron Energy =                 572.4580765490677550
    Total Energy =                       -399.7700340835119732
  Basis Set: (AUG-CC-PVTZ AUX)
    Blend: AUG-CC-PVTZ-RI
    Molecular point group: c1

    Geometry (in Angstrom), charge = 0, multiplicity = 1:

       Center              X                  Y                   Z               Mass
    ------------   -----------------  -----------------  -----------------  -----------------
         O            0.720040193341     1.915770054585    -0.173766941356    15.994914619570
         N            0.358994193341    -0.356341945415    -0.286615941356    14.003074004430
         C            1.794923193341    -0.531233945415    -0.537848941356    12.000000000000
         C           -0.084236806659     0.973389054585    -0.100451941356    12.000000000000
         C           -0.460477806659    -1.446178945415    -0.185878941356    12.000000000000
         C            2.597260193341    -0.467411945415     0.753731058644    12.000000000000
         C           -1.500386806659     1.086659054585     0.164013058644    12.000000000000
         C           -1.795100806659    -1.313711945415     0.082641058644    12.000000000000
         C           -2.330236206659    -0.023561945415     0.261555058644    12.000000000000
         H            1.922438193341    -1.491646945415    -1.044749941356     1.007825032230
         H            2.096390193341     0.269461054585    -1.215254941356     1.007825032230
         H            0.017154193341    -2.409484945415    -0.341416941356     1.007825032230
         H            2.455497193341     0.507545054585     1.222198058644     1.007825032230
         H            2.279183193341    -1.251046945415     1.446797058644     1.007825032230
         H            3.662385193341    -0.602166945415     0.542879058644     1.007825032230
         H           -1.875792806659     2.096342054585     0.296923058644     1.007825032230
         H           -2.422263806659    -2.195193945415     0.150500058644     1.007825032230
         H           -3.377164806659     0.126832054585     0.469936058644     1.007825032230

  Basis Set: AUG-CC-PVTZ
    Blend: AUG-CC-PVTZ
  Basis Set: (AUG-CC-PVTZ AUX)
    Blend: AUG-CC-PVTZ-JKFIT
	 Reference Energy          =    -399.7700340835119164 [Eh]
	 Singles Energy            =      -0.0000000000000000 [Eh]
	 Same-Spin Energy          =      -0.4238966582178858 [Eh]
	 Opposite-Spin Energy      =      -1.3403504468599192 [Eh]
	 Correlation Energy        =      -1.7642471050778050 [Eh]
	 Total Energy              =    -401.5342811885897163 [Eh]

	 ================> DF-SCS-MP2 Energies <==================
	-----------------------------------------------------------
	 SCS Same-Spin Scale       =       0.3333333333333333 [-]
	 SCS Opposite-Spin Scale   =       1.2000000000000000 [-]
	 SCS Same-Spin Energy      =      -0.1412988860726286 [Eh]
	 SCS Opposite-Spin Energy  =      -1.6084205362319031 [Eh]
	 SCS Correlation Energy    =      -1.7497194223045316 [Eh]
	 SCS Total Energy          =    -401.5197535058164249 [Eh]
	-----------------------------------------------------------

  Dipole Moment: [D]
     X:    -0.7589      Y:    -3.8423      Z:     0.0323     Total:     3.9166

*** Psi4 exiting successfully. Buy a developer a beer!
