                               Psi4 1.3.2 release

  ==> Input File <==

--------------------------------------------------------------------------
#psi4
#
memory 32 gb

molecule  {
0 1
  O        0.6831730     1.9514370    -0.1851230
  N        0.3586250    -0.3500143    -0.3071758
  C        1.7580560    -0.4955670    -0.5492050
  C       -0.1211040     1.0090560    -0.1118080
  C       -0.4973450    -1.4105120    -0.1972350
  C        2.5603930    -0.4317450     0.7423750
  C       -1.5372540     1.1223260     0.1526570
  C       -1.8319680    -1.2780450     0.0712850
  C       -2.3551590     0.0280850     0.2487950
  H        1.8855710    -1.4559800    -1.0561060
  H        2.0595230     0.3051280    -1.2266110
  H       -0.0197130    -2.3738180    -0.3527730
  H        2.4186300     0.5432120     1.2108420
  H        2.2423160    -1.2153800     1.4354410
  H        3.6255180    -0.5665000     0.5315230
  H       -1.9126600     2.1320090     0.2855670
  H       -2.4591310    -2.1595270     0.1391440
  H       -3.4140320     0.1624990     0.4585800
units angstrom
no_reorient  #important for SAPT in psi4, default
symmetry c1  #important for SAPT in psi4, default
}

set PROPERTIES_ORIGIN ["COM"]
properties('MP2/aug-cc-pvtz', properties = ['dipole'])
--------------------------------------------------------------------------

    Molecular point group: c1
  Charge       = 0
  Multiplicity = 1
  Basis Set: AUG-CC-PVTZ
    Blend: AUG-CC-PVTZ
  Basis Set: (AUG-CC-PVTZ AUX)
    Blend: AUG-CC-PVTZ-JKFIT

    Orbital Energies [Eh]
    ---------------------

    Doubly Occupied:

       1A    -20.511291     2A    -15.625038     3A    -11.354810
       4A    -11.309872     5A    -11.272429     6A    -11.270118
       7A    -11.239400     8A    -11.237639     9A    -11.219756
      10A     -1.369100    11A     -1.280688    12A     -1.122432
      13A     -1.032543    14A     -1.012404    15A     -0.899632
      16A     -0.864400    17A     -0.826392    18A     -0.712740
      19A     -0.701808    20A     -0.670060    21A     -0.641453
      22A     -0.614987    23A     -0.607000    24A     -0.603081
      25A     -0.562000    26A     -0.537212    27A     -0.532630
      28A     -0.527674    29A     -0.503650    30A     -0.476186
      31A     -0.422871    32A     -0.407005    33A     -0.307560

  @DF-RHF Final Energy:  -399.76782860090412

   => Energetics <=

    Nuclear Repulsion Energy =            437.1027994043001854
    One-Electron Energy =               -1409.1895385198931763
    Two-Electron Energy =                 572.3189105146889233
    Total Energy =                       -399.7678286009040676
  Basis Set: (AUG-CC-PVTZ AUX)
    Blend: AUG-CC-PVTZ-RI
    Molecular point group: c1

    Geometry (in Angstrom), charge = 0, multiplicity = 1:

       Center              X                  Y                   Z               Mass
    ------------   -----------------  -----------------  -----------------  -----------------
         O            0.714722687621     1.917550205821    -0.172582807362    15.994914619570
         N            0.390174687621    -0.383901094179    -0.294635607362    14.003074004430
         C            1.789605687621    -0.529453794179    -0.536664807362    12.000000000000
         C           -0.089554312379     0.975169205821    -0.099267807362    12.000000000000
         C           -0.465795312379    -1.444398794179    -0.184694807362    12.000000000000
         C            2.591942687621    -0.465631794179     0.754915192638    12.000000000000
         C           -1.505704312379     1.088439205821     0.165197192638    12.000000000000
         C           -1.800418312379    -1.311931794179     0.083825192638    12.000000000000
         C           -2.323609312379    -0.005801794179     0.261335192638    12.000000000000
         H            1.917120687621    -1.489866794179    -1.043565807362     1.007825032230
         H            2.091072687621     0.271241205821    -1.214070807362     1.007825032230
         H            0.011836687621    -2.407704794179    -0.340232807362     1.007825032230
         H            2.450179687621     0.509325205821     1.223382192638     1.007825032230
         H            2.273865687621    -1.249266794179     1.447981192638     1.007825032230
         H            3.657067687621    -0.600386794179     0.544063192638     1.007825032230
         H           -1.881110312379     2.098122205821     0.298107192638     1.007825032230
         H           -2.427581312379    -2.193413794179     0.151684192638     1.007825032230
         H           -3.382482312379     0.128612205821     0.471120192638     1.007825032230

  Basis Set: AUG-CC-PVTZ
    Blend: AUG-CC-PVTZ
  Basis Set: (AUG-CC-PVTZ AUX)
    Blend: AUG-CC-PVTZ-JKFIT
	 Reference Energy          =    -399.7678286009041244 [Eh]
	 Singles Energy            =      -0.0000000000000000 [Eh]
	 Same-Spin Energy          =      -0.4238968686599240 [Eh]
	 Opposite-Spin Energy      =      -1.3405471479162290 [Eh]
	 Correlation Energy        =      -1.7644440165761530 [Eh]
	 Total Energy              =    -401.5322726174802597 [Eh]

	 ================> DF-SCS-MP2 Energies <==================
	-----------------------------------------------------------
	 SCS Same-Spin Scale       =       0.3333333333333333 [-]
	 SCS Opposite-Spin Scale   =       1.2000000000000000 [-]
	 SCS Same-Spin Energy      =      -0.1412989562199747 [Eh]
	 SCS Opposite-Spin Energy  =      -1.6086565774994748 [Eh]
	 SCS Correlation Energy    =      -1.7499555337194495 [Eh]
	 SCS Total Energy          =    -401.5177841346235823 [Eh]
	-----------------------------------------------------------

  Dipole Moment: [D]
     X:    -0.7816      Y:    -3.6563      Z:     0.0394     Total:     3.7391

*** Psi4 exiting successfully. Buy a developer a beer!
