                               Psi4 1.3.2 release

  ==> Input File <==

--------------------------------------------------------------------------
#psi4
#
memory 32 gb

molecule  {
0 1
  O        0.6831730     1.9514370    -0.1851230
  N        0.3034575    -0.3064886    -0.2935404
  C        1.7580560    -0.4955670    -0.5492050
  C       -0.1211040     1.0090560    -0.1118080
  C       -0.4973450    -1.4105120    -0.1972350
  C        2.5603930    -0.4317450     0.7423750
  C       -1.5372540     1.1223260     0.1526570
  C       -1.8319680    -1.2780450     0.0712850
  C       -2.3551590     0.0280850     0.2487950
  H        1.8855710    -1.4559800    -1.0561060
  H        2.0595230     0.3051280    -1.2266110
  H       -0.0197130    -2.3738180    -0.3527730
  H        2.4186300     0.5432120     1.2108420
  H        2.2423160    -1.2153800     1.4354410
  H        3.6255180    -0.5665000     0.5315230
  H       -1.9126600     2.1320090     0.2855670
  H       -2.4591310    -2.1595270     0.1391440
  H       -3.4140320     0.1624990     0.4585800
units angstrom
no_reorient  #important for SAPT in psi4, default
symmetry c1  #important for SAPT in psi4, default
}

set PROPERTIES_ORIGIN ["COM"]
properties('MP2/aug-cc-pvtz', properties = ['dipole'])
--------------------------------------------------------------------------

    Molecular point group: c1
  Charge       = 0
  Multiplicity = 1
  Basis Set: AUG-CC-PVTZ
    Blend: AUG-CC-PVTZ
  Basis Set: (AUG-CC-PVTZ AUX)
    Blend: AUG-CC-PVTZ-JKFIT

    Orbital Energies [Eh]
    ---------------------

    Doubly Occupied:

       1A    -20.503686     2A    -15.625573     3A    -11.347265
       4A    -11.308385     5A    -11.275669     6A    -11.269640
       7A    -11.240555     8A    -11.236787     9A    -11.221831
      10A     -1.369181    11A     -1.277472    12A     -1.117440
      13A     -1.030971    14A     -1.020932    15A     -0.893663
      16A     -0.873132    17A     -0.824218    18A     -0.715543
      19A     -0.699657    20A     -0.666299    21A     -0.639256
      22A     -0.613406    23A     -0.608595    24A     -0.605178
      25A     -0.559987    26A     -0.539134    27A     -0.529178
      28A     -0.523514    29A     -0.506421    30A     -0.474215
      31A     -0.419998    32A     -0.407928    33A     -0.309399

  @DF-RHF Final Energy:  -399.77135075343028

   => Energetics <=

    Nuclear Repulsion Energy =            437.6105488237525947
    One-Electron Energy =               -1410.2555853428823411
    Two-Electron Energy =                 572.8736857656994061
    Total Energy =                       -399.7713507534302835
  Basis Set: (AUG-CC-PVTZ AUX)
    Blend: AUG-CC-PVTZ-RI
    Molecular point group: c1

    Geometry (in Angstrom), charge = 0, multiplicity = 1:

       Center              X                  Y                   Z               Mass
    ------------   -----------------  -----------------  -----------------  -----------------
         O            0.720999802606     1.912597727936    -0.174134281938    15.994914619570
         N            0.341284302606    -0.345327872064    -0.282551681938    14.003074004430
         C            1.795882802606    -0.534406272064    -0.538216281938    12.000000000000
         C           -0.083277197394     0.970216727936    -0.100819281938    12.000000000000
         C           -0.459518197394    -1.449351272064    -0.186246281938    12.000000000000
         C            2.598219802606    -0.470584272064     0.753363718062    12.000000000000
         C           -1.499427197394     1.083486727936     0.163645718062    12.000000000000
         C           -1.794141197394    -1.316884272064     0.082273718062    12.000000000000
         C           -2.317332197394    -0.010754272064     0.259783718062    12.000000000000
         H            1.923397802606    -1.494819272064    -1.045117281938     1.007825032230
         H            2.097349802606     0.266288727936    -1.215622281938     1.007825032230
         H            0.018113802606    -2.412657272064    -0.341784281938     1.007825032230
         H            2.456456802606     0.504372727936     1.221830718062     1.007825032230
         H            2.280142802606    -1.254219272064     1.446429718062     1.007825032230
         H            3.663344802606    -0.605339272064     0.542511718062     1.007825032230
         H           -1.874833197394     2.093169727936     0.296555718062     1.007825032230
         H           -2.421304197394    -2.198366272064     0.150132718062     1.007825032230
         H           -3.376205197394     0.123659727936     0.469568718062     1.007825032230

  Basis Set: AUG-CC-PVTZ
    Blend: AUG-CC-PVTZ
  Basis Set: (AUG-CC-PVTZ AUX)
    Blend: AUG-CC-PVTZ-JKFIT
	 Reference Energy          =    -399.7713507534302835 [Eh]
	 Singles Energy            =      -0.0000000000000000 [Eh]
	 Same-Spin Energy          =      -0.4233262826210062 [Eh]
	 Opposite-Spin Energy      =      -1.3396702194237955 [Eh]
	 Correlation Energy        =      -1.7629965020448017 [Eh]
	 Total Energy              =    -401.5343472554750974 [Eh]

	 ================> DF-SCS-MP2 Energies <==================
	-----------------------------------------------------------
	 SCS Same-Spin Scale       =       0.3333333333333333 [-]
	 SCS Opposite-Spin Scale   =       1.2000000000000000 [-]
	 SCS Same-Spin Energy      =      -0.1411087608736687 [Eh]
	 SCS Opposite-Spin Energy  =      -1.6076042633085545 [Eh]
	 SCS Correlation Energy    =      -1.7487130241822233 [Eh]
	 SCS Total Energy          =    -401.5200637776125063 [Eh]
	-----------------------------------------------------------

  Dipole Moment: [D]
     X:    -0.7453      Y:    -3.8905      Z:     0.0287     Total:     3.9613

*** Psi4 exiting successfully. Buy a developer a beer!
