                               Psi4 1.3.2 release

  ==> Input File <==

--------------------------------------------------------------------------
#psi4
#
memory 32 gb

molecule  {
0 1
  O        0.6831730     1.9514370    -0.1851230
  N        0.3940801    -0.3806457    -0.3162457
  C        1.7580560    -0.4955670    -0.5492050
  C       -0.1211040     1.0090560    -0.1118080
  C       -0.4973450    -1.4105120    -0.1972350
  C        2.5603930    -0.4317450     0.7423750
  C       -1.5372540     1.1223260     0.1526570
  C       -1.8319680    -1.2780450     0.0712850
  C       -2.3551590     0.0280850     0.2487950
  H        1.8855710    -1.4559800    -1.0561060
  H        2.0595230     0.3051280    -1.2266110
  H       -0.0197130    -2.3738180    -0.3527730
  H        2.4186300     0.5432120     1.2108420
  H        2.2423160    -1.2153800     1.4354410
  H        3.6255180    -0.5665000     0.5315230
  H       -1.9126600     2.1320090     0.2855670
  H       -2.4591310    -2.1595270     0.1391440
  H       -3.4140320     0.1624990     0.4585800
units angstrom
no_reorient  #important for SAPT in psi4, default
symmetry c1  #important for SAPT in psi4, default
}

set PROPERTIES_ORIGIN ["COM"]
properties('MP2/aug-cc-pvtz', properties = ['dipole'])
--------------------------------------------------------------------------

    Molecular point group: c1
  Charge       = 0
  Multiplicity = 1
  Basis Set: AUG-CC-PVTZ
    Blend: AUG-CC-PVTZ
  Basis Set: (AUG-CC-PVTZ AUX)
    Blend: AUG-CC-PVTZ-JKFIT

    Orbital Energies [Eh]
    ---------------------

    Doubly Occupied:

       1A    -20.516342     2A    -15.624313     3A    -11.359405
       4A    -11.311135     5A    -11.274167     6A    -11.266594
       7A    -11.238828     8A    -11.238250     9A    -11.218432
      10A     -1.369657    11A     -1.284206    12A     -1.125706
      13A     -1.034107    14A     -1.007429    15A     -0.903761
      16A     -0.858143    17A     -0.828203    18A     -0.712400
      19A     -0.702673    20A     -0.673117    21A     -0.642935
      22A     -0.616191    23A     -0.607909    24A     -0.599277
      25A     -0.564150    26A     -0.536605    27A     -0.534650
      28A     -0.528418    29A     -0.501541    30A     -0.477247
      31A     -0.423656    32A     -0.405888    33A     -0.306406

  @DF-RHF Final Energy:  -399.75881113256895

   => Energetics <=

    Nuclear Repulsion Energy =            436.7977972718687738
    One-Electron Energy =               -1408.5297405322485247
    Two-Electron Energy =                 571.9731321278106861
    Total Energy =                       -399.7588111325690079
  Basis Set: (AUG-CC-PVTZ AUX)
    Blend: AUG-CC-PVTZ-RI
    Molecular point group: c1

    Geometry (in Angstrom), charge = 0, multiplicity = 1:

       Center              X                  Y                   Z               Mass
    ------------   -----------------  -----------------  -----------------  -----------------
         O            0.710688505548     1.921035533594    -0.171550808355    15.994914619570
         N            0.421595605548    -0.411047166406    -0.302673508355    14.003074004430
         C            1.785571505548    -0.525968466406    -0.535632808355    12.000000000000
         C           -0.093588494452     0.978654533594    -0.098235808355    12.000000000000
         C           -0.469829494452    -1.440913466406    -0.183662808355    12.000000000000
         C            2.587908505548    -0.462146466406     0.755947191645    12.000000000000
         C           -1.509738494452     1.091924533594     0.166229191645    12.000000000000
         C           -1.804452494452    -1.308446466406     0.084857191645    12.000000000000
         C           -2.327643494452    -0.002316466406     0.262367191645    12.000000000000
         H            1.913086505548    -1.486381466406    -1.042533808355     1.007825032230
         H            2.087038505548     0.274726533594    -1.213038808355     1.007825032230
         H            0.007802505548    -2.404219466406    -0.339200808355     1.007825032230
         H            2.446145505548     0.512810533594     1.224414191645     1.007825032230
         H            2.269831505548    -1.245781466406     1.449013191645     1.007825032230
         H            3.653033505548    -0.596901466406     0.545095191645     1.007825032230
         H           -1.885144494452     2.101607533594     0.299139191645     1.007825032230
         H           -2.431615494452    -2.189928466406     0.152716191645     1.007825032230
         H           -3.386516494452     0.132097533594     0.472152191645     1.007825032230

  Basis Set: AUG-CC-PVTZ
    Blend: AUG-CC-PVTZ
  Basis Set: (AUG-CC-PVTZ AUX)
    Blend: AUG-CC-PVTZ-JKFIT
	 Reference Energy          =    -399.7588111325689511 [Eh]
	 Singles Energy            =      -0.0000000000000000 [Eh]
	 Same-Spin Energy          =      -0.4245941519807114 [Eh]
	 Opposite-Spin Energy      =      -1.3417514469984484 [Eh]
	 Correlation Energy        =      -1.7663455989791599 [Eh]
	 Total Energy              =    -401.5251567315481225 [Eh]

	 ================> DF-SCS-MP2 Energies <==================
	-----------------------------------------------------------
	 SCS Same-Spin Scale       =       0.3333333333333333 [-]
	 SCS Opposite-Spin Scale   =       1.2000000000000000 [-]
	 SCS Same-Spin Energy      =      -0.1415313839935705 [Eh]
	 SCS Opposite-Spin Energy  =      -1.6101017363981380 [Eh]
	 SCS Correlation Energy    =      -1.7516331203917086 [Eh]
	 SCS Total Energy          =    -401.5104442529606672 [Eh]
	-----------------------------------------------------------

  Dipole Moment: [D]
     X:    -0.8002      Y:    -3.4988      Z:     0.0475     Total:     3.5894

*** Psi4 exiting successfully. Buy a developer a beer!
