                               Psi4 1.3.2 release

  ==> Input File <==

--------------------------------------------------------------------------
#psi4
#
memory 32 gb

molecule  {
0 1
  O        0.6831730     1.9514370    -0.1851230
  N        0.3221270    -0.3206750    -0.2979720
  C        1.7580560    -0.4955670    -0.5492050
  C       -0.1211040     1.0090560    -0.1118080
  C       -0.5572799    -1.4902210    -0.1898673
  C        2.5603930    -0.4317450     0.7423750
  C       -1.5372540     1.1223260     0.1526570
  C       -1.8319680    -1.2780450     0.0712850
  C       -2.3551590     0.0280850     0.2487950
  H        1.8855710    -1.4559800    -1.0561060
  H        2.0595230     0.3051280    -1.2266110
  H       -0.0197130    -2.3738180    -0.3527730
  H        2.4186300     0.5432120     1.2108420
  H        2.2423160    -1.2153800     1.4354410
  H        3.6255180    -0.5665000     0.5315230
  H       -1.9126600     2.1320090     0.2855670
  H       -2.4591310    -2.1595270     0.1391440
  H       -3.4140320     0.1624990     0.4585800
units angstrom
no_reorient  #important for SAPT in psi4, default
symmetry c1  #important for SAPT in psi4, default
}

set PROPERTIES_ORIGIN ["COM"]
properties('MP2/aug-cc-pvtz', properties = ['dipole'])
--------------------------------------------------------------------------

    Molecular point group: c1
  Charge       = 0
  Multiplicity = 1
  Basis Set: AUG-CC-PVTZ
    Blend: AUG-CC-PVTZ
  Basis Set: (AUG-CC-PVTZ AUX)
    Blend: AUG-CC-PVTZ-JKFIT

    Orbital Energies [Eh]
    ---------------------

    Doubly Occupied:

       1A    -20.506297     2A    -15.614020     3A    -11.348687
       4A    -11.303731     5A    -11.273674     6A    -11.267415
       7A    -11.244776     8A    -11.242877     9A    -11.216277
      10A     -1.363367    11A     -1.253164    12A     -1.123153
      13A     -1.036356    14A     -1.014187    15A     -0.894957
      16A     -0.863507    17A     -0.817397    18A     -0.713777
      19A     -0.697794    20A     -0.675914    21A     -0.630519
      22A     -0.615983    23A     -0.604442    24A     -0.601605
      25A     -0.557952    26A     -0.540855    27A     -0.525962
      28A     -0.520449    29A     -0.499523    30A     -0.474621
      31A     -0.420679    32A     -0.399509    33A     -0.321926

  @DF-RHF Final Energy:  -399.76039789347442

   => Energetics <=

    Nuclear Repulsion Energy =            435.9337625705726964
    One-Electron Energy =               -1407.0176128866760337
    Two-Electron Energy =                 571.3234524226288613
    Total Energy =                       -399.7603978934744191
  Basis Set: (AUG-CC-PVTZ AUX)
    Blend: AUG-CC-PVTZ-RI
    Molecular point group: c1

    Geometry (in Angstrom), charge = 0, multiplicity = 1:

       Center              X                  Y                   Z               Mass
    ------------   -----------------  -----------------  -----------------  -----------------
         O            0.724719590611     1.921984061702    -0.174348442309    15.994914619570
         N            0.363673590611    -0.350127938298    -0.287197442309    14.003074004430
         C            1.799602590611    -0.525019938298    -0.538430442309    12.000000000000
         C           -0.079557409389     0.979603061702    -0.101033442309    12.000000000000
         C           -0.515733309389    -1.519673938298    -0.179092742309    12.000000000000
         C            2.601939590611    -0.461197938298     0.753149557691    12.000000000000
         C           -1.495707409389     1.092873061702     0.163431557691    12.000000000000
         C           -1.790421409389    -1.307497938298     0.082059557691    12.000000000000
         C           -2.313612409389    -0.001367938298     0.259569557691    12.000000000000
         H            1.927117590611    -1.485432938298    -1.045331442309     1.007825032230
         H            2.101069590611     0.275675061702    -1.215836442309     1.007825032230
         H            0.021833590611    -2.403270938298    -0.341998442309     1.007825032230
         H            2.460176590611     0.513759061702     1.221616557691     1.007825032230
         H            2.283862590611    -1.244832938298     1.446215557691     1.007825032230
         H            3.667064590611    -0.595952938298     0.542297557691     1.007825032230
         H           -1.871113409389     2.102556061702     0.296341557691     1.007825032230
         H           -2.417584409389    -2.188979938298     0.149918557691     1.007825032230
         H           -3.372485409389     0.133046061702     0.469354557691     1.007825032230

  Basis Set: AUG-CC-PVTZ
    Blend: AUG-CC-PVTZ
  Basis Set: (AUG-CC-PVTZ AUX)
    Blend: AUG-CC-PVTZ-JKFIT
	 Reference Energy          =    -399.7603978934744191 [Eh]
	 Singles Energy            =      -0.0000000000000000 [Eh]
	 Same-Spin Energy          =      -0.4224112840285350 [Eh]
	 Opposite-Spin Energy      =      -1.3405369445634132 [Eh]
	 Correlation Energy        =      -1.7629482285919482 [Eh]
	 Total Energy              =    -401.5233461220663571 [Eh]

	 ================> DF-SCS-MP2 Energies <==================
	-----------------------------------------------------------
	 SCS Same-Spin Scale       =       0.3333333333333333 [-]
	 SCS Opposite-Spin Scale   =       1.2000000000000000 [-]
	 SCS Same-Spin Energy      =      -0.1408037613428450 [Eh]
	 SCS Opposite-Spin Energy  =      -1.6086443334760958 [Eh]
	 SCS Correlation Energy    =      -1.7494480948189408 [Eh]
	 SCS Total Energy          =    -401.5098459882933639 [Eh]
	-----------------------------------------------------------

  Dipole Moment: [D]
     X:    -1.1062      Y:    -3.8549      Z:     0.0721     Total:     4.0111

*** Psi4 exiting successfully. Buy a developer a beer!
