                               Psi4 1.3.2 release

  ==> Input File <==

--------------------------------------------------------------------------
#psi4
#
memory 32 gb

molecule  {
0 1
  O        0.6831730     1.9514370    -0.1851230
  N        0.3221270    -0.3206750    -0.2979720
  C        1.7580560    -0.4955670    -0.5492050
  C       -0.1211040     1.0090560    -0.1118080
  C       -0.4973450    -1.4105120    -0.1972350
  C        2.5603930    -0.4317450     0.7423750
  C       -1.5372540     1.1223260     0.1526570
  C       -1.8319680    -1.2780450     0.0712850
  C       -2.2954368     0.1079848     0.2417751
  H        1.8855710    -1.4559800    -1.0561060
  H        2.0595230     0.3051280    -1.2266110
  H       -0.0197130    -2.3738180    -0.3527730
  H        2.4186300     0.5432120     1.2108420
  H        2.2423160    -1.2153800     1.4354410
  H        3.6255180    -0.5665000     0.5315230
  H       -1.9126600     2.1320090     0.2855670
  H       -2.4591310    -2.1595270     0.1391440
  H       -3.4140320     0.1624990     0.4585800
units angstrom
no_reorient  #important for SAPT in psi4, default
symmetry c1  #important for SAPT in psi4, default
}

set PROPERTIES_ORIGIN ["COM"]
properties('MP2/aug-cc-pvtz', properties = ['dipole'])
--------------------------------------------------------------------------

    Molecular point group: c1
  Charge       = 0
  Multiplicity = 1
  Basis Set: AUG-CC-PVTZ
    Blend: AUG-CC-PVTZ
  Basis Set: (AUG-CC-PVTZ AUX)
    Blend: AUG-CC-PVTZ-JKFIT

    Orbital Energies [Eh]
    ---------------------

    Doubly Occupied:

       1A    -20.512766     2A    -15.620293     3A    -11.353643
       4A    -11.303409     5A    -11.272597     6A    -11.263534
       7A    -11.240880     8A    -11.227837     9A    -11.220383
      10A     -1.372474    11A     -1.277966    12A     -1.126971
      13A     -1.040310    14A     -1.013953    15A     -0.889801
      16A     -0.870593    17A     -0.821994    18A     -0.712909
      19A     -0.703634    20A     -0.661697    21A     -0.641455
      22A     -0.616323    23A     -0.607078    24A     -0.605211
      25A     -0.566847    26A     -0.537280    27A     -0.528195
      28A     -0.512602    29A     -0.505101    30A     -0.473838
      31A     -0.423536    32A     -0.418840    33A     -0.314962

  @DF-RHF Final Energy:  -399.76079990342009

   => Energetics <=

    Nuclear Repulsion Energy =            438.6402732680156760
    One-Electron Energy =               -1412.2843167115290726
    Two-Electron Energy =                 573.8832435400933036
    Total Energy =                       -399.7607999034200930
  Basis Set: (AUG-CC-PVTZ AUX)
    Blend: AUG-CC-PVTZ-RI
    Molecular point group: c1

    Geometry (in Angstrom), charge = 0, multiplicity = 1:

       Center              X                  Y                   Z               Mass
    ------------   -----------------  -----------------  -----------------  -----------------
         O            0.713052216714     1.906421127729    -0.172945554318    15.994914619570
         N            0.352006216714    -0.365690872271    -0.285794554318    14.003074004430
         C            1.787935216714    -0.540582872271    -0.537027554318    12.000000000000
         C           -0.091224783286     0.964040127729    -0.099630554318    12.000000000000
         C           -0.467465783286    -1.455527872271    -0.185057554318    12.000000000000
         C            2.590272216714    -0.476760872271     0.754552445682    12.000000000000
         C           -1.507374783286     1.077310127729     0.164834445682    12.000000000000
         C           -1.802088783286    -1.323060872271     0.083462445682    12.000000000000
         C           -2.265557583286     0.062968927729     0.253952545682    12.000000000000
         H            1.915450216714    -1.500995872271    -1.043928554318     1.007825032230
         H            2.089402216714     0.260112127729    -1.214433554318     1.007825032230
         H            0.010166216714    -2.418833872271    -0.340595554318     1.007825032230
         H            2.448509216714     0.498196127729     1.223019445682     1.007825032230
         H            2.272195216714    -1.260395872271     1.447618445682     1.007825032230
         H            3.655397216714    -0.611515872271     0.543700445682     1.007825032230
         H           -1.882780783286     2.086993127729     0.297744445682     1.007825032230
         H           -2.429251783286    -2.204542872271     0.151321445682     1.007825032230
         H           -3.384152783286     0.117483127729     0.470757445682     1.007825032230

  Basis Set: AUG-CC-PVTZ
    Blend: AUG-CC-PVTZ
  Basis Set: (AUG-CC-PVTZ AUX)
    Blend: AUG-CC-PVTZ-JKFIT
	 Reference Energy          =    -399.7607999034200930 [Eh]
	 Singles Energy            =      -0.0000000000000000 [Eh]
	 Same-Spin Energy          =      -0.4215901689261939 [Eh]
	 Opposite-Spin Energy      =      -1.3380848467804505 [Eh]
	 Correlation Energy        =      -1.7596750157066443 [Eh]
	 Total Energy              =    -401.5204749191267410 [Eh]

	 ================> DF-SCS-MP2 Energies <==================
	-----------------------------------------------------------
	 SCS Same-Spin Scale       =       0.3333333333333333 [-]
	 SCS Opposite-Spin Scale   =       1.2000000000000000 [-]
	 SCS Same-Spin Energy      =      -0.1405300563087313 [Eh]
	 SCS Opposite-Spin Energy  =      -1.6057018161365406 [Eh]
	 SCS Correlation Energy    =      -1.7462318724452719 [Eh]
	 SCS Total Energy          =    -401.5070317758653573 [Eh]
	-----------------------------------------------------------

  Dipole Moment: [D]
     X:    -0.7362      Y:    -3.6421      Z:     0.0292     Total:     3.7159

*** Psi4 exiting successfully. Buy a developer a beer!
