                               Psi4 1.3.2 release

  ==> Input File <==

--------------------------------------------------------------------------
#psi4
#
memory 32 gb

molecule  {
0 1
  O        0.6831730     1.9514370    -0.1851230
  N        0.3221270    -0.3206750    -0.2979720
  C        1.7580560    -0.4955670    -0.5492050
  C       -0.1211040     1.0090560    -0.1118080
  C       -0.4973450    -1.4105120    -0.1972350
  C        2.5603930    -0.4317450     0.7423750
  C       -1.5372540     1.1223260     0.1526570
  C       -1.8362793    -1.3255397     0.0690423
  C       -2.3551590     0.0280850     0.2487950
  H        1.8855710    -1.4559800    -1.0561060
  H        2.0595230     0.3051280    -1.2266110
  H       -0.0197130    -2.3738180    -0.3527730
  H        2.4186300     0.5432120     1.2108420
  H        2.2423160    -1.2153800     1.4354410
  H        3.6255180    -0.5665000     0.5315230
  H       -1.9126600     2.1320090     0.2855670
  H       -2.4591310    -2.1595270     0.1391440
  H       -3.4140320     0.1624990     0.4585800
units angstrom
no_reorient  #important for SAPT in psi4, default
symmetry c1  #important for SAPT in psi4, default
}

set PROPERTIES_ORIGIN ["COM"]
properties('MP2/aug-cc-pvtz', properties = ['dipole'])
--------------------------------------------------------------------------

    Molecular point group: c1
  Charge       = 0
  Multiplicity = 1
  Basis Set: AUG-CC-PVTZ
    Blend: AUG-CC-PVTZ
  Basis Set: (AUG-CC-PVTZ AUX)
    Blend: AUG-CC-PVTZ-JKFIT

    Orbital Energies [Eh]
    ---------------------

    Doubly Occupied:

       1A    -20.508413     2A    -15.624590     3A    -11.351156
       4A    -11.308077     5A    -11.274351     6A    -11.273696
       7A    -11.240238     8A    -11.238085     9A    -11.220896
      10A     -1.369977    11A     -1.277667    12A     -1.113802
      13A     -1.031421    14A     -1.018155    15A     -0.893162
      16A     -0.870036    17A     -0.826399    18A     -0.714168
      19A     -0.701823    20A     -0.667045    21A     -0.640390
      22A     -0.613638    23A     -0.608691    24A     -0.604894
      25A     -0.565906    26A     -0.537900    27A     -0.528258
      28A     -0.523782    29A     -0.505328    30A     -0.473770
      31A     -0.422006    32A     -0.404955    33A     -0.311479

  @DF-RHF Final Energy:  -399.76979827116685

   => Energetics <=

    Nuclear Repulsion Energy =            436.7050282818635196
    One-Electron Energy =               -1408.4213427782028702
    Two-Electron Energy =                 571.9465162251725587
    Total Energy =                       -399.7697982711667919
  Basis Set: (AUG-CC-PVTZ AUX)
    Blend: AUG-CC-PVTZ-RI
    Molecular point group: c1

    Geometry (in Angstrom), charge = 0, multiplicity = 1:

       Center              X                  Y                   Z               Mass
    ------------   -----------------  -----------------  -----------------  -----------------
         O            0.719295914634     1.918842950285    -0.173411363522    15.994914619570
         N            0.358249914634    -0.353269049715    -0.286260363522    14.003074004430
         C            1.794178914634    -0.528161049715    -0.537493363522    12.000000000000
         C           -0.084981085366     0.976461950285    -0.100096363522    12.000000000000
         C           -0.461222085366    -1.443106049715    -0.185523363522    12.000000000000
         C            2.596515914634    -0.464339049715     0.754086636478    12.000000000000
         C           -1.501131085366     1.089731950285     0.164368636478    12.000000000000
         C           -1.800156385366    -1.358133749715     0.080753936478    12.000000000000
         C           -2.319036085366    -0.004509049715     0.260506636478    12.000000000000
         H            1.921693914634    -1.488574049715    -1.044394363522     1.007825032230
         H            2.095645914634     0.272533950285    -1.214899363522     1.007825032230
         H            0.016409914634    -2.406412049715    -0.341061363522     1.007825032230
         H            2.454752914634     0.510617950285     1.222553636478     1.007825032230
         H            2.278438914634    -1.247974049715     1.447152636478     1.007825032230
         H            3.661640914634    -0.599094049715     0.543234636478     1.007825032230
         H           -1.876537085366     2.099414950285     0.297278636478     1.007825032230
         H           -2.423008085366    -2.192121049715     0.150855636478     1.007825032230
         H           -3.377909085366     0.129904950285     0.470291636478     1.007825032230

  Basis Set: AUG-CC-PVTZ
    Blend: AUG-CC-PVTZ
  Basis Set: (AUG-CC-PVTZ AUX)
    Blend: AUG-CC-PVTZ-JKFIT
	 Reference Energy          =    -399.7697982711668487 [Eh]
	 Singles Energy            =      -0.0000000000000000 [Eh]
	 Same-Spin Energy          =      -0.4226003743000685 [Eh]
	 Opposite-Spin Energy      =      -1.3393522592264135 [Eh]
	 Correlation Energy        =      -1.7619526335264821 [Eh]
	 Total Energy              =    -401.5317509046933537 [Eh]

	 ================> DF-SCS-MP2 Energies <==================
	-----------------------------------------------------------
	 SCS Same-Spin Scale       =       0.3333333333333333 [-]
	 SCS Opposite-Spin Scale   =       1.2000000000000000 [-]
	 SCS Same-Spin Energy      =      -0.1408667914333562 [Eh]
	 SCS Opposite-Spin Energy  =      -1.6072227110716961 [Eh]
	 SCS Correlation Energy    =      -1.7480895025050522 [Eh]
	 SCS Total Energy          =    -401.5178877736718732 [Eh]
	-----------------------------------------------------------

  Dipole Moment: [D]
     X:    -0.7589      Y:    -3.7483      Z:     0.0347     Total:     3.8245

*** Psi4 exiting successfully. Buy a developer a beer!
