                               Psi4 1.4a3.dev225

  ==> Input File <==

--------------------------------------------------------------------------
#psi4
#
memory 32 gb

molecule  {
0 1
  O        0.6831730     1.9514370    -0.1851230
  N        0.3221270    -0.3206750    -0.2979720
  C        1.7580560    -0.4955670    -0.5492050
  C       -0.1211040     1.0090560    -0.1118080
  C       -0.4973450    -1.4105120    -0.1972350
  C        2.5603930    -0.4317450     0.7423750
  C       -1.5372540     1.1223260     0.1526570
  C       -1.8319680    -1.2780450     0.0712850
  C       -2.3551590     0.0280850     0.2487950
  H        1.8855710    -1.4559800    -1.0561060
  H        2.0595230     0.3051280    -1.2266110
  H       -0.0285059    -2.3560842    -0.3499097
  H        2.4186300     0.5432120     1.2108420
  H        2.2423160    -1.2153800     1.4354410
  H        3.6255180    -0.5665000     0.5315230
  H       -1.9126600     2.1320090     0.2855670
  H       -2.4591310    -2.1595270     0.1391440
  H       -3.4140320     0.1624990     0.4585800
units angstrom
no_reorient  #important for SAPT in psi4, default
symmetry c1  #important for SAPT in psi4, default
}

set PROPERTIES_ORIGIN ["COM"]
properties('MP2/aug-cc-pvtz', properties = ['dipole'])
--------------------------------------------------------------------------

    Molecular point group: c1
  Charge       = 0
  Multiplicity = 1
  Basis Set: AUG-CC-PVTZ
    Blend: AUG-CC-PVTZ
  Basis Set: (AUG-CC-PVTZ AUX)
    Blend: AUG-CC-PVTZ-JKFIT

    Orbital Energies [Eh]
    ---------------------

    Doubly Occupied:

       1A    -20.506145     2A    -15.625313     3A    -11.349734
       4A    -11.306609     5A    -11.273826     6A    -11.270495
       7A    -11.240042     8A    -11.237041     9A    -11.221151
      10A     -1.368949    11A     -1.278340    12A     -1.119053
      13A     -1.031876    14A     -1.018215    15A     -0.895866
      16A     -0.871397    17A     -0.824863    18A     -0.716049
      19A     -0.700577    20A     -0.668930    21A     -0.640208
      22A     -0.614139    23A     -0.607827    24A     -0.605533
      25A     -0.560421    26A     -0.538862    27A     -0.529876
      28A     -0.525848    29A     -0.505572    30A     -0.474862
      31A     -0.421142    32A     -0.407656    33A     -0.308725

  @DF-RHF Final Energy:  -399.77168963538850

   => Energetics <=

    Nuclear Repulsion Energy =            437.5400313539378772
    One-Electron Energy =               -1410.0931559759835636
    Two-Electron Energy =                 572.7814349866572456
    Total Energy =                       -399.7716896353884977
  Basis Set: (AUG-CC-PVTZ AUX)
    Blend: AUG-CC-PVTZ-RI
    Molecular point group: c1

    Geometry (in Angstrom), charge = 0, multiplicity = 1:

       Center              X                  Y                   Z               Mass
    ------------   -----------------  -----------------  -----------------  -----------------
         O            0.718947540150     1.914066672207    -0.173653489869    15.994914619570
         N            0.357901540150    -0.358045327793    -0.286502489869    14.003074004430
         C            1.793830540150    -0.532937327793    -0.537735489869    12.000000000000
         C           -0.085329459850     0.971685672207    -0.100338489869    12.000000000000
         C           -0.461570459850    -1.447882327793    -0.185765489869    12.000000000000
         C            2.596167540150    -0.469115327793     0.753844510131    12.000000000000
         C           -1.501479459850     1.084955672207     0.164126510131    12.000000000000
         C           -1.796193459850    -1.315415327793     0.082754510131    12.000000000000
         C           -2.319384459850    -0.009285327793     0.260264510131    12.000000000000
         H            1.921345540150    -1.493350327793    -1.044636489869     1.007825032230
         H            2.095297540150     0.267757672207    -1.215141489869     1.007825032230
         H            0.007268640150    -2.393454527793    -0.338440189869     1.007825032230
         H            2.454404540150     0.505841672207     1.222311510131     1.007825032230
         H            2.278090540150    -1.252750327793     1.446910510131     1.007825032230
         H            3.661292540150    -0.603870327793     0.542992510131     1.007825032230
         H           -1.876885459850     2.094638672207     0.297036510131     1.007825032230
         H           -2.423356459850    -2.196897327793     0.150613510131     1.007825032230
         H           -3.378257459850     0.125128672207     0.470049510131     1.007825032230

  Basis Set: AUG-CC-PVTZ
    Blend: AUG-CC-PVTZ
  Basis Set: (AUG-CC-PVTZ AUX)
    Blend: AUG-CC-PVTZ-JKFIT
	 Reference Energy          =    -399.7716896353884977 [Eh]
	 Singles Energy            =      -0.0000000000000000 [Eh]
	 Same-Spin Energy          =      -0.4233905635158675 [Eh]
	 Opposite-Spin Energy      =      -1.3396768671701558 [Eh]
	 Correlation Energy        =      -1.7630674306860232 [Eh]
	 Total Energy              =    -401.5347570660745191 [Eh]

	 ================> DF-SCS-MP2 Energies <==================
	-----------------------------------------------------------
	 SCS Same-Spin Scale       =       0.3333333333333333 [-]
	 SCS Opposite-Spin Scale   =       1.2000000000000000 [-]
	 SCS Same-Spin Energy      =      -0.1411301878386225 [Eh]
	 SCS Opposite-Spin Energy  =      -1.6076122406041868 [Eh]
	 SCS Correlation Energy    =      -1.7487424284428092 [Eh]
	 SCS Total Energy          =    -401.5204320638313220 [Eh]
	-----------------------------------------------------------

  Dipole Moment: [D]
     X:    -0.7577      Y:    -3.8161      Z:     0.0317     Total:     3.8907

*** Psi4 exiting successfully. Buy a developer a beer!
