                               Psi4 1.4a3.dev225

  ==> Input File <==

--------------------------------------------------------------------------
#psi4
#
memory 32 gb

molecule  {
0 1
  O        0.6831730     1.9514370    -0.1851230
  N        0.3221270    -0.3206750    -0.2979720
  C        1.7580560    -0.4955670    -0.5492050
  C       -0.1211040     1.0090560    -0.1118080
  C       -0.4973450    -1.4105120    -0.1972350
  C        2.5603930    -0.4317450     0.7423750
  C       -1.5372540     1.1223260     0.1526570
  C       -1.8319680    -1.2780450     0.0712850
  C       -2.3551590     0.0280850     0.2487950
  H        1.8855710    -1.4559800    -1.0561060
  H        2.0595230     0.3051280    -1.2266110
  H       -0.0416952    -2.3294836    -0.3456146
  H        2.4186300     0.5432120     1.2108420
  H        2.2423160    -1.2153800     1.4354410
  H        3.6255180    -0.5665000     0.5315230
  H       -1.9126600     2.1320090     0.2855670
  H       -2.4591310    -2.1595270     0.1391440
  H       -3.4140320     0.1624990     0.4585800
units angstrom
no_reorient  #important for SAPT in psi4, default
symmetry c1  #important for SAPT in psi4, default
}

set PROPERTIES_ORIGIN ["COM"]
properties('MP2/aug-cc-pvtz', properties = ['dipole'])
--------------------------------------------------------------------------

    Molecular point group: c1
  Charge       = 0
  Multiplicity = 1
  Basis Set: AUG-CC-PVTZ
    Blend: AUG-CC-PVTZ
  Basis Set: (AUG-CC-PVTZ AUX)
    Blend: AUG-CC-PVTZ-JKFIT

    Orbital Energies [Eh]
    ---------------------

    Doubly Occupied:

       1A    -20.506043     2A    -15.625085     3A    -11.349571
       4A    -11.303227     5A    -11.273867     6A    -11.270359
       7A    -11.239927     8A    -11.237025     9A    -11.221184
      10A     -1.368858    11A     -1.278446    12A     -1.118996
      13A     -1.032794    14A     -1.018560    15A     -0.896349
      16A     -0.873068    17A     -0.824879    18A     -0.718982
      19A     -0.700728    20A     -0.671119    21A     -0.640548
      22A     -0.614546    23A     -0.608482    24A     -0.605684
      25A     -0.560356    26A     -0.539363    27A     -0.530037
      28A     -0.525861    29A     -0.505580    30A     -0.474794
      31A     -0.421154    32A     -0.407560    33A     -0.308672

  @DF-RHF Final Energy:  -399.77082424068061

   => Energetics <=

    Nuclear Repulsion Energy =            437.7023752956773137
    One-Electron Energy =               -1410.4029914887209998
    Two-Electron Energy =                 572.9297919523630753
    Total Energy =                       -399.7708242406806676
  Basis Set: (AUG-CC-PVTZ AUX)
    Blend: AUG-CC-PVTZ-RI
    Molecular point group: c1

    Geometry (in Angstrom), charge = 0, multiplicity = 1:

       Center              X                  Y                   Z               Mass
    ------------   -----------------  -----------------  -----------------  -----------------
         O            0.719055549234     1.913848836048    -0.173688663064    15.994914619570
         N            0.358009549234    -0.358263163952    -0.286537663064    14.003074004430
         C            1.793938549234    -0.533155163952    -0.537770663064    12.000000000000
         C           -0.085221450766     0.971467836048    -0.100373663064    12.000000000000
         C           -0.461462450766    -1.448100163952    -0.185800663064    12.000000000000
         C            2.596275549234    -0.469333163952     0.753809336936    12.000000000000
         C           -1.501371450766     1.084737836048     0.164091336936    12.000000000000
         C           -1.796085450766    -1.315633163952     0.082719336936    12.000000000000
         C           -2.319276450766    -0.009503163952     0.260229336936    12.000000000000
         H            1.921453549234    -1.493568163952    -1.044671663064     1.007825032230
         H            2.095405549234     0.267539836048    -1.215176663064     1.007825032230
         H           -0.005812650766    -2.367071763952    -0.334180263064     1.007825032230
         H            2.454512549234     0.505623836048     1.222276336936     1.007825032230
         H            2.278198549234    -1.252968163952     1.446875336936     1.007825032230
         H            3.661400549234    -0.604088163952     0.542957336936     1.007825032230
         H           -1.876777450766     2.094420836048     0.297001336936     1.007825032230
         H           -2.423248450766    -2.197115163952     0.150578336936     1.007825032230
         H           -3.378149450766     0.124910836048     0.470014336936     1.007825032230

  Basis Set: AUG-CC-PVTZ
    Blend: AUG-CC-PVTZ
  Basis Set: (AUG-CC-PVTZ AUX)
    Blend: AUG-CC-PVTZ-JKFIT
	 Reference Energy          =    -399.7708242406806107 [Eh]
	 Singles Energy            =      -0.0000000000000000 [Eh]
	 Same-Spin Energy          =      -0.4233023472841574 [Eh]
	 Opposite-Spin Energy      =      -1.3394672296468495 [Eh]
	 Correlation Energy        =      -1.7627695769310070 [Eh]
	 Total Energy              =    -401.5335938176116315 [Eh]

	 ================> DF-SCS-MP2 Energies <==================
	-----------------------------------------------------------
	 SCS Same-Spin Scale       =       0.3333333333333333 [-]
	 SCS Opposite-Spin Scale   =       1.2000000000000000 [-]
	 SCS Same-Spin Energy      =      -0.1411007824280525 [Eh]
	 SCS Opposite-Spin Energy  =      -1.6073606755762193 [Eh]
	 SCS Correlation Energy    =      -1.7484614580042719 [Eh]
	 SCS Total Energy          =    -401.5192856986848824 [Eh]
	-----------------------------------------------------------

  Dipole Moment: [D]
     X:    -0.7573      Y:    -3.8200      Z:     0.0313     Total:     3.8945

*** Psi4 exiting successfully. Buy a developer a beer!
