                               Psi4 1.4a3.dev225

  ==> Input File <==

--------------------------------------------------------------------------
#psi4
#
memory 32 gb

molecule  {
0 1
  O        0.6831730     1.9514370    -0.1851230
  N        0.3221270    -0.3206750    -0.2979720
  C        1.7580560    -0.4955670    -0.5492050
  C       -0.1211040     1.0090560    -0.1118080
  C       -0.4673775    -1.3706575    -0.2009189
  C        2.5603930    -0.4317450     0.7423750
  C       -1.5372540     1.1223260     0.1526570
  C       -1.8319680    -1.2780450     0.0712850
  C       -2.3551590     0.0280850     0.2487950
  H        1.8855710    -1.4559800    -1.0561060
  H        2.0595230     0.3051280    -1.2266110
  H       -0.0197130    -2.3738180    -0.3527730
  H        2.4186300     0.5432120     1.2108420
  H        2.2423160    -1.2153800     1.4354410
  H        3.6255180    -0.5665000     0.5315230
  H       -1.9126600     2.1320090     0.2855670
  H       -2.4591310    -2.1595270     0.1391440
  H       -3.4140320     0.1624990     0.4585800
units angstrom
no_reorient  #important for SAPT in psi4, default
symmetry c1  #important for SAPT in psi4, default
}

set PROPERTIES_ORIGIN ["COM"]
properties('MP2/aug-cc-pvtz', properties = ['dipole'])
--------------------------------------------------------------------------

    Molecular point group: c1
  Charge       = 0
  Multiplicity = 1
  Basis Set: AUG-CC-PVTZ
    Blend: AUG-CC-PVTZ
  Basis Set: (AUG-CC-PVTZ AUX)
    Blend: AUG-CC-PVTZ-JKFIT

    Orbital Energies [Eh]
    ---------------------

    Doubly Occupied:

       1A    -20.506193     2A    -15.631148     3A    -11.350264
       4A    -11.311860     5A    -11.277333     6A    -11.268772
       7A    -11.238662     8A    -11.232705     9A    -11.223875
      10A     -1.373838    11A     -1.292577    12A     -1.117078
      13A     -1.034424    14A     -1.015244    15A     -0.897160
      16A     -0.875344    17A     -0.827624    18A     -0.715621
      19A     -0.701686    20A     -0.664026    21A     -0.644657
      22A     -0.619295    23A     -0.608873    24A     -0.601020
      25A     -0.561692    26A     -0.540300    27A     -0.530605
      28A     -0.523641    29A     -0.508635    30A     -0.476625
      31A     -0.420959    32A     -0.411067    33A     -0.301979

  @DF-RHF Final Energy:  -399.76857001402198

   => Energetics <=

    Nuclear Repulsion Energy =            438.2508492790400965
    One-Electron Energy =               -1411.4292746639059715
    Two-Electron Energy =                 573.4098553708439567
    Total Energy =                       -399.7685700140219751
  Basis Set: (AUG-CC-PVTZ AUX)
    Blend: AUG-CC-PVTZ-RI
    Molecular point group: c1

    Geometry (in Angstrom), charge = 0, multiplicity = 1:

       Center              X                  Y                   Z               Mass
    ------------   -----------------  -----------------  -----------------  -----------------
         O            0.715953500550     1.910325814437    -0.173270836807    15.994914619570
         N            0.354907500550    -0.361786185563    -0.286119836807    14.003074004430
         C            1.790836500550    -0.536678185563    -0.537352836807    12.000000000000
         C           -0.088323499450     0.967944814437    -0.099955836807    12.000000000000
         C           -0.434596999450    -1.411768685563    -0.189066736807    12.000000000000
         C            2.593173500550    -0.472856185563     0.754227163193    12.000000000000
         C           -1.504473499450     1.081214814437     0.164509163193    12.000000000000
         C           -1.799187499450    -1.319156185563     0.083137163193    12.000000000000
         C           -2.322378499450    -0.013026185563     0.260647163193    12.000000000000
         H            1.918351500550    -1.497091185563    -1.044253836807     1.007825032230
         H            2.092303500550     0.264016814437    -1.214758836807     1.007825032230
         H            0.013067500550    -2.414929185563    -0.340920836807     1.007825032230
         H            2.451410500550     0.502100814437     1.222694163193     1.007825032230
         H            2.275096500550    -1.256491185563     1.447293163193     1.007825032230
         H            3.658298500550    -0.607611185563     0.543375163193     1.007825032230
         H           -1.879879499450     2.090897814437     0.297419163193     1.007825032230
         H           -2.426350499450    -2.200638185563     0.150996163193     1.007825032230
         H           -3.381251499450     0.121387814437     0.470432163193     1.007825032230

  Basis Set: AUG-CC-PVTZ
    Blend: AUG-CC-PVTZ
  Basis Set: (AUG-CC-PVTZ AUX)
    Blend: AUG-CC-PVTZ-JKFIT
	 Reference Energy          =    -399.7685700140219751 [Eh]
	 Singles Energy            =      -0.0000000000000000 [Eh]
	 Same-Spin Energy          =      -0.4240327787987809 [Eh]
	 Opposite-Spin Energy      =      -1.3396952439570127 [Eh]
	 Correlation Energy        =      -1.7637280227557937 [Eh]
	 Total Energy              =    -401.5322980367777745 [Eh]

	 ================> DF-SCS-MP2 Energies <==================
	-----------------------------------------------------------
	 SCS Same-Spin Scale       =       0.3333333333333333 [-]
	 SCS Opposite-Spin Scale   =       1.2000000000000000 [-]
	 SCS Same-Spin Energy      =      -0.1413442595995936 [Eh]
	 SCS Opposite-Spin Energy  =      -1.6076342927484151 [Eh]
	 SCS Correlation Energy    =      -1.7489785523480088 [Eh]
	 SCS Total Energy          =    -401.5175485663700101 [Eh]
	-----------------------------------------------------------

  Dipole Moment: [D]
     X:    -0.5722      Y:    -3.8074      Z:     0.0100     Total:     3.8502

*** Psi4 exiting successfully. Buy a developer a beer!
