                               Psi4 1.3.2 release

  ==> Input File <==

--------------------------------------------------------------------------
#psi4
#
memory 32 gb

molecule  {
0 1
  O        0.6831730     1.9514370    -0.1851230
  N        0.3221270    -0.3206750    -0.2979720
  C        1.7580560    -0.4955670    -0.5492050
  C       -0.1211040     1.0090560    -0.1118080
  C       -0.4973450    -1.4105120    -0.1972350
  C        2.5603930    -0.4317450     0.7423750
  C       -1.5372540     1.1223260     0.1526570
  C       -1.8319680    -1.2780450     0.0712850
  C       -2.3551590     0.0280850     0.2487950
  H        1.8855710    -1.4559800    -1.0561060
  H        2.0595230     0.3051280    -1.2266110
  H       -0.0197130    -2.3738180    -0.3527730
  H        2.4186300     0.5432120     1.2108420
  H        2.2423160    -1.2153800     1.4354410
  H        3.6255180    -0.5665000     0.5315230
  H       -1.9126600     2.1320090     0.2855670
  H       -2.4012720    -2.0782058     0.1328837
  H       -3.4140320     0.1624990     0.4585800
units angstrom
no_reorient  #important for SAPT in psi4, default
symmetry c1  #important for SAPT in psi4, default
}

set PROPERTIES_ORIGIN ["COM"]
properties('MP2/aug-cc-pvtz', properties = ['dipole'])
--------------------------------------------------------------------------

    Molecular point group: c1
  Charge       = 0
  Multiplicity = 1
  Basis Set: AUG-CC-PVTZ
    Blend: AUG-CC-PVTZ
  Basis Set: (AUG-CC-PVTZ AUX)
    Blend: AUG-CC-PVTZ-JKFIT

    Orbital Energies [Eh]
    ---------------------

    Doubly Occupied:

       1A    -20.506036     2A    -15.625107     3A    -11.349591
       4A    -11.308322     5A    -11.273579     6A    -11.269740
       7A    -11.236492     8A    -11.228364     9A    -11.221010
      10A     -1.368773    11A     -1.278002    12A     -1.120287
      13A     -1.031616    14A     -1.020515    15A     -0.895764
      16A     -0.873231    17A     -0.827575    18A     -0.720765
      19A     -0.704016    20A     -0.668495    21A     -0.642519
      22A     -0.613834    23A     -0.609916    24A     -0.606568
      25A     -0.564290    26A     -0.541562    27A     -0.529472
      28A     -0.525627    29A     -0.505575    30A     -0.474606
      31A     -0.420891    32A     -0.407305    33A     -0.308546

  @DF-RHF Final Energy:  -399.76546458942448

   => Energetics <=

    Nuclear Repulsion Energy =            437.9843622719106975
    One-Electron Energy =               -1410.9436713592140222
    Two-Electron Energy =                 573.1938444978788993
    Total Energy =                       -399.7654645894244823
  Basis Set: (AUG-CC-PVTZ AUX)
    Blend: AUG-CC-PVTZ-RI
    Molecular point group: c1

    Geometry (in Angstrom), charge = 0, multiplicity = 1:

       Center              X                  Y                   Z               Mass
    ------------   -----------------  -----------------  -----------------  -----------------
         O            0.718401718105     1.913545945796    -0.173578775389    15.994914619570
         N            0.357355718105    -0.358566054204    -0.286427775389    14.003074004430
         C            1.793284718105    -0.533458054204    -0.537660775389    12.000000000000
         C           -0.085875281895     0.971164945796    -0.100263775389    12.000000000000
         C           -0.462116281895    -1.448403054204    -0.185690775389    12.000000000000
         C            2.595621718105    -0.469636054204     0.753919224611    12.000000000000
         C           -1.502025281895     1.084434945796     0.164201224611    12.000000000000
         C           -1.796739281895    -1.315936054204     0.082829224611    12.000000000000
         C           -2.319930281895    -0.009806054204     0.260339224611    12.000000000000
         H            1.920799718105    -1.493871054204    -1.044561775389     1.007825032230
         H            2.094751718105     0.267236945796    -1.215066775389     1.007825032230
         H            0.015515718105    -2.411709054204    -0.341228775389     1.007825032230
         H            2.453858718105     0.505320945796     1.222386224611     1.007825032230
         H            2.277544718105    -1.253271054204     1.446985224611     1.007825032230
         H            3.660746718105    -0.604391054204     0.543067224611     1.007825032230
         H           -1.877431281895     2.094117945796     0.297111224611     1.007825032230
         H           -2.366043281895    -2.116096854204     0.144427924611     1.007825032230
         H           -3.378803281895     0.124607945796     0.470124224611     1.007825032230

  Basis Set: AUG-CC-PVTZ
    Blend: AUG-CC-PVTZ
  Basis Set: (AUG-CC-PVTZ AUX)
    Blend: AUG-CC-PVTZ-JKFIT
	 Reference Energy          =    -399.7654645894244823 [Eh]
	 Singles Energy            =      -0.0000000000000000 [Eh]
	 Same-Spin Energy          =      -0.4233316621573229 [Eh]
	 Opposite-Spin Energy      =      -1.3393669296713482 [Eh]
	 Correlation Energy        =      -1.7626985918286711 [Eh]
	 Total Energy              =    -401.5281631812531487 [Eh]

	 ================> DF-SCS-MP2 Energies <==================
	-----------------------------------------------------------
	 SCS Same-Spin Scale       =       0.3333333333333333 [-]
	 SCS Opposite-Spin Scale   =       1.2000000000000000 [-]
	 SCS Same-Spin Energy      =      -0.1411105540524409 [Eh]
	 SCS Opposite-Spin Energy  =      -1.6072403156056179 [Eh]
	 SCS Correlation Energy    =      -1.7483508696580587 [Eh]
	 SCS Total Energy          =    -401.5138154590825366 [Eh]
	-----------------------------------------------------------

  Dipole Moment: [D]
     X:    -0.7598      Y:    -3.8255      Z:     0.0307     Total:     3.9003

*** Psi4 exiting successfully. Buy a developer a beer!
