                               Psi4 1.3.2 release

  ==> Input File <==

--------------------------------------------------------------------------
#psi4
#
memory 32 gb

molecule  {
0 1
  O        0.6831730     1.9514370    -0.1851230
  N        0.3221270    -0.3206750    -0.2979720
  C        1.7580560    -0.4955670    -0.5492050
  C       -0.1211040     1.0090560    -0.1118080
  C       -0.4973450    -1.4105120    -0.1972350
  C        2.5603930    -0.4317450     0.7423750
  C       -1.5372540     1.1223260     0.1526570
  C       -1.8389594    -1.3731380     0.0664752
  C       -2.3551590     0.0280850     0.2487950
  H        1.8855710    -1.4559800    -1.0561060
  H        2.0595230     0.3051280    -1.2266110
  H       -0.0197130    -2.3738180    -0.3527730
  H        2.4186300     0.5432120     1.2108420
  H        2.2423160    -1.2153800     1.4354410
  H        3.6255180    -0.5665000     0.5315230
  H       -1.9126600     2.1320090     0.2855670
  H       -2.4591310    -2.1595270     0.1391440
  H       -3.4140320     0.1624990     0.4585800
units angstrom
no_reorient  #important for SAPT in psi4, default
symmetry c1  #important for SAPT in psi4, default
}

set PROPERTIES_ORIGIN ["COM"]
properties('MP2/aug-cc-pvtz', properties = ['dipole'])
--------------------------------------------------------------------------

    Molecular point group: c1
  Charge       = 0
  Multiplicity = 1
  Basis Set: AUG-CC-PVTZ
    Blend: AUG-CC-PVTZ
  Basis Set: (AUG-CC-PVTZ AUX)
    Blend: AUG-CC-PVTZ-JKFIT

    Orbital Energies [Eh]
    ---------------------

    Doubly Occupied:

       1A    -20.510571     2A    -15.623950     3A    -11.352449
       4A    -11.307792     5A    -11.277703     6A    -11.273673
       7A    -11.240637     8A    -11.239103     9A    -11.220731
      10A     -1.371011    11A     -1.277224    12A     -1.109207
      13A     -1.031999    14A     -1.018114    15A     -0.891199
      16A     -0.870279    17A     -0.827721    18A     -0.716581
      19A     -0.702726    20A     -0.666639    21A     -0.641303
      22A     -0.615948    23A     -0.609739    24A     -0.602437
      25A     -0.571027    26A     -0.537371    27A     -0.527696
      28A     -0.517829    29A     -0.505062    30A     -0.472888
      31A     -0.422776    32A     -0.402369    33A     -0.314219

  @DF-RHF Final Energy:  -399.76212217301520

   => Energetics <=

    Nuclear Repulsion Energy =            436.0137102349723364
    One-Electron Energy =               -1407.0117182752844656
    Two-Electron Energy =                 571.2358858672969291
    Total Energy =                       -399.7621221730152001
  Basis Set: (AUG-CC-PVTZ AUX)
    Blend: AUG-CC-PVTZ-RI
    Molecular point group: c1

    Geometry (in Angstrom), charge = 0, multiplicity = 1:

       Center              X                  Y                   Z               Mass
    ------------   -----------------  -----------------  -----------------  -----------------
         O            0.719557242452     1.923484105411    -0.173161053967    15.994914619570
         N            0.358511242452    -0.348627894589    -0.286010053967    14.003074004430
         C            1.794440242452    -0.523519894589    -0.537243053967    12.000000000000
         C           -0.084719757548     0.981103105411    -0.099846053967    12.000000000000
         C           -0.460960757548    -1.438464894589    -0.185273053967    12.000000000000
         C            2.596777242452    -0.459697894589     0.754336946033    12.000000000000
         C           -1.500869757548     1.094373105411     0.164618946033    12.000000000000
         C           -1.802575157548    -1.401090894589     0.078437146033    12.000000000000
         C           -2.318774757548     0.000132105411     0.260756946033    12.000000000000
         H            1.921955242452    -1.483932894589    -1.044144053967     1.007825032230
         H            2.095907242452     0.277175105411    -1.214649053967     1.007825032230
         H            0.016671242452    -2.401770894589    -0.340811053967     1.007825032230
         H            2.455014242452     0.515259105411     1.222803946033     1.007825032230
         H            2.278700242452    -1.243332894589     1.447402946033     1.007825032230
         H            3.661902242452    -0.594452894589     0.543484946033     1.007825032230
         H           -1.876275757548     2.104056105411     0.297528946033     1.007825032230
         H           -2.422746757548    -2.187479894589     0.151105946033     1.007825032230
         H           -3.377647757548     0.134546105411     0.470541946033     1.007825032230

  Basis Set: AUG-CC-PVTZ
    Blend: AUG-CC-PVTZ
  Basis Set: (AUG-CC-PVTZ AUX)
    Blend: AUG-CC-PVTZ-JKFIT
	 Reference Energy          =    -399.7621221730152001 [Eh]
	 Singles Energy            =      -0.0000000000000000 [Eh]
	 Same-Spin Energy          =      -0.4218848245295229 [Eh]
	 Opposite-Spin Energy      =      -1.3392190623046354 [Eh]
	 Correlation Energy        =      -1.7611038868341582 [Eh]
	 Total Energy              =    -401.5232260598493781 [Eh]

	 ================> DF-SCS-MP2 Energies <==================
	-----------------------------------------------------------
	 SCS Same-Spin Scale       =       0.3333333333333333 [-]
	 SCS Opposite-Spin Scale   =       1.2000000000000000 [-]
	 SCS Same-Spin Energy      =      -0.1406282748431743 [Eh]
	 SCS Opposite-Spin Energy  =      -1.6070628747655624 [Eh]
	 SCS Correlation Energy    =      -1.7476911496087366 [Eh]
	 SCS Total Energy          =    -401.5098133226239270 [Eh]
	-----------------------------------------------------------

  Dipole Moment: [D]
     X:    -0.7559      Y:    -3.6745      Z:     0.0375     Total:     3.7516

*** Psi4 exiting successfully. Buy a developer a beer!
