                               Psi4 1.3.2 release

  ==> Input File <==

--------------------------------------------------------------------------
#psi4
#
memory 32 gb

molecule  {
0 1
  O        0.6831730     1.9514370    -0.1851230
  N        0.3221270    -0.3206750    -0.2979720
  C        1.7609991    -0.4701154    -0.5487948
  C       -0.1211040     1.0090560    -0.1118080
  C       -0.4973450    -1.4105120    -0.1972350
  C        2.5603930    -0.4317450     0.7423750
  C       -1.5372540     1.1223260     0.1526570
  C       -1.8319680    -1.2780450     0.0712850
  C       -2.3551590     0.0280850     0.2487950
  H        1.8855710    -1.4559800    -1.0561060
  H        2.0595230     0.3051280    -1.2266110
  H       -0.0197130    -2.3738180    -0.3527730
  H        2.4186300     0.5432120     1.2108420
  H        2.2423160    -1.2153800     1.4354410
  H        3.6255180    -0.5665000     0.5315230
  H       -1.9126600     2.1320090     0.2855670
  H       -2.4591310    -2.1595270     0.1391440
  H       -3.4140320     0.1624990     0.4585800
units angstrom
no_reorient  #important for SAPT in psi4, default
symmetry c1  #important for SAPT in psi4, default
}

set PROPERTIES_ORIGIN ["COM"]
properties('MP2/aug-cc-pvtz', properties = ['dipole'])
--------------------------------------------------------------------------

    Molecular point group: c1
  Charge       = 0
  Multiplicity = 1
  Basis Set: AUG-CC-PVTZ
    Blend: AUG-CC-PVTZ
  Basis Set: (AUG-CC-PVTZ AUX)
    Blend: AUG-CC-PVTZ-JKFIT

    Orbital Energies [Eh]
    ---------------------

    Doubly Occupied:

       1A    -20.506314     2A    -15.625438     3A    -11.349586
       4A    -11.309197     5A    -11.274232     6A    -11.270628
       7A    -11.240347     8A    -11.236975     9A    -11.221061
      10A     -1.369358    11A     -1.278080    12A     -1.119273
      13A     -1.031906    14A     -1.018032    15A     -0.896088
      16A     -0.869307    17A     -0.825242    18A     -0.714148
      19A     -0.701194    20A     -0.666761    21A     -0.641016
      22A     -0.614736    23A     -0.606519    24A     -0.604671
      25A     -0.560630    26A     -0.538901    27A     -0.529255
      28A     -0.525574    29A     -0.506415    30A     -0.474289
      31A     -0.421209    32A     -0.408124    33A     -0.308909

  @DF-RHF Final Energy:  -399.77069969190563

   => Energetics <=

    Nuclear Repulsion Energy =            437.5296826354805262
    One-Electron Energy =               -1410.0739386955576720
    Two-Electron Energy =                 572.7735563681715121
    Total Energy =                       -399.7706996919056337
  Basis Set: (AUG-CC-PVTZ AUX)
    Blend: AUG-CC-PVTZ-RI
    Molecular point group: c1

    Geometry (in Angstrom), charge = 0, multiplicity = 1:

       Center              X                  Y                   Z               Mass
    ------------   -----------------  -----------------  -----------------  -----------------
         O            0.718588561730     1.911730194281    -0.173670039156    15.994914619570
         N            0.357542561730    -0.360381805719    -0.286519039156    14.003074004430
         C            1.796414661730    -0.509822205719    -0.537341839156    12.000000000000
         C           -0.085688438270     0.969349194281    -0.100355039156    12.000000000000
         C           -0.461929438270    -1.450218805719    -0.185782039156    12.000000000000
         C            2.595808561730    -0.471451805719     0.753827960844    12.000000000000
         C           -1.501838438270     1.082619194281     0.164109960844    12.000000000000
         C           -1.796552438270    -1.317751805719     0.082737960844    12.000000000000
         C           -2.319743438270    -0.011621805719     0.260247960844    12.000000000000
         H            1.920986561730    -1.495686805719    -1.044653039156     1.007825032230
         H            2.094938561730     0.265421194281    -1.215158039156     1.007825032230
         H            0.015702561730    -2.413524805719    -0.341320039156     1.007825032230
         H            2.454045561730     0.503505194281     1.222294960844     1.007825032230
         H            2.277731561730    -1.255086805719     1.446893960844     1.007825032230
         H            3.660933561730    -0.606206805719     0.542975960844     1.007825032230
         H           -1.877244438270     2.092302194281     0.297019960844     1.007825032230
         H           -2.423715438270    -2.199233805719     0.150596960844     1.007825032230
         H           -3.378616438270     0.122792194281     0.470032960844     1.007825032230

  Basis Set: AUG-CC-PVTZ
    Blend: AUG-CC-PVTZ
  Basis Set: (AUG-CC-PVTZ AUX)
    Blend: AUG-CC-PVTZ-JKFIT
	 Reference Energy          =    -399.7706996919056337 [Eh]
	 Singles Energy            =      -0.0000000000000000 [Eh]
	 Same-Spin Energy          =      -0.4234567949469167 [Eh]
	 Opposite-Spin Energy      =      -1.3398761269510238 [Eh]
	 Correlation Energy        =      -1.7633329218979403 [Eh]
	 Total Energy              =    -401.5340326138035607 [Eh]

	 ================> DF-SCS-MP2 Energies <==================
	-----------------------------------------------------------
	 SCS Same-Spin Scale       =       0.3333333333333333 [-]
	 SCS Opposite-Spin Scale   =       1.2000000000000000 [-]
	 SCS Same-Spin Energy      =      -0.1411522649823055 [Eh]
	 SCS Opposite-Spin Energy  =      -1.6078513523412286 [Eh]
	 SCS Correlation Energy    =      -1.7490036173235342 [Eh]
	 SCS Total Energy          =    -401.5197033092291576 [Eh]
	-----------------------------------------------------------

  Dipole Moment: [D]
     X:    -0.7617      Y:    -3.7933      Z:     0.0381     Total:     3.8692

*** Psi4 exiting successfully. Buy a developer a beer!
