                               Psi4 1.3.2 release

  ==> Input File <==

--------------------------------------------------------------------------
#psi4
#
memory 32 gb

molecule  {
0 1
  O        0.6831730     1.9514370    -0.1851230
  N        0.3221270    -0.3206750    -0.2979720
  C        1.7580560    -0.4955670    -0.5492050
  C       -0.1211040     1.0090560    -0.1118080
  C       -0.4973450    -1.4105120    -0.1972350
  C        2.5603930    -0.4317450     0.7423750
  C       -1.5372540     1.1223260     0.1526570
  C       -1.8260306    -1.2307117     0.0732005
  C       -2.3551590     0.0280850     0.2487950
  H        1.8855710    -1.4559800    -1.0561060
  H        2.0595230     0.3051280    -1.2266110
  H       -0.0197130    -2.3738180    -0.3527730
  H        2.4186300     0.5432120     1.2108420
  H        2.2423160    -1.2153800     1.4354410
  H        3.6255180    -0.5665000     0.5315230
  H       -1.9126600     2.1320090     0.2855670
  H       -2.4591310    -2.1595270     0.1391440
  H       -3.4140320     0.1624990     0.4585800
units angstrom
no_reorient  #important for SAPT in psi4, default
symmetry c1  #important for SAPT in psi4, default
}

set PROPERTIES_ORIGIN ["COM"]
properties('MP2/aug-cc-pvtz', properties = ['dipole'])
--------------------------------------------------------------------------

    Molecular point group: c1
  Charge       = 0
  Multiplicity = 1
  Basis Set: AUG-CC-PVTZ
    Blend: AUG-CC-PVTZ
  Basis Set: (AUG-CC-PVTZ AUX)
    Blend: AUG-CC-PVTZ-JKFIT

    Orbital Energies [Eh]
    ---------------------

    Doubly Occupied:

       1A    -20.504016     2A    -15.626607     3A    -11.348558
       4A    -11.310011     5A    -11.273983     6A    -11.266536
       7A    -11.240286     8A    -11.236090     9A    -11.221429
      10A     -1.368164    11A     -1.279100    12A     -1.125148
      13A     -1.031882    14A     -1.017547    15A     -0.898535
      16A     -0.871000    17A     -0.823211    18A     -0.715786
      19A     -0.699765    20A     -0.667719    21A     -0.640239
      22A     -0.616221    23A     -0.608975    24A     -0.601404
      25A     -0.557057    26A     -0.537844    27A     -0.529645
      28A     -0.525474    29A     -0.505663    30A     -0.476332
      31A     -0.420267    32A     -0.410632    33A     -0.306104

  @DF-RHF Final Energy:  -399.76718516651670

   => Energetics <=

    Nuclear Repulsion Energy =            438.2033074692993182
    One-Electron Energy =               -1411.4185226381200664
    Two-Electron Energy =                 573.4480300023041082
    Total Energy =                       -399.7671851665166969
  Basis Set: (AUG-CC-PVTZ AUX)
    Blend: AUG-CC-PVTZ-RI
    Molecular point group: c1

    Geometry (in Angstrom), charge = 0, multiplicity = 1:

       Center              X                  Y                   Z               Mass
    ------------   -----------------  -----------------  -----------------  -----------------
         O            0.718296597294     1.909596581020    -0.173816816054    15.994914619570
         N            0.357250597294    -0.362515418980    -0.286665816054    14.003074004430
         C            1.793179597294    -0.537407418980    -0.537898816054    12.000000000000
         C           -0.085980402706     0.967215581020    -0.100501816054    12.000000000000
         C           -0.462221402706    -1.452352418980    -0.185928816054    12.000000000000
         C            2.595516597294    -0.473585418980     0.753681183946    12.000000000000
         C           -1.502130402706     1.080485581020     0.163963183946    12.000000000000
         C           -1.790907002706    -1.272552118980     0.084506683946    12.000000000000
         C           -2.320035402706    -0.013755418980     0.260101183946    12.000000000000
         H            1.920694597294    -1.497820418980    -1.044799816054     1.007825032230
         H            2.094646597294     0.263287581020    -1.215304816054     1.007825032230
         H            0.015410597294    -2.415658418980    -0.341466816054     1.007825032230
         H            2.453753597294     0.501371581020     1.222148183946     1.007825032230
         H            2.277439597294    -1.257220418980     1.446747183946     1.007825032230
         H            3.660641597294    -0.608340418980     0.542829183946     1.007825032230
         H           -1.877536402706     2.090168581020     0.296873183946     1.007825032230
         H           -2.424007402706    -2.201367418980     0.150450183946     1.007825032230
         H           -3.378908402706     0.120658581020     0.469886183946     1.007825032230

  Basis Set: AUG-CC-PVTZ
    Blend: AUG-CC-PVTZ
  Basis Set: (AUG-CC-PVTZ AUX)
    Blend: AUG-CC-PVTZ-JKFIT
	 Reference Energy          =    -399.7671851665166969 [Eh]
	 Singles Energy            =      -0.0000000000000000 [Eh]
	 Same-Spin Energy          =      -0.4244401812443227 [Eh]
	 Opposite-Spin Energy      =      -1.3406806245266940 [Eh]
	 Correlation Energy        =      -1.7651208057710166 [Eh]
	 Total Energy              =    -401.5323059722877019 [Eh]

	 ================> DF-SCS-MP2 Energies <==================
	-----------------------------------------------------------
	 SCS Same-Spin Scale       =       0.3333333333333333 [-]
	 SCS Opposite-Spin Scale   =       1.2000000000000000 [-]
	 SCS Same-Spin Energy      =      -0.1414800604147742 [Eh]
	 SCS Opposite-Spin Energy  =      -1.6088167494320327 [Eh]
	 SCS Correlation Energy    =      -1.7502968098468070 [Eh]
	 SCS Total Energy          =    -401.5174819763635128 [Eh]
	-----------------------------------------------------------

  Dipole Moment: [D]
     X:    -0.7540      Y:    -3.8645      Z:     0.0295     Total:     3.9375

*** Psi4 exiting successfully. Buy a developer a beer!
