                               Psi4 1.3.2 release

  ==> Input File <==

--------------------------------------------------------------------------
#psi4
#
memory 32 gb

molecule  {
0 1
  O        0.6831730     1.9514370    -0.1851230
  N        0.3221270    -0.3206750    -0.2979720
  C        1.7580560    -0.4955670    -0.5492050
  C       -0.0563002     1.0849874    -0.1177153
  C       -0.4973450    -1.4105120    -0.1972350
  C        2.5603930    -0.4317450     0.7423750
  C       -1.5372540     1.1223260     0.1526570
  C       -1.8319680    -1.2780450     0.0712850
  C       -2.3551590     0.0280850     0.2487950
  H        1.8855710    -1.4559800    -1.0561060
  H        2.0595230     0.3051280    -1.2266110
  H       -0.0197130    -2.3738180    -0.3527730
  H        2.4186300     0.5432120     1.2108420
  H        2.2423160    -1.2153800     1.4354410
  H        3.6255180    -0.5665000     0.5315230
  H       -1.9126600     2.1320090     0.2855670
  H       -2.4591310    -2.1595270     0.1391440
  H       -3.4140320     0.1624990     0.4585800
units angstrom
no_reorient  #important for SAPT in psi4, default
symmetry c1  #important for SAPT in psi4, default
}

set PROPERTIES_ORIGIN ["COM"]
properties('MP2/aug-cc-pvtz', properties = ['dipole'])
--------------------------------------------------------------------------

    Molecular point group: c1
  Charge       = 0
  Multiplicity = 1
  Basis Set: AUG-CC-PVTZ
    Blend: AUG-CC-PVTZ
  Basis Set: (AUG-CC-PVTZ AUX)
    Blend: AUG-CC-PVTZ-JKFIT

    Orbital Energies [Eh]
    ---------------------

    Doubly Occupied:

       1A    -20.532496     2A    -15.611035     3A    -11.353777
       4A    -11.301902     5A    -11.269565     6A    -11.263048
       7A    -11.233885     8A    -11.229967     9A    -11.220848
      10A     -1.440142    11A     -1.275681    12A     -1.108183
      13A     -1.024630    14A     -1.005413    15A     -0.887546
      16A     -0.857629    17A     -0.817625    18A     -0.708264
      19A     -0.702260    20A     -0.674007    21A     -0.641156
      22A     -0.623411    23A     -0.613162    24A     -0.601287
      25A     -0.568189    26A     -0.546609    27A     -0.535757
      28A     -0.530800    29A     -0.504282    30A     -0.490356
      31A     -0.423148    32A     -0.400316    33A     -0.301538

  @DF-RHF Final Energy:  -399.75952102056686

   => Energetics <=

    Nuclear Repulsion Energy =            437.3691763286661285
    One-Electron Energy =               -1409.6615673455773958
    Two-Electron Energy =                 572.5328699963444024
    Total Energy =                       -399.7595210205669218
  Basis Set: (AUG-CC-PVTZ AUX)
    Blend: AUG-CC-PVTZ-RI
    Molecular point group: c1

    Geometry (in Angstrom), charge = 0, multiplicity = 1:

       Center              X                  Y                   Z               Mass
    ------------   -----------------  -----------------  -----------------  -----------------
         O            0.712556726457     1.906808073481    -0.173054040318    15.994914619570
         N            0.351510726457    -0.365303926519    -0.285903040318    14.003074004430
         C            1.787439726457    -0.540195926519    -0.537136040318    12.000000000000
         C           -0.026916473543     1.040358473481    -0.105646340318    12.000000000000
         C           -0.467961273543    -1.455140926519    -0.185166040318    12.000000000000
         C            2.589776726457    -0.476373926519     0.754443959682    12.000000000000
         C           -1.507870273543     1.077697073481     0.164725959682    12.000000000000
         C           -1.802584273543    -1.322673926519     0.083353959682    12.000000000000
         C           -2.325775273543    -0.016543926519     0.260863959682    12.000000000000
         H            1.914954726457    -1.500608926519    -1.044037040318     1.007825032230
         H            2.088906726457     0.260499073481    -1.214542040318     1.007825032230
         H            0.009670726457    -2.418446926519    -0.340704040318     1.007825032230
         H            2.448013726457     0.498583073481     1.222910959682     1.007825032230
         H            2.271699726457    -1.260008926519     1.447509959682     1.007825032230
         H            3.654901726457    -0.611128926519     0.543591959682     1.007825032230
         H           -1.883276273543     2.087380073481     0.297635959682     1.007825032230
         H           -2.429747273543    -2.204155926519     0.151212959682     1.007825032230
         H           -3.384648273543     0.117870073481     0.470648959682     1.007825032230

  Basis Set: AUG-CC-PVTZ
    Blend: AUG-CC-PVTZ
  Basis Set: (AUG-CC-PVTZ AUX)
    Blend: AUG-CC-PVTZ-JKFIT
	 Reference Energy          =    -399.7595210205668650 [Eh]
	 Singles Energy            =      -0.0000000000000000 [Eh]
	 Same-Spin Energy          =      -0.4214465407985220 [Eh]
	 Opposite-Spin Energy      =      -1.3368346976726659 [Eh]
	 Correlation Energy        =      -1.7582812384711879 [Eh]
	 Total Energy              =    -401.5178022590380351 [Eh]

	 ================> DF-SCS-MP2 Energies <==================
	-----------------------------------------------------------
	 SCS Same-Spin Scale       =       0.3333333333333333 [-]
	 SCS Opposite-Spin Scale   =       1.2000000000000000 [-]
	 SCS Same-Spin Energy      =      -0.1404821802661740 [Eh]
	 SCS Opposite-Spin Energy  =      -1.6042016372071990 [Eh]
	 SCS Correlation Energy    =      -1.7446838174733730 [Eh]
	 SCS Total Energy          =    -401.5042048380402662 [Eh]
	-----------------------------------------------------------

  Dipole Moment: [D]
     X:    -0.2230      Y:    -3.0001      Z:    -0.0193     Total:     3.0085

*** Psi4 exiting successfully. Buy a developer a beer!
