                               Psi4 1.3.2 release

  ==> Input File <==

--------------------------------------------------------------------------
#psi4
#
memory 32 gb

molecule  {
0 1
  O        0.6831730     1.9514370    -0.1851230
  N        0.3221270    -0.3206750    -0.2979720
  C        1.7504458    -0.5461538    -0.5522593
  C       -0.1211040     1.0090560    -0.1118080
  C       -0.4973450    -1.4105120    -0.1972350
  C        2.5603930    -0.4317450     0.7423750
  C       -1.5372540     1.1223260     0.1526570
  C       -1.8319680    -1.2780450     0.0712850
  C       -2.3551590     0.0280850     0.2487950
  H        1.8855710    -1.4559800    -1.0561060
  H        2.0595230     0.3051280    -1.2266110
  H       -0.0197130    -2.3738180    -0.3527730
  H        2.4186300     0.5432120     1.2108420
  H        2.2423160    -1.2153800     1.4354410
  H        3.6255180    -0.5665000     0.5315230
  H       -1.9126600     2.1320090     0.2855670
  H       -2.4591310    -2.1595270     0.1391440
  H       -3.4140320     0.1624990     0.4585800
units angstrom
no_reorient  #important for SAPT in psi4, default
symmetry c1  #important for SAPT in psi4, default
}

set PROPERTIES_ORIGIN ["COM"]
properties('MP2/aug-cc-pvtz', properties = ['dipole'])
--------------------------------------------------------------------------

    Molecular point group: c1
  Charge       = 0
  Multiplicity = 1
  Basis Set: AUG-CC-PVTZ
    Blend: AUG-CC-PVTZ
  Basis Set: (AUG-CC-PVTZ AUX)
    Blend: AUG-CC-PVTZ-JKFIT

    Orbital Energies [Eh]
    ---------------------

    Doubly Occupied:

       1A    -20.506175     2A    -15.625829     3A    -11.350527
       4A    -11.308177     5A    -11.273392     6A    -11.270590
       7A    -11.239787     8A    -11.237319     9A    -11.221691
      10A     -1.368531    11A     -1.278873    12A     -1.118822
      13A     -1.030168    14A     -1.017792    15A     -0.895068
      16A     -0.872581    17A     -0.824900    18A     -0.715899
      19A     -0.698933    20A     -0.669772    21A     -0.638123
      22A     -0.613975    23A     -0.608669    24A     -0.604383
      25A     -0.560228    26A     -0.538019    27A     -0.534078
      28A     -0.526980    29A     -0.498743    30A     -0.475675
      31A     -0.421125    32A     -0.406536    33A     -0.308561

  @DF-RHF Final Energy:  -399.76825576899097

   => Energetics <=

    Nuclear Repulsion Energy =            437.2358311504861490
    One-Electron Energy =               -1409.4883312611962083
    Two-Electron Energy =                 572.4842443417190907
    Total Energy =                       -399.7682557689910254
  Basis Set: (AUG-CC-PVTZ AUX)
    Blend: AUG-CC-PVTZ-RI
    Molecular point group: c1

    Geometry (in Angstrom), charge = 0, multiplicity = 1:

       Center              X                  Y                   Z               Mass
    ------------   -----------------  -----------------  -----------------  -----------------
         O            0.719617579623     1.919144450880    -0.173332227051    15.994914619570
         N            0.358571579623    -0.352967549120    -0.286181227051    14.003074004430
         C            1.786890379623    -0.578446349120    -0.540468527051    12.000000000000
         C           -0.084659420377     0.976763450880    -0.100017227051    12.000000000000
         C           -0.460900420377    -1.442804549120    -0.185444227051    12.000000000000
         C            2.596837579623    -0.464037549120     0.754165772949    12.000000000000
         C           -1.500809420377     1.090033450880     0.164447772949    12.000000000000
         C           -1.795523420377    -1.310337549120     0.083075772949    12.000000000000
         C           -2.318714420377    -0.004207549120     0.260585772949    12.000000000000
         H            1.922015579623    -1.488272549120    -1.044315227051     1.007825032230
         H            2.095967579623     0.272835450880    -1.214820227051     1.007825032230
         H            0.016731579623    -2.406110549120    -0.340982227051     1.007825032230
         H            2.455074579623     0.510919450880     1.222632772949     1.007825032230
         H            2.278760579623    -1.247672549120     1.447231772949     1.007825032230
         H            3.661962579623    -0.598792549120     0.543313772949     1.007825032230
         H           -1.876215420377     2.099716450880     0.297357772949     1.007825032230
         H           -2.422686420377    -2.191819549120     0.150934772949     1.007825032230
         H           -3.377587420377     0.130206450880     0.470370772949     1.007825032230

  Basis Set: AUG-CC-PVTZ
    Blend: AUG-CC-PVTZ
  Basis Set: (AUG-CC-PVTZ AUX)
    Blend: AUG-CC-PVTZ-JKFIT
	 Reference Energy          =    -399.7682557689909686 [Eh]
	 Singles Energy            =      -0.0000000000000000 [Eh]
	 Same-Spin Energy          =      -0.4235361486464383 [Eh]
	 Opposite-Spin Energy      =      -1.3400450244418685 [Eh]
	 Correlation Energy        =      -1.7635811730883066 [Eh]
	 Total Energy              =    -401.5318369420792806 [Eh]

	 ================> DF-SCS-MP2 Energies <==================
	-----------------------------------------------------------
	 SCS Same-Spin Scale       =       0.3333333333333333 [-]
	 SCS Opposite-Spin Scale   =       1.2000000000000000 [-]
	 SCS Same-Spin Energy      =      -0.1411787162154794 [Eh]
	 SCS Opposite-Spin Energy  =      -1.6080540293302421 [Eh]
	 SCS Correlation Energy    =      -1.7492327455457215 [Eh]
	 SCS Total Energy          =    -401.5174885145366943 [Eh]
	-----------------------------------------------------------

  Dipole Moment: [D]
     X:    -0.7603      Y:    -3.8467      Z:     0.0243     Total:     3.9212

*** Psi4 exiting successfully. Buy a developer a beer!
