                               Psi4 1.3.2 release

  ==> Input File <==

--------------------------------------------------------------------------
#psi4
#
memory 32 gb

molecule  {
0 1
  O        0.6831730     1.9514370    -0.1851230
  N        0.3221270    -0.3206750    -0.2979720
  C        1.7580560    -0.4955670    -0.5492050
  C       -0.1211040     1.0090560    -0.1118080
  C       -0.4973450    -1.4105120    -0.1972350
  C        2.5603930    -0.4317450     0.7423750
  C       -1.5372540     1.1223260     0.1526570
  C       -1.8319680    -1.2780450     0.0712850
  C       -2.4289428     0.2122840     0.2738286
  H        1.8855710    -1.4559800    -1.0561060
  H        2.0595230     0.3051280    -1.2266110
  H       -0.0197130    -2.3738180    -0.3527730
  H        2.4186300     0.5432120     1.2108420
  H        2.2423160    -1.2153800     1.4354410
  H        3.6255180    -0.5665000     0.5315230
  H       -1.9126600     2.1320090     0.2855670
  H       -2.4591310    -2.1595270     0.1391440
  H       -3.4140320     0.1624990     0.4585800
units angstrom
no_reorient  #important for SAPT in psi4, default
symmetry c1  #important for SAPT in psi4, default
}

set PROPERTIES_ORIGIN ["COM"]
properties('MP2/aug-cc-pvtz', properties = ['dipole'])
--------------------------------------------------------------------------

    Molecular point group: c1
  Charge       = 0
  Multiplicity = 1
  Basis Set: AUG-CC-PVTZ
    Blend: AUG-CC-PVTZ
  Basis Set: (AUG-CC-PVTZ AUX)
    Blend: AUG-CC-PVTZ-JKFIT

    Orbital Energies [Eh]
    ---------------------

    Doubly Occupied:

       1A    -20.519756     2A    -15.615517     3A    -11.360978
       4A    -11.297268     5A    -11.270932     6A    -11.268672
       7A    -11.246057     8A    -11.236598     9A    -11.219308
      10A     -1.375708    11A     -1.274908    12A     -1.115879
      13A     -1.038957    14A     -1.006578    15A     -0.897484
      16A     -0.860531    17A     -0.830730    18A     -0.714361
      19A     -0.703072    20A     -0.675672    21A     -0.640318
      22A     -0.622077    23A     -0.610162    24A     -0.600776
      25A     -0.576243    26A     -0.533386    27A     -0.526565
      28A     -0.504284    29A     -0.485506    30A     -0.469590
      31A     -0.429545    32A     -0.416152    33A     -0.314412

  @DF-RHF Final Energy:  -399.73528419632373

   => Energetics <=

    Nuclear Repulsion Energy =            435.9181531910606964
    One-Electron Energy =               -1406.7909132278830384
    Two-Electron Energy =                 571.1374758404986096
    Total Energy =                       -399.7352841963237324
  Basis Set: (AUG-CC-PVTZ AUX)
    Blend: AUG-CC-PVTZ-RI
    Molecular point group: c1

    Geometry (in Angstrom), charge = 0, multiplicity = 1:

       Center              X                  Y                   Z               Mass
    ------------   -----------------  -----------------  -----------------  -----------------
         O            0.726069951720     1.896251252614    -0.176070986651    15.994914619570
         N            0.365023951720    -0.375860747386    -0.288919986651    14.003074004430
         C            1.800952951720    -0.550752747386    -0.540152986651    12.000000000000
         C           -0.078207048280     0.953870252614    -0.102755986651    12.000000000000
         C           -0.454448048280    -1.465697747386    -0.188182986651    12.000000000000
         C            2.603289951720    -0.486930747386     0.751427013349    12.000000000000
         C           -1.494357048280     1.067140252614     0.161709013349    12.000000000000
         C           -1.789071048280    -1.333230747386     0.080337013349    12.000000000000
         C           -2.386045848280     0.157098252614     0.282880613349    12.000000000000
         H            1.928467951720    -1.511165747386    -1.047053986651     1.007825032230
         H            2.102419951720     0.249942252614    -1.217558986651     1.007825032230
         H            0.023183951720    -2.429003747386    -0.343720986651     1.007825032230
         H            2.461526951720     0.488026252614     1.219894013349     1.007825032230
         H            2.285212951720    -1.270565747386     1.444493013349     1.007825032230
         H            3.668414951720    -0.621685747386     0.540575013349     1.007825032230
         H           -1.869763048280     2.076823252614     0.294619013349     1.007825032230
         H           -2.416234048280    -2.214712747386     0.148196013349     1.007825032230
         H           -3.371135048280     0.107313252614     0.467632013349     1.007825032230

  Basis Set: AUG-CC-PVTZ
    Blend: AUG-CC-PVTZ
  Basis Set: (AUG-CC-PVTZ AUX)
    Blend: AUG-CC-PVTZ-JKFIT
	 Reference Energy          =    -399.7352841963237324 [Eh]
	 Singles Energy            =      -0.0000000000000000 [Eh]
	 Same-Spin Energy          =      -0.4206934103976993 [Eh]
	 Opposite-Spin Energy      =      -1.3397433849763085 [Eh]
	 Correlation Energy        =      -1.7604367953740079 [Eh]
	 Total Energy              =    -401.4957209916977376 [Eh]

	 ================> DF-SCS-MP2 Energies <==================
	-----------------------------------------------------------
	 SCS Same-Spin Scale       =       0.3333333333333333 [-]
	 SCS Opposite-Spin Scale   =       1.2000000000000000 [-]
	 SCS Same-Spin Energy      =      -0.1402311367992331 [Eh]
	 SCS Opposite-Spin Energy  =      -1.6076920619715702 [Eh]
	 SCS Correlation Energy    =      -1.7479231987708033 [Eh]
	 SCS Total Energy          =    -401.4832073950945528 [Eh]
	-----------------------------------------------------------

  Dipole Moment: [D]
     X:    -0.8719      Y:    -3.3798      Z:     0.0678     Total:     3.4911

*** Psi4 exiting successfully. Buy a developer a beer!
