                               Psi4 1.3.2 release

  ==> Input File <==

--------------------------------------------------------------------------
#psi4
#
memory 32 gb

molecule  {
0 1
  O        0.6831730     1.9514370    -0.1851230
  N        0.3221270    -0.3206750    -0.2979720
  C        1.7580560    -0.4955670    -0.5492050
  C       -0.1211040     1.0090560    -0.1118080
  C       -0.4949996    -1.3867767    -0.1962256
  C        2.5603930    -0.4317450     0.7423750
  C       -1.5372540     1.1223260     0.1526570
  C       -1.8319680    -1.2780450     0.0712850
  C       -2.3551590     0.0280850     0.2487950
  H        1.8855710    -1.4559800    -1.0561060
  H        2.0595230     0.3051280    -1.2266110
  H       -0.0197130    -2.3738180    -0.3527730
  H        2.4186300     0.5432120     1.2108420
  H        2.2423160    -1.2153800     1.4354410
  H        3.6255180    -0.5665000     0.5315230
  H       -1.9126600     2.1320090     0.2855670
  H       -2.4591310    -2.1595270     0.1391440
  H       -3.4140320     0.1624990     0.4585800
units angstrom
no_reorient  #important for SAPT in psi4, default
symmetry c1  #important for SAPT in psi4, default
}

set PROPERTIES_ORIGIN ["COM"]
properties('MP2/aug-cc-pvtz', properties = ['dipole'])
--------------------------------------------------------------------------

    Molecular point group: c1
  Charge       = 0
  Multiplicity = 1
  Basis Set: AUG-CC-PVTZ
    Blend: AUG-CC-PVTZ
  Basis Set: (AUG-CC-PVTZ AUX)
    Blend: AUG-CC-PVTZ-JKFIT

    Orbital Energies [Eh]
    ---------------------

    Doubly Occupied:

       1A    -20.506273     2A    -15.627130     3A    -11.349841
       4A    -11.309202     5A    -11.275286     6A    -11.269963
       7A    -11.238417     8A    -11.235425     9A    -11.222122
      10A     -1.370701    11A     -1.283843    12A     -1.119421
      13A     -1.032220    14A     -1.017975    15A     -0.896117
      16A     -0.871107    17A     -0.826834    18A     -0.714100
      19A     -0.701266    20A     -0.664640    21A     -0.641435
      22A     -0.615682    23A     -0.607602    24A     -0.603850
      25A     -0.561579    26A     -0.538527    27A     -0.529710
      28A     -0.525861    29A     -0.506847    30A     -0.476136
      31A     -0.420889    32A     -0.409078    33A     -0.307270

  @DF-RHF Final Energy:  -399.77134526443831

   => Energetics <=

    Nuclear Repulsion Energy =            437.9033239454113300
    One-Electron Energy =               -1410.7966352396508682
    Two-Electron Energy =                 573.1219660298012286
    Total Energy =                       -399.7713452644383096
  Basis Set: (AUG-CC-PVTZ AUX)
    Blend: AUG-CC-PVTZ-RI
    Molecular point group: c1

    Geometry (in Angstrom), charge = 0, multiplicity = 1:

       Center              X                  Y                   Z               Mass
    ------------   -----------------  -----------------  -----------------  -----------------
         O            0.718646841509     1.911897545101    -0.173728465196    15.994914619570
         N            0.357600841509    -0.360214454899    -0.286577465196    14.003074004430
         C            1.793529841509    -0.535106454899    -0.537810465196    12.000000000000
         C           -0.085630158491     0.969516545101    -0.100413465196    12.000000000000
         C           -0.459525758491    -1.426316154899    -0.184831065196    12.000000000000
         C            2.595866841509    -0.471284454899     0.753769534804    12.000000000000
         C           -1.501780158491     1.082786545101     0.164051534804    12.000000000000
         C           -1.796494158491    -1.317584454899     0.082679534804    12.000000000000
         C           -2.319685158491    -0.011454454899     0.260189534804    12.000000000000
         H            1.921044841509    -1.495519454899    -1.044711465196     1.007825032230
         H            2.094996841509     0.265588545101    -1.215216465196     1.007825032230
         H            0.015760841509    -2.413357454899    -0.341378465196     1.007825032230
         H            2.454103841509     0.503672545101     1.222236534804     1.007825032230
         H            2.277789841509    -1.254919454899     1.446835534804     1.007825032230
         H            3.660991841509    -0.606039454899     0.542917534804     1.007825032230
         H           -1.877186158491     2.092469545101     0.296961534804     1.007825032230
         H           -2.423657158491    -2.199066454899     0.150538534804     1.007825032230
         H           -3.378558158491     0.122959545101     0.469974534804     1.007825032230

  Basis Set: AUG-CC-PVTZ
    Blend: AUG-CC-PVTZ
  Basis Set: (AUG-CC-PVTZ AUX)
    Blend: AUG-CC-PVTZ-JKFIT
	 Reference Energy          =    -399.7713452644383096 [Eh]
	 Singles Energy            =      -0.0000000000000000 [Eh]
	 Same-Spin Energy          =      -0.4235362799294849 [Eh]
	 Opposite-Spin Energy      =      -1.3395465410568559 [Eh]
	 Correlation Energy        =      -1.7630828209863409 [Eh]
	 Total Energy              =    -401.5344280854246790 [Eh]

	 ================> DF-SCS-MP2 Energies <==================
	-----------------------------------------------------------
	 SCS Same-Spin Scale       =       0.3333333333333333 [-]
	 SCS Opposite-Spin Scale   =       1.2000000000000000 [-]
	 SCS Same-Spin Energy      =      -0.1411787599764950 [Eh]
	 SCS Opposite-Spin Energy  =      -1.6074558492682269 [Eh]
	 SCS Correlation Energy    =      -1.7486346092447218 [Eh]
	 SCS Total Energy          =    -401.5199798736830417 [Eh]
	-----------------------------------------------------------

  Dipole Moment: [D]
     X:    -0.6911      Y:    -3.8010      Z:     0.0255     Total:     3.8634

*** Psi4 exiting successfully. Buy a developer a beer!
