                               Psi4 1.3.2 release

  ==> Input File <==

--------------------------------------------------------------------------
#psi4
#
memory 32 gb

molecule  {
0 1
  O        0.6831730     1.9514370    -0.1851230
  N        0.4575910    -0.2644929    -0.3179163
  C        1.7580560    -0.4955670    -0.5492050
  C       -0.1211040     1.0090560    -0.1118080
  C       -0.4973450    -1.4105120    -0.1972350
  C        2.5603930    -0.4317450     0.7423750
  C       -1.5372540     1.1223260     0.1526570
  C       -1.8319680    -1.2780450     0.0712850
  C       -2.3551590     0.0280850     0.2487950
  H        1.8855710    -1.4559800    -1.0561060
  H        2.0595230     0.3051280    -1.2266110
  H       -0.0197130    -2.3738180    -0.3527730
  H        2.4186300     0.5432120     1.2108420
  H        2.2423160    -1.2153800     1.4354410
  H        3.6255180    -0.5665000     0.5315230
  H       -1.9126600     2.1320090     0.2855670
  H       -2.4591310    -2.1595270     0.1391440
  H       -3.4140320     0.1624990     0.4585800
units angstrom
no_reorient  #important for SAPT in psi4, default
symmetry c1  #important for SAPT in psi4, default
}

set PROPERTIES_ORIGIN ["COM"]
properties('MP2/aug-cc-pvtz', properties = ['dipole'])
--------------------------------------------------------------------------

    Molecular point group: c1
  Charge       = 0
  Multiplicity = 1
  Basis Set: AUG-CC-PVTZ
    Blend: AUG-CC-PVTZ
  Basis Set: (AUG-CC-PVTZ AUX)
    Blend: AUG-CC-PVTZ-JKFIT

    Orbital Energies [Eh]
    ---------------------

    Doubly Occupied:

       1A    -20.503095     2A    -15.618405     3A    -11.350655
       4A    -11.316798     5A    -11.276718     6A    -11.258390
       7A    -11.252103     8A    -11.247057     9A    -11.213272
      10A     -1.371482    11A     -1.268470    12A     -1.133228
      13A     -1.024321    14A     -1.014059    15A     -0.907249
      16A     -0.866766    17A     -0.812643    18A     -0.712329
      19A     -0.706130    20A     -0.684121    21A     -0.638956
      22A     -0.615667    23A     -0.606350    24A     -0.601505
      25A     -0.558046    26A     -0.542033    27A     -0.528545
      28A     -0.526053    29A     -0.493790    30A     -0.467648
      31A     -0.420684    32A     -0.396278    33A     -0.316808

  @DF-RHF Final Energy:  -399.74138421988408

   => Energetics <=

    Nuclear Repulsion Energy =            437.2633420441047747
    One-Electron Energy =               -1409.5101387943964255
    Two-Electron Energy =                 572.5054125304075114
    Total Energy =                       -399.7413842198841394
  Basis Set: (AUG-CC-PVTZ AUX)
    Blend: AUG-CC-PVTZ-RI
    Molecular point group: c1

    Geometry (in Angstrom), charge = 0, multiplicity = 1:

       Center              X                  Y                   Z               Mass
    ------------   -----------------  -----------------  -----------------  -----------------
         O            0.703462054792     1.907819337801    -0.171360722738    15.994914619570
         N            0.477880054792    -0.308110562199    -0.304154022738    14.003074004430
         C            1.778345054792    -0.539184662199    -0.535442722738    12.000000000000
         C           -0.100814945208     0.965438337801    -0.098045722738    12.000000000000
         C           -0.477055945208    -1.454129662199    -0.183472722738    12.000000000000
         C            2.580682054792    -0.475362662199     0.756137277262    12.000000000000
         C           -1.516964945208     1.078708337801     0.166419277262    12.000000000000
         C           -1.811678945208    -1.321662662199     0.085047277262    12.000000000000
         C           -2.334869945208    -0.015532662199     0.262557277262    12.000000000000
         H            1.905860054792    -1.499597662199    -1.042343722738     1.007825032230
         H            2.079812054792     0.261510337801    -1.212848722738     1.007825032230
         H            0.000576054792    -2.417435662199    -0.339010722738     1.007825032230
         H            2.438919054792     0.499594337801     1.224604277262     1.007825032230
         H            2.262605054792    -1.258997662199     1.449203277262     1.007825032230
         H            3.645807054792    -0.610117662199     0.545285277262     1.007825032230
         H           -1.892370945208     2.088391337801     0.299329277262     1.007825032230
         H           -2.438841945208    -2.203144662199     0.152906277262     1.007825032230
         H           -3.393742945208     0.118881337801     0.472342277262     1.007825032230

  Basis Set: AUG-CC-PVTZ
    Blend: AUG-CC-PVTZ
  Basis Set: (AUG-CC-PVTZ AUX)
    Blend: AUG-CC-PVTZ-JKFIT
	 Reference Energy          =    -399.7413842198840825 [Eh]
	 Singles Energy            =      -0.0000000000000000 [Eh]
	 Same-Spin Energy          =      -0.4237298105754116 [Eh]
	 Opposite-Spin Energy      =      -1.3424533658857154 [Eh]
	 Correlation Energy        =      -1.7661831764611271 [Eh]
	 Total Energy              =    -401.5075673963452232 [Eh]

	 ================> DF-SCS-MP2 Energies <==================
	-----------------------------------------------------------
	 SCS Same-Spin Scale       =       0.3333333333333333 [-]
	 SCS Opposite-Spin Scale   =       1.2000000000000000 [-]
	 SCS Same-Spin Energy      =      -0.1412432701918039 [Eh]
	 SCS Opposite-Spin Energy  =      -1.6109440390628584 [Eh]
	 SCS Correlation Energy    =      -1.7521873092546623 [Eh]
	 SCS Total Energy          =    -401.4935715291387623 [Eh]
	-----------------------------------------------------------

  Dipole Moment: [D]
     X:    -1.3116      Y:    -3.8126      Z:     0.0837     Total:     4.0328

*** Psi4 exiting successfully. Buy a developer a beer!
