                               Psi4 1.3.2 release

  ==> Input File <==

--------------------------------------------------------------------------
#psi4
#
memory 32 gb

molecule  {
0 1
  O        0.6831730     1.9514370    -0.1851230
  N        0.3221270    -0.3206750    -0.2979720
  C        1.7580560    -0.4955670    -0.5492050
  C       -0.1211040     1.0090560    -0.1118080
  C       -0.4973450    -1.4105120    -0.1972350
  C        2.5603930    -0.4317450     0.7423750
  C       -1.5750260     1.1502845     0.1614147
  C       -1.8319680    -1.2780450     0.0712850
  C       -2.3551590     0.0280850     0.2487950
  H        1.8855710    -1.4559800    -1.0561060
  H        2.0595230     0.3051280    -1.2266110
  H       -0.0197130    -2.3738180    -0.3527730
  H        2.4186300     0.5432120     1.2108420
  H        2.2423160    -1.2153800     1.4354410
  H        3.6255180    -0.5665000     0.5315230
  H       -1.9126600     2.1320090     0.2855670
  H       -2.4591310    -2.1595270     0.1391440
  H       -3.4140320     0.1624990     0.4585800
units angstrom
no_reorient  #important for SAPT in psi4, default
symmetry c1  #important for SAPT in psi4, default
}

set PROPERTIES_ORIGIN ["COM"]
properties('MP2/aug-cc-pvtz', properties = ['dipole'])
--------------------------------------------------------------------------

    Molecular point group: c1
  Charge       = 0
  Multiplicity = 1
  Basis Set: AUG-CC-PVTZ
    Blend: AUG-CC-PVTZ
  Basis Set: (AUG-CC-PVTZ AUX)
    Blend: AUG-CC-PVTZ-JKFIT

    Orbital Energies [Eh]
    ---------------------

    Doubly Occupied:

       1A    -20.508701     2A    -15.624974     3A    -11.353494
       4A    -11.308499     5A    -11.274027     6A    -11.268734
       7A    -11.239883     8A    -11.238165     9A    -11.221201
      10A     -1.369359    11A     -1.278162    12A     -1.116894
      13A     -1.031019    14A     -1.015405    15A     -0.892584
      16A     -0.872908    17A     -0.821771    18A     -0.715295
      19A     -0.697896    20A     -0.670136    21A     -0.642573
      22A     -0.613754    23A     -0.607266    24A     -0.604520
      25A     -0.557720    26A     -0.546007    27A     -0.529086
      28A     -0.526657    29A     -0.505902    30A     -0.475057
      31A     -0.419389    32A     -0.408124    33A     -0.307849

  @DF-RHF Final Energy:  -399.76974408952884

   => Energetics <=

    Nuclear Repulsion Energy =            436.5672537399808562
    One-Electron Energy =               -1408.1479753948085545
    Two-Electron Energy =                 571.8109775652989129
    Total Energy =                       -399.7697440895287855
  Basis Set: (AUG-CC-PVTZ AUX)
    Blend: AUG-CC-PVTZ-RI
    Molecular point group: c1

    Geometry (in Angstrom), charge = 0, multiplicity = 1:

       Center              X                  Y                   Z               Mass
    ------------   -----------------  -----------------  -----------------  -----------------
         O            0.722558558453     1.911485754631    -0.174483976680    15.994914619570
         N            0.361512558453    -0.360626245369    -0.287332976680    14.003074004430
         C            1.797441558453    -0.535518245369    -0.538565976680    12.000000000000
         C           -0.081718441547     0.969104754631    -0.101168976680    12.000000000000
         C           -0.457959441547    -1.450463245369    -0.186595976680    12.000000000000
         C            2.599778558453    -0.471696245369     0.753014023320    12.000000000000
         C           -1.535640441547     1.110333254631     0.172053723320    12.000000000000
         C           -1.792582441547    -1.317996245369     0.081924023320    12.000000000000
         C           -2.315773441547    -0.011866245369     0.259434023320    12.000000000000
         H            1.924956558453    -1.495931245369    -1.045466976680     1.007825032230
         H            2.098908558453     0.265176754631    -1.215971976680     1.007825032230
         H            0.019672558453    -2.413769245369    -0.342133976680     1.007825032230
         H            2.458015558453     0.503260754631     1.221481023320     1.007825032230
         H            2.281701558453    -1.255331245369     1.446080023320     1.007825032230
         H            3.664903558453    -0.606451245369     0.542162023320     1.007825032230
         H           -1.873274441547     2.092057754631     0.296206023320     1.007825032230
         H           -2.419745441547    -2.199478245369     0.149783023320     1.007825032230
         H           -3.374646441547     0.122547754631     0.469219023320     1.007825032230

  Basis Set: AUG-CC-PVTZ
    Blend: AUG-CC-PVTZ
  Basis Set: (AUG-CC-PVTZ AUX)
    Blend: AUG-CC-PVTZ-JKFIT
	 Reference Energy          =    -399.7697440895288423 [Eh]
	 Singles Energy            =      -0.0000000000000000 [Eh]
	 Same-Spin Energy          =      -0.4227429277247898 [Eh]
	 Opposite-Spin Energy      =      -1.3394041981144835 [Eh]
	 Correlation Energy        =      -1.7621471258392734 [Eh]
	 Total Energy              =    -401.5318912153680913 [Eh]

	 ================> DF-SCS-MP2 Energies <==================
	-----------------------------------------------------------
	 SCS Same-Spin Scale       =       0.3333333333333333 [-]
	 SCS Opposite-Spin Scale   =       1.2000000000000000 [-]
	 SCS Same-Spin Energy      =      -0.1409143092415966 [Eh]
	 SCS Opposite-Spin Energy  =      -1.6072850377373802 [Eh]
	 SCS Correlation Energy    =      -1.7481993469789767 [Eh]
	 SCS Total Energy          =    -401.5179434365078350 [Eh]
	-----------------------------------------------------------

  Dipole Moment: [D]
     X:    -0.6967      Y:    -3.7313      Z:     0.0243     Total:     3.7959

*** Psi4 exiting successfully. Buy a developer a beer!
