                               Psi4 1.3.2 release

  ==> Input File <==

--------------------------------------------------------------------------
#psi4
#
memory 32 gb

molecule  {
0 1
  O        0.7748569     1.8624179    -0.2084833
  N        0.3221270    -0.3206750    -0.2979720
  C        1.7580560    -0.4955670    -0.5492050
  C       -0.1211040     1.0090560    -0.1118080
  C       -0.4973450    -1.4105120    -0.1972350
  C        2.5603930    -0.4317450     0.7423750
  C       -1.5372540     1.1223260     0.1526570
  C       -1.8319680    -1.2780450     0.0712850
  C       -2.3551590     0.0280850     0.2487950
  H        1.8855710    -1.4559800    -1.0561060
  H        2.0595230     0.3051280    -1.2266110
  H       -0.0197130    -2.3738180    -0.3527730
  H        2.4186300     0.5432120     1.2108420
  H        2.2423160    -1.2153800     1.4354410
  H        3.6255180    -0.5665000     0.5315230
  H       -1.9126600     2.1320090     0.2855670
  H       -2.4591310    -2.1595270     0.1391440
  H       -3.4140320     0.1624990     0.4585800
units angstrom
no_reorient  #important for SAPT in psi4, default
symmetry c1  #important for SAPT in psi4, default
}

set PROPERTIES_ORIGIN ["COM"]
properties('MP2/aug-cc-pvtz', properties = ['dipole'])
--------------------------------------------------------------------------

    Molecular point group: c1
  Charge       = 0
  Multiplicity = 1
  Basis Set: AUG-CC-PVTZ
    Blend: AUG-CC-PVTZ
  Basis Set: (AUG-CC-PVTZ AUX)
    Blend: AUG-CC-PVTZ-JKFIT

    Orbital Energies [Eh]
    ---------------------

    Doubly Occupied:

       1A    -20.503956     2A    -15.621967     3A    -11.350009
       4A    -11.308681     5A    -11.274238     6A    -11.269947
       7A    -11.240081     8A    -11.239522     9A    -11.218207
      10A     -1.372462    11A     -1.272595    12A     -1.119784
      13A     -1.030933    14A     -1.016927    15A     -0.895426
      16A     -0.868302    17A     -0.824234    18A     -0.714053
      19A     -0.701486    20A     -0.667454    21A     -0.639605
      22A     -0.613445    23A     -0.608759    24A     -0.600947
      25A     -0.560317    26A     -0.538161    27A     -0.528231
      28A     -0.523621    29A     -0.502602    30A     -0.473387
      31A     -0.420714    32A     -0.407295    33A     -0.309508

  @DF-RHF Final Energy:  -399.76776730669553

   => Energetics <=

    Nuclear Repulsion Energy =            438.5844513946146321
    One-Electron Energy =               -1412.2307257531851974
    Two-Electron Energy =                 573.8785070518749762
    Total Energy =                       -399.7677673066955322
  Basis Set: (AUG-CC-PVTZ AUX)
    Blend: AUG-CC-PVTZ-RI
    Molecular point group: c1

    Geometry (in Angstrom), charge = 0, multiplicity = 1:

       Center              X                  Y                   Z               Mass
    ------------   -----------------  -----------------  -----------------  -----------------
         O            0.798643491249     1.836762401591    -0.193954258203    15.994914619570
         N            0.345913591249    -0.346330498409    -0.283442958203    14.003074004430
         C            1.781842591249    -0.521222498409    -0.534675958203    12.000000000000
         C           -0.097317408751     0.983400501591    -0.097278958203    12.000000000000
         C           -0.473558408751    -1.436167498409    -0.182705958203    12.000000000000
         C            2.584179591249    -0.457400498409     0.756904041797    12.000000000000
         C           -1.513467408751     1.096670501591     0.167186041797    12.000000000000
         C           -1.808181408751    -1.303700498409     0.085814041797    12.000000000000
         C           -2.331372408751     0.002429501591     0.263324041797    12.000000000000
         H            1.909357591249    -1.481635498409    -1.041576958203     1.007825032230
         H            2.083309591249     0.279472501591    -1.212081958203     1.007825032230
         H            0.004073591249    -2.399473498409    -0.338243958203     1.007825032230
         H            2.442416591249     0.517556501591     1.225371041797     1.007825032230
         H            2.266102591249    -1.241035498409     1.449970041797     1.007825032230
         H            3.649304591249    -0.592155498409     0.546052041797     1.007825032230
         H           -1.888873408751     2.106353501591     0.300096041797     1.007825032230
         H           -2.435344408751    -2.185182498409     0.153673041797     1.007825032230
         H           -3.390245408751     0.136843501591     0.473109041797     1.007825032230

  Basis Set: AUG-CC-PVTZ
    Blend: AUG-CC-PVTZ
  Basis Set: (AUG-CC-PVTZ AUX)
    Blend: AUG-CC-PVTZ-JKFIT
	 Reference Energy          =    -399.7677673066955322 [Eh]
	 Singles Energy            =      -0.0000000000000000 [Eh]
	 Same-Spin Energy          =      -0.4240531281089012 [Eh]
	 Opposite-Spin Energy      =      -1.3402054234361902 [Eh]
	 Correlation Energy        =      -1.7642585515450913 [Eh]
	 Total Energy              =    -401.5320258582406154 [Eh]

	 ================> DF-SCS-MP2 Energies <==================
	-----------------------------------------------------------
	 SCS Same-Spin Scale       =       0.3333333333333333 [-]
	 SCS Opposite-Spin Scale   =       1.2000000000000000 [-]
	 SCS Same-Spin Energy      =      -0.1413510427029671 [Eh]
	 SCS Opposite-Spin Energy  =      -1.6082465081234283 [Eh]
	 SCS Correlation Energy    =      -1.7495975508263952 [Eh]
	 SCS Total Energy          =    -401.5173648575219545 [Eh]
	-----------------------------------------------------------

  Dipole Moment: [D]
     X:    -0.9744      Y:    -3.6421      Z:     0.0675     Total:     3.7708

*** Psi4 exiting successfully. Buy a developer a beer!
