                               Psi4 1.3.2 release

  ==> Input File <==

--------------------------------------------------------------------------
#psi4
#
memory 32 gb

molecule  {
0 1
  O        0.6831730     1.9514370    -0.1851230
  N        0.3221270    -0.3206750    -0.2979720
  C        1.7580560    -0.4955670    -0.5492050
  C       -0.1211040     1.0090560    -0.1118080
  C       -0.4930614    -1.3630083    -0.1951348
  C        2.5603930    -0.4317450     0.7423750
  C       -1.5372540     1.1223260     0.1526570
  C       -1.8319680    -1.2780450     0.0712850
  C       -2.3551590     0.0280850     0.2487950
  H        1.8855710    -1.4559800    -1.0561060
  H        2.0595230     0.3051280    -1.2266110
  H       -0.0197130    -2.3738180    -0.3527730
  H        2.4186300     0.5432120     1.2108420
  H        2.2423160    -1.2153800     1.4354410
  H        3.6255180    -0.5665000     0.5315230
  H       -1.9126600     2.1320090     0.2855670
  H       -2.4591310    -2.1595270     0.1391440
  H       -3.4140320     0.1624990     0.4585800
units angstrom
no_reorient  #important for SAPT in psi4, default
symmetry c1  #important for SAPT in psi4, default
}

set PROPERTIES_ORIGIN ["COM"]
properties('MP2/aug-cc-pvtz', properties = ['dipole'])
--------------------------------------------------------------------------

    Molecular point group: c1
  Charge       = 0
  Multiplicity = 1
  Basis Set: AUG-CC-PVTZ
    Blend: AUG-CC-PVTZ
  Basis Set: (AUG-CC-PVTZ AUX)
    Blend: AUG-CC-PVTZ-JKFIT

    Orbital Energies [Eh]
    ---------------------

    Doubly Occupied:

       1A    -20.506358     2A    -15.628739     3A    -11.349839
       4A    -11.309637     5A    -11.276793     6A    -11.269359
       7A    -11.236816     8A    -11.233818     9A    -11.223127
      10A     -1.372671    11A     -1.289404    12A     -1.119814
      13A     -1.033521    14A     -1.017638    15A     -0.896822
      16A     -0.872189    17A     -0.828562    18A     -0.714152
      19A     -0.701945    20A     -0.662351    21A     -0.642786
      22A     -0.617910    23A     -0.608123    24A     -0.601469
      25A     -0.562660    26A     -0.539339    27A     -0.529946
      28A     -0.524442    29A     -0.508095    30A     -0.477447
      31A     -0.420591    32A     -0.410365    33A     -0.305822

  @DF-RHF Final Energy:  -399.76969770643444

   => Energetics <=

    Nuclear Repulsion Energy =            438.3772020635259423
    One-Electron Energy =               -1411.7086941957679755
    Two-Electron Energy =                 573.5617944258076477
    Total Energy =                       -399.7696977064343855
  Basis Set: (AUG-CC-PVTZ AUX)
    Blend: AUG-CC-PVTZ-RI
    Molecular point group: c1

    Geometry (in Angstrom), charge = 0, multiplicity = 1:

       Center              X                  Y                   Z               Mass
    ------------   -----------------  -----------------  -----------------  -----------------
         O            0.718457853943     1.909579965871    -0.173834825549    15.994914619570
         N            0.357411853943    -0.362532034129    -0.286683825549    14.003074004430
         C            1.793340853943    -0.537424034129    -0.537916825549    12.000000000000
         C           -0.085819146057     0.967198965871    -0.100519825549    12.000000000000
         C           -0.457776546057    -1.404865334129    -0.183846625549    12.000000000000
         C            2.595677853943    -0.473602034129     0.753663174451    12.000000000000
         C           -1.501969146057     1.080468965871     0.163945174451    12.000000000000
         C           -1.796683146057    -1.319902034129     0.082573174451    12.000000000000
         C           -2.319874146057    -0.013772034129     0.260083174451    12.000000000000
         H            1.920855853943    -1.497837034129    -1.044817825549     1.007825032230
         H            2.094807853943     0.263270965871    -1.215322825549     1.007825032230
         H            0.015571853943    -2.415675034129    -0.341484825549     1.007825032230
         H            2.453914853943     0.501354965871     1.222130174451     1.007825032230
         H            2.277600853943    -1.257237034129     1.446729174451     1.007825032230
         H            3.660802853943    -0.608357034129     0.542811174451     1.007825032230
         H           -1.877375146057     2.090151965871     0.296855174451     1.007825032230
         H           -2.423846146057    -2.201384034129     0.150432174451     1.007825032230
         H           -3.378747146057     0.120641965871     0.469868174451     1.007825032230

  Basis Set: AUG-CC-PVTZ
    Blend: AUG-CC-PVTZ
  Basis Set: (AUG-CC-PVTZ AUX)
    Blend: AUG-CC-PVTZ-JKFIT
	 Reference Energy          =    -399.7696977064344424 [Eh]
	 Singles Energy            =      -0.0000000000000000 [Eh]
	 Same-Spin Energy          =      -0.4236331608151443 [Eh]
	 Opposite-Spin Energy      =      -1.3393254394737768 [Eh]
	 Correlation Energy        =      -1.7629586002889210 [Eh]
	 Total Energy              =    -401.5326563067233678 [Eh]

	 ================> DF-SCS-MP2 Energies <==================
	-----------------------------------------------------------
	 SCS Same-Spin Scale       =       0.3333333333333333 [-]
	 SCS Opposite-Spin Scale   =       1.2000000000000000 [-]
	 SCS Same-Spin Energy      =      -0.1412110536050481 [Eh]
	 SCS Opposite-Spin Energy  =      -1.6071905273685321 [Eh]
	 SCS Correlation Energy    =      -1.7484015809735802 [Eh]
	 SCS Total Energy          =    -401.5180992874080061 [Eh]
	-----------------------------------------------------------

  Dipole Moment: [D]
     X:    -0.6242      Y:    -3.7877      Z:     0.0192     Total:     3.8388

*** Psi4 exiting successfully. Buy a developer a beer!
