                               Psi4 1.3.2 release

  ==> Input File <==

--------------------------------------------------------------------------
#psi4
#
memory 32 gb

molecule  {
0 1
  O        0.6831730     1.9514370    -0.1851230
  N        0.3221270    -0.3206750    -0.2979720
  C        1.8558583    -0.5074790    -0.5663167
  C       -0.1211040     1.0090560    -0.1118080
  C       -0.4973450    -1.4105120    -0.1972350
  C        2.5603930    -0.4317450     0.7423750
  C       -1.5372540     1.1223260     0.1526570
  C       -1.8319680    -1.2780450     0.0712850
  C       -2.3551590     0.0280850     0.2487950
  H        1.8855710    -1.4559800    -1.0561060
  H        2.0595230     0.3051280    -1.2266110
  H       -0.0197130    -2.3738180    -0.3527730
  H        2.4186300     0.5432120     1.2108420
  H        2.2423160    -1.2153800     1.4354410
  H        3.6255180    -0.5665000     0.5315230
  H       -1.9126600     2.1320090     0.2855670
  H       -2.4591310    -2.1595270     0.1391440
  H       -3.4140320     0.1624990     0.4585800
units angstrom
no_reorient  #important for SAPT in psi4, default
symmetry c1  #important for SAPT in psi4, default
}

set PROPERTIES_ORIGIN ["COM"]
properties('MP2/aug-cc-pvtz', properties = ['dipole'])
--------------------------------------------------------------------------

    Molecular point group: c1
  Charge       = 0
  Multiplicity = 1
  Basis Set: AUG-CC-PVTZ
    Blend: AUG-CC-PVTZ
  Basis Set: (AUG-CC-PVTZ AUX)
    Blend: AUG-CC-PVTZ-JKFIT

    Orbital Energies [Eh]
    ---------------------

    Doubly Occupied:

       1A    -20.502223     2A    -15.620036     3A    -11.345932
       4A    -11.305684     5A    -11.280073     6A    -11.267522
       7A    -11.236564     8A    -11.233699     9A    -11.224069
      10A     -1.361998    11A     -1.264449    12A     -1.112467
      13A     -1.037488    14A     -1.018456    15A     -0.889316
      16A     -0.865005    17A     -0.826688    18A     -0.709690
      19A     -0.696523    20A     -0.659853    21A     -0.636392
      22A     -0.618871    23A     -0.607513    24A     -0.599581
      25A     -0.559811    26A     -0.545633    27A     -0.535516
      28A     -0.517015    29A     -0.511356    30A     -0.473565
      31A     -0.416160    32A     -0.407085    33A     -0.305407

  @DF-RHF Final Energy:  -399.76354123427359

   => Energetics <=

    Nuclear Repulsion Energy =            435.8152215354205055
    One-Electron Energy =               -1406.7742501500254093
    Two-Electron Energy =                 571.1954873803313149
    Total Energy =                       -399.7635412342735890
  Basis Set: (AUG-CC-PVTZ AUX)
    Blend: AUG-CC-PVTZ-RI
    Molecular point group: c1

    Geometry (in Angstrom), charge = 0, multiplicity = 1:

       Center              X                  Y                   Z               Mass
    ------------   -----------------  -----------------  -----------------  -----------------
         O            0.709339150254     1.915373397161    -0.171961535786    15.994914619570
         N            0.348293150254    -0.356738602839    -0.284810535786    14.003074004430
         C            1.882024450254    -0.543542602839    -0.553155235786    12.000000000000
         C           -0.094937849746     0.972992397161    -0.098646535786    12.000000000000
         C           -0.471178849746    -1.446575602839    -0.184073535786    12.000000000000
         C            2.586559150254    -0.467808602839     0.755536464214    12.000000000000
         C           -1.511087849746     1.086262397161     0.165818464214    12.000000000000
         C           -1.805801849746    -1.314108602839     0.084446464214    12.000000000000
         C           -2.328992849746    -0.007978602839     0.261956464214    12.000000000000
         H            1.911737150254    -1.492043602839    -1.042944535786     1.007825032230
         H            2.085689150254     0.269064397161    -1.213449535786     1.007825032230
         H            0.006453150254    -2.409881602839    -0.339611535786     1.007825032230
         H            2.444796150254     0.507148397161     1.224003464214     1.007825032230
         H            2.268482150254    -1.251443602839     1.448602464214     1.007825032230
         H            3.651684150254    -0.602563602839     0.544684464214     1.007825032230
         H           -1.886493849746     2.095945397161     0.298728464214     1.007825032230
         H           -2.432964849746    -2.195590602839     0.152305464214     1.007825032230
         H           -3.387865849746     0.126435397161     0.471741464214     1.007825032230

  Basis Set: AUG-CC-PVTZ
    Blend: AUG-CC-PVTZ
  Basis Set: (AUG-CC-PVTZ AUX)
    Blend: AUG-CC-PVTZ-JKFIT
	 Reference Energy          =    -399.7635412342735890 [Eh]
	 Singles Energy            =      -0.0000000000000000 [Eh]
	 Same-Spin Energy          =      -0.4235260441582362 [Eh]
	 Opposite-Spin Energy      =      -1.3403627718633921 [Eh]
	 Correlation Energy        =      -1.7638888160216284 [Eh]
	 Total Energy              =    -401.5274300502952087 [Eh]

	 ================> DF-SCS-MP2 Energies <==================
	-----------------------------------------------------------
	 SCS Same-Spin Scale       =       0.3333333333333333 [-]
	 SCS Opposite-Spin Scale   =       1.2000000000000000 [-]
	 SCS Same-Spin Energy      =      -0.1411753480527454 [Eh]
	 SCS Opposite-Spin Energy  =      -1.6084353262360704 [Eh]
	 SCS Correlation Energy    =      -1.7496106742888158 [Eh]
	 SCS Total Energy          =    -401.5131519085624063 [Eh]
	-----------------------------------------------------------

  Dipole Moment: [D]
     X:    -0.4346      Y:    -3.8978      Z:     0.0240     Total:     3.9220

*** Psi4 exiting successfully. Buy a developer a beer!
