                               Psi4 1.3.2 release

  ==> Input File <==

--------------------------------------------------------------------------
#psi4
#
memory 32 gb

molecule  {
0 1
  O        0.6171453     2.0050786    -0.1687770
  N        0.3221270    -0.3206750    -0.2979720
  C        1.7580560    -0.4955670    -0.5492050
  C       -0.1211040     1.0090560    -0.1118080
  C       -0.4973450    -1.4105120    -0.1972350
  C        2.5603930    -0.4317450     0.7423750
  C       -1.5372540     1.1223260     0.1526570
  C       -1.8319680    -1.2780450     0.0712850
  C       -2.3551590     0.0280850     0.2487950
  H        1.8855710    -1.4559800    -1.0561060
  H        2.0595230     0.3051280    -1.2266110
  H       -0.0197130    -2.3738180    -0.3527730
  H        2.4186300     0.5432120     1.2108420
  H        2.2423160    -1.2153800     1.4354410
  H        3.6255180    -0.5665000     0.5315230
  H       -1.9126600     2.1320090     0.2855670
  H       -2.4591310    -2.1595270     0.1391440
  H       -3.4140320     0.1624990     0.4585800
units angstrom
no_reorient  #important for SAPT in psi4, default
symmetry c1  #important for SAPT in psi4, default
}

set PROPERTIES_ORIGIN ["COM"]
properties('MP2/aug-cc-pvtz', properties = ['dipole'])
--------------------------------------------------------------------------

    Molecular point group: c1
  Charge       = 0
  Multiplicity = 1
  Basis Set: AUG-CC-PVTZ
    Blend: AUG-CC-PVTZ
  Basis Set: (AUG-CC-PVTZ AUX)
    Blend: AUG-CC-PVTZ-JKFIT

    Orbital Energies [Eh]
    ---------------------

    Doubly Occupied:

       1A    -20.507422     2A    -15.627709     3A    -11.349930
       4A    -11.308630     5A    -11.276156     6A    -11.267851
       7A    -11.240394     8A    -11.234943     9A    -11.223020
      10A     -1.367570    11A     -1.281757    12A     -1.118466
      13A     -1.031546    14A     -1.018421    15A     -0.895741
      16A     -0.871489    17A     -0.824973    18A     -0.714431
      19A     -0.699885    20A     -0.667426    21A     -0.640267
      22A     -0.614360    23A     -0.610089    24A     -0.604269
      25A     -0.560508    26A     -0.538962    27A     -0.530692
      28A     -0.526542    29A     -0.507571    30A     -0.475750
      31A     -0.420313    32A     -0.407801    33A     -0.308001

  @DF-RHF Final Energy:  -399.77034274423255

   => Energetics <=

    Nuclear Repulsion Energy =            436.8175925912694879
    One-Electron Energy =               -1408.6300939395969181
    Two-Electron Energy =                 572.0421586040948796
    Total Energy =                       -399.7703427442326074
  Basis Set: (AUG-CC-PVTZ AUX)
    Blend: AUG-CC-PVTZ-RI
    Molecular point group: c1

    Geometry (in Angstrom), charge = 0, multiplicity = 1:

       Center              X                  Y                   Z               Mass
    ------------   -----------------  -----------------  -----------------  -----------------
         O            0.661429299937     1.960881823260    -0.159408493373    15.994914619570
         N            0.366410999937    -0.364871776740    -0.288603493373    14.003074004430
         C            1.802339999937    -0.539763776740    -0.539836493373    12.000000000000
         C           -0.076820000063     0.964859223260    -0.102439493373    12.000000000000
         C           -0.453061000063    -1.454708776740    -0.187866493373    12.000000000000
         C            2.604676999937    -0.475941776740     0.751743506627    12.000000000000
         C           -1.492970000063     1.078129223260     0.162025506627    12.000000000000
         C           -1.787684000063    -1.322241776740     0.080653506627    12.000000000000
         C           -2.310875000063    -0.016111776740     0.258163506627    12.000000000000
         H            1.929854999937    -1.500176776740    -1.046737493373     1.007825032230
         H            2.103806999937     0.260931223260    -1.217242493373     1.007825032230
         H            0.024570999937    -2.418014776740    -0.343404493373     1.007825032230
         H            2.462913999937     0.499015223260     1.220210506627     1.007825032230
         H            2.286599999937    -1.259576776740     1.444809506627     1.007825032230
         H            3.669801999937    -0.610696776740     0.540891506627     1.007825032230
         H           -1.868376000063     2.087812223260     0.294935506627     1.007825032230
         H           -2.414847000063    -2.203723776740     0.148512506627     1.007825032230
         H           -3.369748000063     0.118302223260     0.467948506627     1.007825032230

  Basis Set: AUG-CC-PVTZ
    Blend: AUG-CC-PVTZ
  Basis Set: (AUG-CC-PVTZ AUX)
    Blend: AUG-CC-PVTZ-JKFIT
	 Reference Energy          =    -399.7703427442325506 [Eh]
	 Singles Energy            =      -0.0000000000000000 [Eh]
	 Same-Spin Energy          =      -0.4232311996091054 [Eh]
	 Opposite-Spin Energy      =      -1.3398907591451681 [Eh]
	 Correlation Energy        =      -1.7631219587542735 [Eh]
	 Total Energy              =    -401.5334647029868052 [Eh]

	 ================> DF-SCS-MP2 Energies <==================
	-----------------------------------------------------------
	 SCS Same-Spin Scale       =       0.3333333333333333 [-]
	 SCS Opposite-Spin Scale   =       1.2000000000000000 [-]
	 SCS Same-Spin Energy      =      -0.1410770665363685 [Eh]
	 SCS Opposite-Spin Energy  =      -1.6078689109742017 [Eh]
	 SCS Correlation Energy    =      -1.7489459775105702 [Eh]
	 SCS Total Energy          =    -401.5192887217431235 [Eh]
	-----------------------------------------------------------

  Dipole Moment: [D]
     X:    -0.6006      Y:    -3.9073      Z:     0.0061     Total:     3.9532

*** Psi4 exiting successfully. Buy a developer a beer!
