                               Psi4 1.3.2 release

  ==> Input File <==

--------------------------------------------------------------------------
#psi4
#
memory 32 gb

molecule  {
0 1
  O        0.6831730     1.9514370    -0.1851230
  N        0.3221270    -0.3206750    -0.2979720
  C        1.7580560    -0.4955670    -0.5492050
  C       -0.1211040     1.0090560    -0.1118080
  C       -0.4904845    -1.3153779    -0.1930960
  C        2.5603930    -0.4317450     0.7423750
  C       -1.5372540     1.1223260     0.1526570
  C       -1.8319680    -1.2780450     0.0712850
  C       -2.3551590     0.0280850     0.2487950
  H        1.8855710    -1.4559800    -1.0561060
  H        2.0595230     0.3051280    -1.2266110
  H       -0.0197130    -2.3738180    -0.3527730
  H        2.4186300     0.5432120     1.2108420
  H        2.2423160    -1.2153800     1.4354410
  H        3.6255180    -0.5665000     0.5315230
  H       -1.9126600     2.1320090     0.2855670
  H       -2.4591310    -2.1595270     0.1391440
  H       -3.4140320     0.1624990     0.4585800
units angstrom
no_reorient  #important for SAPT in psi4, default
symmetry c1  #important for SAPT in psi4, default
}

set PROPERTIES_ORIGIN ["COM"]
properties('MP2/aug-cc-pvtz', properties = ['dipole'])
--------------------------------------------------------------------------

    Molecular point group: c1
  Charge       = 0
  Multiplicity = 1
  Basis Set: AUG-CC-PVTZ
    Blend: AUG-CC-PVTZ
  Basis Set: (AUG-CC-PVTZ AUX)
    Blend: AUG-CC-PVTZ-JKFIT

    Orbital Energies [Eh]
    ---------------------

    Doubly Occupied:

       1A    -20.506635     2A    -15.631831     3A    -11.349890
       4A    -11.310684     5A    -11.279855     6A    -11.268241
       7A    -11.233980     8A    -11.230716     9A    -11.225161
      10A     -1.377673    11A     -1.300301    12A     -1.120834
      13A     -1.037065    14A     -1.016362    15A     -0.898781
      16A     -0.875321    17A     -0.831119    18A     -0.715210
      19A     -0.702932    20A     -0.659789    21A     -0.644630
      22A     -0.623028    23A     -0.609339    24A     -0.595504
      25A     -0.564691    26A     -0.542066    27A     -0.531442
      28A     -0.518492    29A     -0.510421    30A     -0.480300
      31A     -0.419811    32A     -0.412738    33A     -0.303104

  @DF-RHF Final Energy:  -399.76191250333869

   => Energetics <=

    Nuclear Repulsion Energy =            439.3394187554901578
    One-Electron Energy =               -1413.5467701435081835
    Two-Electron Energy =                 574.4454388846793336
    Total Energy =                       -399.7619125033386354
  Basis Set: (AUG-CC-PVTZ AUX)
    Blend: AUG-CC-PVTZ-RI
    Molecular point group: c1

    Geometry (in Angstrom), charge = 0, multiplicity = 1:

       Center              X                  Y                   Z               Mass
    ------------   -----------------  -----------------  -----------------  -----------------
         O            0.718206588821     1.904935680779    -0.174033622293    15.994914619570
         N            0.357160588821    -0.367176319221    -0.286882622293    14.003074004430
         C            1.793089588821    -0.542068319221    -0.538115622293    12.000000000000
         C           -0.086070411179     0.962554680779    -0.100718622293    12.000000000000
         C           -0.455450911179    -1.361879219221    -0.182006622293    12.000000000000
         C            2.595426588821    -0.478246319221     0.753464377707    12.000000000000
         C           -1.502220411179     1.075824680779     0.163746377707    12.000000000000
         C           -1.796934411179    -1.324546319221     0.082374377707    12.000000000000
         C           -2.320125411179    -0.018416319221     0.259884377707    12.000000000000
         H            1.920604588821    -1.502481319221    -1.045016622293     1.007825032230
         H            2.094556588821     0.258626680779    -1.215521622293     1.007825032230
         H            0.015320588821    -2.420319319221    -0.341683622293     1.007825032230
         H            2.453663588821     0.496710680779     1.221931377707     1.007825032230
         H            2.277349588821    -1.261881319221     1.446530377707     1.007825032230
         H            3.660551588821    -0.613001319221     0.542612377707     1.007825032230
         H           -1.877626411179     2.085507680779     0.296656377707     1.007825032230
         H           -2.424097411179    -2.206028319221     0.150233377707     1.007825032230
         H           -3.378998411179     0.115997680779     0.469669377707     1.007825032230

  Basis Set: AUG-CC-PVTZ
    Blend: AUG-CC-PVTZ
  Basis Set: (AUG-CC-PVTZ AUX)
    Blend: AUG-CC-PVTZ-JKFIT
	 Reference Energy          =    -399.7619125033386922 [Eh]
	 Singles Energy            =      -0.0000000000000000 [Eh]
	 Same-Spin Energy          =      -0.4238743101502818 [Eh]
	 Opposite-Spin Energy      =      -1.3391057209440613 [Eh]
	 Correlation Energy        =      -1.7629800310943431 [Eh]
	 Total Energy              =    -401.5248925344330360 [Eh]

	 ================> DF-SCS-MP2 Energies <==================
	-----------------------------------------------------------
	 SCS Same-Spin Scale       =       0.3333333333333333 [-]
	 SCS Opposite-Spin Scale   =       1.2000000000000000 [-]
	 SCS Same-Spin Energy      =      -0.1412914367167606 [Eh]
	 SCS Opposite-Spin Energy  =      -1.6069268651328736 [Eh]
	 SCS Correlation Energy    =      -1.7482183018496342 [Eh]
	 SCS Total Energy          =    -401.5101308051883393 [Eh]
	-----------------------------------------------------------

  Dipole Moment: [D]
     X:    -0.4918      Y:    -3.7548      Z:     0.0082     Total:     3.7869

*** Psi4 exiting successfully. Buy a developer a beer!
