                               Psi4 1.4a3.dev225

  ==> Input File <==

--------------------------------------------------------------------------
#psi4
#
memory 32 gb

molecule  {
0 1
  O        0.6831730     1.9514370    -0.1851230
  N        0.3221270    -0.3206750    -0.2979720
  C        1.7091548    -0.4896110    -0.5406492
  C       -0.1211040     1.0090560    -0.1118080
  C       -0.4973450    -1.4105120    -0.1972350
  C        2.5603930    -0.4317450     0.7423750
  C       -1.5372540     1.1223260     0.1526570
  C       -1.8319680    -1.2780450     0.0712850
  C       -2.3551590     0.0280850     0.2487950
  H        1.8855710    -1.4559800    -1.0561060
  H        2.0595230     0.3051280    -1.2266110
  H       -0.0197130    -2.3738180    -0.3527730
  H        2.4186300     0.5432120     1.2108420
  H        2.2423160    -1.2153800     1.4354410
  H        3.6255180    -0.5665000     0.5315230
  H       -1.9126600     2.1320090     0.2855670
  H       -2.4591310    -2.1595270     0.1391440
  H       -3.4140320     0.1624990     0.4585800
units angstrom
no_reorient  #important for SAPT in psi4, default
symmetry c1  #important for SAPT in psi4, default
}

set PROPERTIES_ORIGIN ["COM"]
properties('MP2/aug-cc-pvtz', properties = ['dipole'])
--------------------------------------------------------------------------

    Molecular point group: c1
  Charge       = 0
  Multiplicity = 1
  Basis Set: AUG-CC-PVTZ
    Blend: AUG-CC-PVTZ
  Basis Set: (AUG-CC-PVTZ AUX)
    Blend: AUG-CC-PVTZ-JKFIT

    Orbital Energies [Eh]
    ---------------------

    Doubly Occupied:

       1A    -20.508230     2A    -15.627169     3A    -11.351648
       4A    -11.310139     5A    -11.271990     6A    -11.271961
       7A    -11.241817     8A    -11.238641     9A    -11.220070
      10A     -1.373267    11A     -1.286191    12A     -1.122878
      13A     -1.031139    14A     -1.014956    15A     -0.899668
      16A     -0.873438    17A     -0.823752    18A     -0.716630
      19A     -0.702923    20A     -0.671867    21A     -0.642747
      22A     -0.618235    23A     -0.607591    24A     -0.600683
      25A     -0.561166    26A     -0.539849    27A     -0.533210
      28A     -0.520741    29A     -0.498833    30A     -0.474650
      31A     -0.423456    32A     -0.406542    33A     -0.310227

  @DF-RHF Final Energy:  -399.76905377788364

   => Energetics <=

    Nuclear Repulsion Energy =            438.2856376118841695
    One-Electron Energy =               -1411.5167766923734689
    Two-Electron Energy =                 573.4620853026057148
    Total Energy =                       -399.7690537778836415
  Basis Set: (AUG-CC-PVTZ AUX)
    Blend: AUG-CC-PVTZ-RI
    Molecular point group: c1

    Geometry (in Angstrom), charge = 0, multiplicity = 1:

       Center              X                  Y                   Z               Mass
    ------------   -----------------  -----------------  -----------------  -----------------
         O            0.723643730479     1.913631146707    -0.174464290068    15.994914619570
         N            0.362597730479    -0.358480853293    -0.287313290068    14.003074004430
         C            1.749625530479    -0.527416853293    -0.529990490068    12.000000000000
         C           -0.080633269521     0.971250146707    -0.101149290068    12.000000000000
         C           -0.456874269521    -1.448317853293    -0.186576290068    12.000000000000
         C            2.600863730479    -0.469550853293     0.753033709932    12.000000000000
         C           -1.496783269521     1.084520146707     0.163315709932    12.000000000000
         C           -1.791497269521    -1.315850853293     0.081943709932    12.000000000000
         C           -2.314688269521    -0.009720853293     0.259453709932    12.000000000000
         H            1.926041730479    -1.493785853293    -1.045447290068     1.007825032230
         H            2.099993730479     0.267322146707    -1.215952290068     1.007825032230
         H            0.020757730479    -2.411623853293    -0.342114290068     1.007825032230
         H            2.459100730479     0.505406146707     1.221500709932     1.007825032230
         H            2.282786730479    -1.253185853293     1.446099709932     1.007825032230
         H            3.665988730479    -0.604305853293     0.542181709932     1.007825032230
         H           -1.872189269521     2.094203146707     0.296225709932     1.007825032230
         H           -2.418660269521    -2.197332853293     0.149802709932     1.007825032230
         H           -3.373561269521     0.124693146707     0.469238709932     1.007825032230

  Basis Set: AUG-CC-PVTZ
    Blend: AUG-CC-PVTZ
  Basis Set: (AUG-CC-PVTZ AUX)
    Blend: AUG-CC-PVTZ-JKFIT
	 Reference Energy          =    -399.7690537778836415 [Eh]
	 Singles Energy            =      -0.0000000000000000 [Eh]
	 Same-Spin Energy          =      -0.4237339337542914 [Eh]
	 Opposite-Spin Energy      =      -1.3400618032327101 [Eh]
	 Correlation Energy        =      -1.7637957369870014 [Eh]
	 Total Energy              =    -401.5328495148706338 [Eh]

	 ================> DF-SCS-MP2 Energies <==================
	-----------------------------------------------------------
	 SCS Same-Spin Scale       =       0.3333333333333333 [-]
	 SCS Opposite-Spin Scale   =       1.2000000000000000 [-]
	 SCS Same-Spin Energy      =      -0.1412446445847638 [Eh]
	 SCS Opposite-Spin Energy  =      -1.6080741638792519 [Eh]
	 SCS Correlation Energy    =      -1.7493188084640157 [Eh]
	 SCS Total Energy          =    -401.5183725863476525 [Eh]
	-----------------------------------------------------------

  Dipole Moment: [D]
     X:    -0.9108      Y:    -3.7684      Z:     0.0396     Total:     3.8771

*** Psi4 exiting successfully. Buy a developer a beer!
