                               Psi4 1.3.2 release

  ==> Input File <==

--------------------------------------------------------------------------
#psi4
#
memory 32 gb

molecule  {
0 1
  O        0.6831730     1.9514370    -0.1851230
  N        0.3221270    -0.3206750    -0.2979720
  C        1.5624514    -0.4717429    -0.5149816
  C       -0.1211040     1.0090560    -0.1118080
  C       -0.4973450    -1.4105120    -0.1972350
  C        2.5603930    -0.4317450     0.7423750
  C       -1.5372540     1.1223260     0.1526570
  C       -1.8319680    -1.2780450     0.0712850
  C       -2.3551590     0.0280850     0.2487950
  H        1.8855710    -1.4559800    -1.0561060
  H        2.0595230     0.3051280    -1.2266110
  H       -0.0197130    -2.3738180    -0.3527730
  H        2.4186300     0.5432120     1.2108420
  H        2.2423160    -1.2153800     1.4354410
  H        3.6255180    -0.5665000     0.5315230
  H       -1.9126600     2.1320090     0.2855670
  H       -2.4591310    -2.1595270     0.1391440
  H       -3.4140320     0.1624990     0.4585800
units angstrom
no_reorient  #important for SAPT in psi4, default
symmetry c1  #important for SAPT in psi4, default
}

set PROPERTIES_ORIGIN ["COM"]
properties('MP2/aug-cc-pvtz', properties = ['dipole'])
--------------------------------------------------------------------------

    Molecular point group: c1
  Charge       = 0
  Multiplicity = 1
  Basis Set: AUG-CC-PVTZ
    Blend: AUG-CC-PVTZ
  Basis Set: (AUG-CC-PVTZ AUX)
    Blend: AUG-CC-PVTZ-JKFIT

    Orbital Energies [Eh]
    ---------------------

    Doubly Occupied:

       1A    -20.514965     2A    -15.628911     3A    -11.356956
       4A    -11.313418     5A    -11.276016     6A    -11.270947
       7A    -11.247041     8A    -11.243514     9A    -11.217591
      10A     -1.393154    11A     -1.313925    12A     -1.135935
      13A     -1.035962    14A     -1.002389    15A     -0.914283
      16A     -0.885157    17A     -0.821565    18A     -0.722395
      19A     -0.712438    20A     -0.685277    21A     -0.653488
      22A     -0.634118    23A     -0.613104    24A     -0.582286
      25A     -0.564256    26A     -0.544268    27A     -0.542040
      28A     -0.509043    29A     -0.478155    30A     -0.465686
      31A     -0.430448    32A     -0.393677    33A     -0.313615

  @DF-RHF Final Energy:  -399.72343144602320

   => Energetics <=

    Nuclear Repulsion Energy =            441.0815203952518573
    One-Electron Energy =               -1416.7778540455856273
    Two-Electron Energy =                 575.9729022043106852
    Total Energy =                       -399.7234314460231417
  Basis Set: (AUG-CC-PVTZ AUX)
    Blend: AUG-CC-PVTZ-RI
    Molecular point group: c1

    Geometry (in Angstrom), charge = 0, multiplicity = 1:

       Center              X                  Y                   Z               Mass
    ------------   -----------------  -----------------  -----------------  -----------------
         O            0.737948300953     1.911888886503    -0.176967054102    15.994914619570
         N            0.376902300953    -0.360223113497    -0.289816054102    14.003074004430
         C            1.617226700953    -0.511291013497    -0.506825654102    12.000000000000
         C           -0.066328699047     0.969507886503    -0.103652054102    12.000000000000
         C           -0.442569699047    -1.450060113497    -0.189079054102    12.000000000000
         C            2.615168300953    -0.471293113497     0.750530945898    12.000000000000
         C           -1.482478699047     1.082777886503     0.160812945898    12.000000000000
         C           -1.777192699047    -1.317593113497     0.079440945898    12.000000000000
         C           -2.300383699047    -0.011463113497     0.256950945898    12.000000000000
         H            1.940346300953    -1.495528113497    -1.047950054102     1.007825032230
         H            2.114298300953     0.265579886503    -1.218455054102     1.007825032230
         H            0.035062300953    -2.413366113497    -0.344617054102     1.007825032230
         H            2.473405300953     0.503663886503     1.218997945898     1.007825032230
         H            2.297091300953    -1.254928113497     1.443596945898     1.007825032230
         H            3.680293300953    -0.606048113497     0.539678945898     1.007825032230
         H           -1.857884699047     2.092460886503     0.293722945898     1.007825032230
         H           -2.404355699047    -2.199075113497     0.147299945898     1.007825032230
         H           -3.359256699047     0.122950886503     0.466735945898     1.007825032230

  Basis Set: AUG-CC-PVTZ
    Blend: AUG-CC-PVTZ
  Basis Set: (AUG-CC-PVTZ AUX)
    Blend: AUG-CC-PVTZ-JKFIT
	 Reference Energy          =    -399.7234314460231985 [Eh]
	 Singles Energy            =      -0.0000000000000000 [Eh]
	 Same-Spin Energy          =      -0.4261339674961667 [Eh]
	 Opposite-Spin Energy      =      -1.3432464312653671 [Eh]
	 Correlation Energy        =      -1.7693803987615340 [Eh]
	 Total Energy              =    -401.4928118447847396 [Eh]

	 ================> DF-SCS-MP2 Energies <==================
	-----------------------------------------------------------
	 SCS Same-Spin Scale       =       0.3333333333333333 [-]
	 SCS Opposite-Spin Scale   =       1.2000000000000000 [-]
	 SCS Same-Spin Energy      =      -0.1420446558320556 [Eh]
	 SCS Opposite-Spin Energy  =      -1.6118957175184405 [Eh]
	 SCS Correlation Energy    =      -1.7539403733504961 [Eh]
	 SCS Total Energy          =    -401.4773718193736727 [Eh]
	-----------------------------------------------------------

  Dipole Moment: [D]
     X:    -1.3550      Y:    -3.6200      Z:     0.0811     Total:     3.8661

*** Psi4 exiting successfully. Buy a developer a beer!
