                               Psi4 1.3.2 release

  ==> Input File <==

--------------------------------------------------------------------------
#psi4
#
memory 32 gb

molecule  {
0 1
  O        0.6831730     1.9514370    -0.1851230
  N        0.3221270    -0.3206750    -0.2979720
  C        1.7580560    -0.4955670    -0.5492050
  C       -0.1211040     1.0090560    -0.1118080
  C       -0.5107076    -1.5050007    -0.2000658
  C        2.5603930    -0.4317450     0.7423750
  C       -1.5372540     1.1223260     0.1526570
  C       -1.8319680    -1.2780450     0.0712850
  C       -2.3551590     0.0280850     0.2487950
  H        1.8855710    -1.4559800    -1.0561060
  H        2.0595230     0.3051280    -1.2266110
  H       -0.0197130    -2.3738180    -0.3527730
  H        2.4186300     0.5432120     1.2108420
  H        2.2423160    -1.2153800     1.4354410
  H        3.6255180    -0.5665000     0.5315230
  H       -1.9126600     2.1320090     0.2855670
  H       -2.4591310    -2.1595270     0.1391440
  H       -3.4140320     0.1624990     0.4585800
units angstrom
no_reorient  #important for SAPT in psi4, default
symmetry c1  #important for SAPT in psi4, default
}

set PROPERTIES_ORIGIN ["COM"]
properties('MP2/aug-cc-pvtz', properties = ['dipole'])
--------------------------------------------------------------------------

    Molecular point group: c1
  Charge       = 0
  Multiplicity = 1
  Basis Set: AUG-CC-PVTZ
    Blend: AUG-CC-PVTZ
  Basis Set: (AUG-CC-PVTZ AUX)
    Blend: AUG-CC-PVTZ-JKFIT

    Orbital Energies [Eh]
    ---------------------

    Doubly Occupied:

       1A    -20.506207     2A    -15.618309     3A    -11.349845
       4A    -11.308034     5A    -11.273271     6A    -11.268046
       7A    -11.248035     8A    -11.243745     9A    -11.217271
      10A     -1.364279    11A     -1.257032    12A     -1.118425
      13A     -1.032443    14A     -1.014603    15A     -0.895882
      16A     -0.869734    17A     -0.816105    18A     -0.717777
      19A     -0.696427    20A     -0.680755    21A     -0.634052
      22A     -0.614884    23A     -0.605011    24A     -0.602356
      25A     -0.556428    26A     -0.543318    27A     -0.525974
      28A     -0.520628    29A     -0.499911    30A     -0.471071
      31A     -0.421657    32A     -0.401696    33A     -0.315130

  @DF-RHF Final Energy:  -399.75804253121902

   => Energetics <=

    Nuclear Repulsion Energy =            435.6213411632165844
    One-Electron Energy =               -1406.3420882545806307
    Two-Electron Energy =                 570.9627045601450845
    Total Energy =                       -399.7580425312189618
  Basis Set: (AUG-CC-PVTZ AUX)
    Blend: AUG-CC-PVTZ-RI
    Molecular point group: c1

    Geometry (in Angstrom), charge = 0, multiplicity = 1:

       Center              X                  Y                   Z               Mass
    ------------   -----------------  -----------------  -----------------  -----------------
         O            0.720178477402     1.923425182087    -0.173354019808    15.994914619570
         N            0.359132477402    -0.348686817913    -0.286203019808    14.003074004430
         C            1.795061477402    -0.523578817913    -0.537436019808    12.000000000000
         C           -0.084098522598     0.981044182087    -0.100039019808    12.000000000000
         C           -0.473702122598    -1.533012517913    -0.188296819808    12.000000000000
         C            2.597398477402    -0.459756817913     0.754143980192    12.000000000000
         C           -1.500248522598     1.094314182087     0.164425980192    12.000000000000
         C           -1.794962522598    -1.306056817913     0.083053980192    12.000000000000
         C           -2.318153522598     0.000073182087     0.260563980192    12.000000000000
         H            1.922576477402    -1.483991817913    -1.044337019808     1.007825032230
         H            2.096528477402     0.277116182087    -1.214842019808     1.007825032230
         H            0.017292477402    -2.401829817913    -0.341004019808     1.007825032230
         H            2.455635477402     0.515200182087     1.222610980192     1.007825032230
         H            2.279321477402    -1.243391817913     1.447209980192     1.007825032230
         H            3.662523477402    -0.594511817913     0.543291980192     1.007825032230
         H           -1.875654522598     2.103997182087     0.297335980192     1.007825032230
         H           -2.422125522598    -2.187538817913     0.150912980192     1.007825032230
         H           -3.377026522598     0.134487182087     0.470348980192     1.007825032230

  Basis Set: AUG-CC-PVTZ
    Blend: AUG-CC-PVTZ
  Basis Set: (AUG-CC-PVTZ AUX)
    Blend: AUG-CC-PVTZ-JKFIT
	 Reference Energy          =    -399.7580425312190187 [Eh]
	 Singles Energy            =      -0.0000000000000000 [Eh]
	 Same-Spin Energy          =      -0.4233014670902588 [Eh]
	 Opposite-Spin Energy      =      -1.3417189082376026 [Eh]
	 Correlation Energy        =      -1.7650203753278615 [Eh]
	 Total Energy              =    -401.5230629065468975 [Eh]

	 ================> DF-SCS-MP2 Energies <==================
	-----------------------------------------------------------
	 SCS Same-Spin Scale       =       0.3333333333333333 [-]
	 SCS Opposite-Spin Scale   =       1.2000000000000000 [-]
	 SCS Same-Spin Energy      =      -0.1411004890300863 [Eh]
	 SCS Opposite-Spin Energy  =      -1.6100626898851231 [Eh]
	 SCS Correlation Energy    =      -1.7511631789152093 [Eh]
	 SCS Total Energy          =    -401.5092057101342107 [Eh]
	-----------------------------------------------------------

  Dipole Moment: [D]
     X:    -1.0272      Y:    -3.8521      Z:     0.0605     Total:     3.9871

*** Psi4 exiting successfully. Buy a developer a beer!
