                               Psi4 1.3.2 release

  ==> Input File <==

--------------------------------------------------------------------------
#psi4
#
memory 32 gb

molecule  {
0 1
  O        0.6831730     1.9514370    -0.1851230
  N        0.2990366    -0.3286366    -0.2944434
  C        1.7580560    -0.4955670    -0.5492050
  C       -0.1211040     1.0090560    -0.1118080
  C       -0.4973450    -1.4105120    -0.1972350
  C        2.5603930    -0.4317450     0.7423750
  C       -1.5372540     1.1223260     0.1526570
  C       -1.8319680    -1.2780450     0.0712850
  C       -2.3551590     0.0280850     0.2487950
  H        1.8855710    -1.4559800    -1.0561060
  H        2.0595230     0.3051280    -1.2266110
  H       -0.0197130    -2.3738180    -0.3527730
  H        2.4186300     0.5432120     1.2108420
  H        2.2423160    -1.2153800     1.4354410
  H        3.6255180    -0.5665000     0.5315230
  H       -1.9126600     2.1320090     0.2855670
  H       -2.4591310    -2.1595270     0.1391440
  H       -3.4140320     0.1624990     0.4585800
units angstrom
no_reorient  #important for SAPT in psi4, default
symmetry c1  #important for SAPT in psi4, default
}

set PROPERTIES_ORIGIN ["COM"]
properties('MP2/aug-cc-pvtz', properties = ['dipole'])
--------------------------------------------------------------------------

    Molecular point group: c1
  Charge       = 0
  Multiplicity = 1
  Basis Set: AUG-CC-PVTZ
    Blend: AUG-CC-PVTZ
  Basis Set: (AUG-CC-PVTZ AUX)
    Blend: AUG-CC-PVTZ-JKFIT

    Orbital Energies [Eh]
    ---------------------

    Doubly Occupied:

       1A    -20.506749     2A    -15.626410     3A    -11.349974
       4A    -11.307201     5A    -11.276492     6A    -11.269485
       7A    -11.238032     8A    -11.235362     9A    -11.222479
      10A     -1.369071    11A     -1.281725    12A     -1.116608
      13A     -1.032991    14A     -1.018440    15A     -0.893665
      16A     -0.871645    17A     -0.826396    18A     -0.715565
      19A     -0.699485    20A     -0.664893    21A     -0.640050
      22A     -0.614729    23A     -0.607949    24A     -0.605050
      25A     -0.560753    26A     -0.538826    27A     -0.529845
      28A     -0.523910    29A     -0.507153    30A     -0.476669
      31A     -0.420792    32A     -0.408639    33A     -0.307264

  @DF-RHF Final Energy:  -399.77073404171125

   => Energetics <=

    Nuclear Repulsion Energy =            437.5104839668406953
    One-Electron Energy =               -1410.0338443429625386
    Two-Electron Energy =                 572.7526263344105928
    Total Energy =                       -399.7707340417113073
  Basis Set: (AUG-CC-PVTZ AUX)
    Blend: AUG-CC-PVTZ-RI
    Molecular point group: c1

    Geometry (in Angstrom), charge = 0, multiplicity = 1:

       Center              X                  Y                   Z               Mass
    ------------   -----------------  -----------------  -----------------  -----------------
         O            0.721502825176     1.915117790340    -0.174031536030    15.994914619570
         N            0.337366425176    -0.364955809660    -0.283351936030    14.003074004430
         C            1.796385825176    -0.531886209660    -0.538113536030    12.000000000000
         C           -0.082774174824     0.972736790340    -0.100716536030    12.000000000000
         C           -0.459015174824    -1.446831209660    -0.186143536030    12.000000000000
         C            2.598722825176    -0.468064209660     0.753466463970    12.000000000000
         C           -1.498924174824     1.086006790340     0.163748463970    12.000000000000
         C           -1.793638174824    -1.314364209660     0.082376463970    12.000000000000
         C           -2.316829174824    -0.008234209660     0.259886463970    12.000000000000
         H            1.923900825176    -1.492299209660    -1.045014536030     1.007825032230
         H            2.097852825176     0.268808790340    -1.215519536030     1.007825032230
         H            0.018616825176    -2.410137209660    -0.341681536030     1.007825032230
         H            2.456959825176     0.506892790340     1.221933463970     1.007825032230
         H            2.280645825176    -1.251699209660     1.446532463970     1.007825032230
         H            3.663847825176    -0.602819209660     0.542614463970     1.007825032230
         H           -1.874330174824     2.095689790340     0.296658463970     1.007825032230
         H           -2.420801174824    -2.195846209660     0.150235463970     1.007825032230
         H           -3.375702174824     0.126179790340     0.469671463970     1.007825032230

  Basis Set: AUG-CC-PVTZ
    Blend: AUG-CC-PVTZ
  Basis Set: (AUG-CC-PVTZ AUX)
    Blend: AUG-CC-PVTZ-JKFIT
	 Reference Energy          =    -399.7707340417112505 [Eh]
	 Singles Energy            =      -0.0000000000000000 [Eh]
	 Same-Spin Energy          =      -0.4236355503738761 [Eh]
	 Opposite-Spin Energy      =      -1.3398347001267144 [Eh]
	 Correlation Energy        =      -1.7634702505005904 [Eh]
	 Total Energy              =    -401.5342042922118253 [Eh]

	 ================> DF-SCS-MP2 Energies <==================
	-----------------------------------------------------------
	 SCS Same-Spin Scale       =       0.3333333333333333 [-]
	 SCS Opposite-Spin Scale   =       1.2000000000000000 [-]
	 SCS Same-Spin Energy      =      -0.1412118501246254 [Eh]
	 SCS Opposite-Spin Energy  =      -1.6078016401520572 [Eh]
	 SCS Correlation Energy    =      -1.7490134902766825 [Eh]
	 SCS Total Energy          =    -401.5197475319879459 [Eh]
	-----------------------------------------------------------

  Dipole Moment: [D]
     X:    -0.6620      Y:    -3.8167      Z:     0.0227     Total:     3.8737

*** Psi4 exiting successfully. Buy a developer a beer!
