                               Psi4 1.4a3.dev225

  ==> Input File <==

--------------------------------------------------------------------------
#psi4
#
memory 32 gb

molecule  {
0 1
  O        0.6831730     1.9514370    -0.1851230
  N        0.3221270    -0.3206750    -0.2979720
  C        1.7580560    -0.4955670    -0.5492050
  C       -0.1211040     1.0090560    -0.1118080
  C       -0.5273125    -1.4503665    -0.1935511
  C        2.5603930    -0.4317450     0.7423750
  C       -1.5372540     1.1223260     0.1526570
  C       -1.8319680    -1.2780450     0.0712850
  C       -2.3551590     0.0280850     0.2487950
  H        1.8855710    -1.4559800    -1.0561060
  H        2.0595230     0.3051280    -1.2266110
  H       -0.0197130    -2.3738180    -0.3527730
  H        2.4186300     0.5432120     1.2108420
  H        2.2423160    -1.2153800     1.4354410
  H        3.6255180    -0.5665000     0.5315230
  H       -1.9126600     2.1320090     0.2855670
  H       -2.4591310    -2.1595270     0.1391440
  H       -3.4140320     0.1624990     0.4585800
units angstrom
no_reorient  #important for SAPT in psi4, default
symmetry c1  #important for SAPT in psi4, default
}

set PROPERTIES_ORIGIN ["COM"]
properties('MP2/aug-cc-pvtz', properties = ['dipole'])
--------------------------------------------------------------------------

    Molecular point group: c1
  Charge       = 0
  Multiplicity = 1
  Basis Set: AUG-CC-PVTZ
    Blend: AUG-CC-PVTZ
  Basis Set: (AUG-CC-PVTZ AUX)
    Blend: AUG-CC-PVTZ-JKFIT

    Orbital Energies [Eh]
    ---------------------

    Doubly Occupied:

       1A    -20.506278     2A    -15.619762     3A    -11.349338
       4A    -11.306024     5A    -11.272220     6A    -11.270502
       7A    -11.241519     8A    -11.241086     9A    -11.218602
      10A     -1.365753    11A     -1.265021    12A     -1.121134
      13A     -1.032404    14A     -1.017269    15A     -0.894944
      16A     -0.866458    17A     -0.821204    18A     -0.713758
      19A     -0.699058    20A     -0.671573    21A     -0.635152
      22A     -0.612998    23A     -0.606682    24A     -0.604591
      25A     -0.559062    26A     -0.539300    27A     -0.528702
      28A     -0.523810    29A     -0.502589    30A     -0.474319
      31A     -0.421041    32A     -0.403799    33A     -0.315465

  @DF-RHF Final Energy:  -399.76849123891685

   => Energetics <=

    Nuclear Repulsion Energy =            436.6649610114732809
    One-Electron Energy =               -1408.4240735119296914
    Two-Electron Energy =                 571.9906212615396726
    Total Energy =                       -399.7684912389167948
  Basis Set: (AUG-CC-PVTZ AUX)
    Blend: AUG-CC-PVTZ-RI
    Molecular point group: c1

    Geometry (in Angstrom), charge = 0, multiplicity = 1:

       Center              X                  Y                   Z               Mass
    ------------   -----------------  -----------------  -----------------  -----------------
         O            0.721797567091     1.918097979280    -0.173989246975    15.994914619570
         N            0.360751567091    -0.354014020720    -0.286838246975    14.003074004430
         C            1.796680567091    -0.528906020720    -0.538071246975    12.000000000000
         C           -0.082479432909     0.975716979280    -0.100674246975    12.000000000000
         C           -0.488687932909    -1.483705520720    -0.182417346975    12.000000000000
         C            2.599017567091    -0.465084020720     0.753508753025    12.000000000000
         C           -1.498629432909     1.088986979280     0.163790753025    12.000000000000
         C           -1.793343432909    -1.311384020720     0.082418753025    12.000000000000
         C           -2.316534432909    -0.005254020720     0.259928753025    12.000000000000
         H            1.924195567091    -1.489319020720    -1.044972246975     1.007825032230
         H            2.098147567091     0.271788979280    -1.215477246975     1.007825032230
         H            0.018911567091    -2.407157020720    -0.341639246975     1.007825032230
         H            2.457254567091     0.509872979280     1.221975753025     1.007825032230
         H            2.280940567091    -1.248719020720     1.446574753025     1.007825032230
         H            3.664142567091    -0.599839020720     0.542656753025     1.007825032230
         H           -1.874035432909     2.098669979280     0.296700753025     1.007825032230
         H           -2.420506432909    -2.192866020720     0.150277753025     1.007825032230
         H           -3.375407432909     0.129159979280     0.469713753025     1.007825032230

  Basis Set: AUG-CC-PVTZ
    Blend: AUG-CC-PVTZ
  Basis Set: (AUG-CC-PVTZ AUX)
    Blend: AUG-CC-PVTZ-JKFIT
	 Reference Energy          =    -399.7684912389168517 [Eh]
	 Singles Energy            =      -0.0000000000000000 [Eh]
	 Same-Spin Energy          =      -0.4228921910910284 [Eh]
	 Opposite-Spin Energy      =      -1.3401101464046250 [Eh]
	 Correlation Energy        =      -1.7630023374956534 [Eh]
	 Total Energy              =    -401.5314935764125153 [Eh]

	 ================> DF-SCS-MP2 Energies <==================
	-----------------------------------------------------------
	 SCS Same-Spin Scale       =       0.3333333333333333 [-]
	 SCS Opposite-Spin Scale   =       1.2000000000000000 [-]
	 SCS Same-Spin Energy      =      -0.1409640636970095 [Eh]
	 SCS Opposite-Spin Energy  =      -1.6081321756855500 [Eh]
	 SCS Correlation Energy    =      -1.7490962393825595 [Eh]
	 SCS Total Energy          =    -401.5175874782993901 [Eh]
	-----------------------------------------------------------

  Dipole Moment: [D]
     X:    -0.9356      Y:    -3.8288      Z:     0.0526     Total:     3.9418

*** Psi4 exiting successfully. Buy a developer a beer!
