                               Psi4 1.3.2 release

  ==> Input File <==

--------------------------------------------------------------------------
#psi4
#
memory 32 gb

molecule  {
0 1
  O        0.6831730     1.9514370    -0.1851230
  N        0.3221270    -0.3206750    -0.2979720
  C        1.7580560    -0.4955670    -0.5492050
  C       -0.1211040     1.0090560    -0.1118080
  C       -0.4973450    -1.4105120    -0.1972350
  C        2.5603930    -0.4317450     0.7423750
  C       -1.5372540     1.1223260     0.1526570
  C       -1.8319680    -1.2780450     0.0712850
  C       -2.3551590     0.0280850     0.2487950
  H        1.8855710    -1.4559800    -1.0561060
  H        2.0595230     0.3051280    -1.2266110
  H        0.0242513    -2.4624869    -0.3670897
  H        2.4186300     0.5432120     1.2108420
  H        2.2423160    -1.2153800     1.4354410
  H        3.6255180    -0.5665000     0.5315230
  H       -1.9126600     2.1320090     0.2855670
  H       -2.4591310    -2.1595270     0.1391440
  H       -3.4140320     0.1624990     0.4585800
units angstrom
no_reorient  #important for SAPT in psi4, default
symmetry c1  #important for SAPT in psi4, default
}

set PROPERTIES_ORIGIN ["COM"]
properties('MP2/aug-cc-pvtz', properties = ['dipole'])
--------------------------------------------------------------------------

    Molecular point group: c1
  Charge       = 0
  Multiplicity = 1
  Basis Set: AUG-CC-PVTZ
    Blend: AUG-CC-PVTZ
  Basis Set: (AUG-CC-PVTZ AUX)
    Blend: AUG-CC-PVTZ-JKFIT

    Orbital Energies [Eh]
    ---------------------

    Doubly Occupied:

       1A    -20.506659     2A    -15.626397     3A    -11.350525
       4A    -11.319372     5A    -11.273652     6A    -11.271172
       7A    -11.240739     8A    -11.237255     9A    -11.221001
      10A     -1.369440    11A     -1.278250    12A     -1.119443
      13A     -1.029594    14A     -1.016976    15A     -0.894849
      16A     -0.865959    17A     -0.824899    18A     -0.708682
      19A     -0.699745    20A     -0.660140    21A     -0.638310
      22A     -0.613207    23A     -0.606624    24A     -0.600685
      25A     -0.560765    26A     -0.536686    27A     -0.528654
      28A     -0.525616    29A     -0.505532    30A     -0.475262
      31A     -0.421102    32A     -0.408144    33A     -0.309075

  @DF-RHF Final Energy:  -399.76385868195916

   => Energetics <=

    Nuclear Repulsion Energy =            436.9423930942613197
    One-Electron Energy =               -1408.9236854117382336
    Two-Electron Energy =                 572.2174336355177502
    Total Energy =                       -399.7638586819591637
  Basis Set: (AUG-CC-PVTZ AUX)
    Blend: AUG-CC-PVTZ-RI
    Molecular point group: c1

    Geometry (in Angstrom), charge = 0, multiplicity = 1:

       Center              X                  Y                   Z               Mass
    ------------   -----------------  -----------------  -----------------  -----------------
         O            0.718515503812     1.914938019299    -0.173512800365    15.994914619570
         N            0.357469503812    -0.357173980701    -0.286361800365    14.003074004430
         C            1.793398503812    -0.532065980701    -0.537594800365    12.000000000000
         C           -0.085761496188     0.972557019299    -0.100197800365    12.000000000000
         C           -0.462002496188    -1.447010980701    -0.185624800365    12.000000000000
         C            2.595735503812    -0.468243980701     0.753985199635    12.000000000000
         C           -1.501911496188     1.085827019299     0.164267199635    12.000000000000
         C           -1.796625496188    -1.314543980701     0.082895199635    12.000000000000
         C           -2.319816496188    -0.008413980701     0.260405199635    12.000000000000
         H            1.920913503812    -1.492478980701    -1.044495800365     1.007825032230
         H            2.094865503812     0.268629019299    -1.215000800365     1.007825032230
         H            0.059593803812    -2.498985880701    -0.355479500365     1.007825032230
         H            2.453972503812     0.506713019299     1.222452199635     1.007825032230
         H            2.277658503812    -1.251878980701     1.447051199635     1.007825032230
         H            3.660860503812    -0.602998980701     0.543133199635     1.007825032230
         H           -1.877317496188     2.095510019299     0.297177199635     1.007825032230
         H           -2.423788496188    -2.196025980701     0.150754199635     1.007825032230
         H           -3.378689496188     0.126000019299     0.470190199635     1.007825032230

  Basis Set: AUG-CC-PVTZ
    Blend: AUG-CC-PVTZ
  Basis Set: (AUG-CC-PVTZ AUX)
    Blend: AUG-CC-PVTZ-JKFIT
	 Reference Energy          =    -399.7638586819591637 [Eh]
	 Singles Energy            =      -0.0000000000000000 [Eh]
	 Same-Spin Energy          =      -0.4238382108547288 [Eh]
	 Opposite-Spin Energy      =      -1.3409232032636109 [Eh]
	 Correlation Energy        =      -1.7647614141183396 [Eh]
	 Total Energy              =    -401.5286200960774750 [Eh]

	 ================> DF-SCS-MP2 Energies <==================
	-----------------------------------------------------------
	 SCS Same-Spin Scale       =       0.3333333333333333 [-]
	 SCS Opposite-Spin Scale   =       1.2000000000000000 [-]
	 SCS Same-Spin Energy      =      -0.1412794036182429 [Eh]
	 SCS Opposite-Spin Energy  =      -1.6091078439163331 [Eh]
	 SCS Correlation Energy    =      -1.7503872475345761 [Eh]
	 SCS Total Energy          =    -401.5142459294937680 [Eh]
	-----------------------------------------------------------

  Dipole Moment: [D]
     X:    -0.7642      Y:    -3.7884      Z:     0.0349     Total:     3.8649

*** Psi4 exiting successfully. Buy a developer a beer!
