                               Psi4 1.4a3.dev225

  ==> Input File <==

--------------------------------------------------------------------------
#psi4
#
memory 32 gb

molecule  {
0 1
  O        0.6831730     1.9514370    -0.1851230
  N        0.3221270    -0.3206750    -0.2979720
  C        1.7580560    -0.4955670    -0.5492050
  C       -0.1211040     1.0090560    -0.1118080
  C       -0.4973450    -1.4105120    -0.1972350
  C        2.5603930    -0.4317450     0.7423750
  C       -1.5176544     1.1207583     0.1489968
  C       -1.8319680    -1.2780450     0.0712850
  C       -2.3551590     0.0280850     0.2487950
  H        1.8855710    -1.4559800    -1.0561060
  H        2.0595230     0.3051280    -1.2266110
  H       -0.0197130    -2.3738180    -0.3527730
  H        2.4186300     0.5432120     1.2108420
  H        2.2423160    -1.2153800     1.4354410
  H        3.6255180    -0.5665000     0.5315230
  H       -1.9126600     2.1320090     0.2855670
  H       -2.4591310    -2.1595270     0.1391440
  H       -3.4140320     0.1624990     0.4585800
units angstrom
no_reorient  #important for SAPT in psi4, default
symmetry c1  #important for SAPT in psi4, default
}

set PROPERTIES_ORIGIN ["COM"]
properties('MP2/aug-cc-pvtz', properties = ['dipole'])
--------------------------------------------------------------------------

    Molecular point group: c1
  Charge       = 0
  Multiplicity = 1
  Basis Set: AUG-CC-PVTZ
    Blend: AUG-CC-PVTZ
  Basis Set: (AUG-CC-PVTZ AUX)
    Blend: AUG-CC-PVTZ-JKFIT

    Orbital Energies [Eh]
    ---------------------

    Doubly Occupied:

       1A    -20.503886     2A    -15.626162     3A    -11.347299
       4A    -11.309654     5A    -11.273847     6A    -11.273198
       7A    -11.240666     8A    -11.236598     9A    -11.221122
      10A     -1.368418    11A     -1.278222    12A     -1.118955
      13A     -1.031160    14A     -1.019331    15A     -0.897288
      16A     -0.869464    17A     -0.826313    18A     -0.714264
      19A     -0.701111    20A     -0.667426    21A     -0.638975
      22A     -0.613780    23A     -0.607728    24A     -0.605155
      25A     -0.561207    26A     -0.536257    27A     -0.529925
      28A     -0.525478    29A     -0.505394    30A     -0.474620
      31A     -0.421021    32A     -0.406309    33A     -0.308787

  @DF-RHF Final Energy:  -399.77038989239884

   => Energetics <=

    Nuclear Repulsion Energy =            437.7014179503815967
    One-Electron Energy =               -1410.4255743680619162
    Two-Electron Energy =                 572.9537665252814804
    Total Energy =                       -399.7703898923988390
  Basis Set: (AUG-CC-PVTZ AUX)
    Blend: AUG-CC-PVTZ-RI
    Molecular point group: c1

    Geometry (in Angstrom), charge = 0, multiplicity = 1:

       Center              X                  Y                   Z               Mass
    ------------   -----------------  -----------------  -----------------  -----------------
         O            0.716964440693     1.914364758177    -0.173273147717    15.994914619570
         N            0.355918440693    -0.357747241823    -0.286122147717    14.003074004430
         C            1.791847440693    -0.532639241823    -0.537355147717    12.000000000000
         C           -0.087312559307     0.971983758177    -0.099958147717    12.000000000000
         C           -0.463553559307    -1.447584241823    -0.185385147717    12.000000000000
         C            2.594184440693    -0.468817241823     0.754224852283    12.000000000000
         C           -1.483862959307     1.083686058177     0.160846652283    12.000000000000
         C           -1.798176559307    -1.315117241823     0.083134852283    12.000000000000
         C           -2.321367559307    -0.008987241823     0.260644852283    12.000000000000
         H            1.919362440693    -1.493052241823    -1.044256147717     1.007825032230
         H            2.093314440693     0.268055758177    -1.214761147717     1.007825032230
         H            0.014078440693    -2.410890241823    -0.340923147717     1.007825032230
         H            2.452421440693     0.506139758177     1.222691852283     1.007825032230
         H            2.276107440693    -1.252452241823     1.447290852283     1.007825032230
         H            3.659309440693    -0.603572241823     0.543372852283     1.007825032230
         H           -1.878868559307     2.094936758177     0.297416852283     1.007825032230
         H           -2.425339559307    -2.196599241823     0.150993852283     1.007825032230
         H           -3.380240559307     0.125426758177     0.470429852283     1.007825032230

  Basis Set: AUG-CC-PVTZ
    Blend: AUG-CC-PVTZ
  Basis Set: (AUG-CC-PVTZ AUX)
    Blend: AUG-CC-PVTZ-JKFIT
	 Reference Energy          =    -399.7703898923988390 [Eh]
	 Singles Energy            =      -0.0000000000000000 [Eh]
	 Same-Spin Energy          =      -0.4238807616358465 [Eh]
	 Opposite-Spin Energy      =      -1.3402136684128201 [Eh]
	 Correlation Energy        =      -1.7640944300486665 [Eh]
	 Total Energy              =    -401.5344843224474971 [Eh]

	 ================> DF-SCS-MP2 Energies <==================
	-----------------------------------------------------------
	 SCS Same-Spin Scale       =       0.3333333333333333 [-]
	 SCS Opposite-Spin Scale   =       1.2000000000000000 [-]
	 SCS Same-Spin Energy      =      -0.1412935872119488 [Eh]
	 SCS Opposite-Spin Energy  =      -1.6082564020953840 [Eh]
	 SCS Correlation Energy    =      -1.7495499893073327 [Eh]
	 SCS Total Energy          =    -401.5199398817061933 [Eh]
	-----------------------------------------------------------

  Dipole Moment: [D]
     X:    -0.7888      Y:    -3.8610      Z:     0.0356     Total:     3.9409

*** Psi4 exiting successfully. Buy a developer a beer!
