                               Psi4 1.3.2 release

  ==> Input File <==

--------------------------------------------------------------------------
#psi4
#
memory 32 gb

molecule  {
0 1
  O        0.6831730     1.9514370    -0.1851230
  N        0.3221270    -0.3206750    -0.2979720
  C        1.7544691    -0.5208909    -0.5507707
  C       -0.1211040     1.0090560    -0.1118080
  C       -0.4973450    -1.4105120    -0.1972350
  C        2.5603930    -0.4317450     0.7423750
  C       -1.5372540     1.1223260     0.1526570
  C       -1.8319680    -1.2780450     0.0712850
  C       -2.3551590     0.0280850     0.2487950
  H        1.8855710    -1.4559800    -1.0561060
  H        2.0595230     0.3051280    -1.2266110
  H       -0.0197130    -2.3738180    -0.3527730
  H        2.4186300     0.5432120     1.2108420
  H        2.2423160    -1.2153800     1.4354410
  H        3.6255180    -0.5665000     0.5315230
  H       -1.9126600     2.1320090     0.2855670
  H       -2.4591310    -2.1595270     0.1391440
  H       -3.4140320     0.1624990     0.4585800
units angstrom
no_reorient  #important for SAPT in psi4, default
symmetry c1  #important for SAPT in psi4, default
}

set PROPERTIES_ORIGIN ["COM"]
properties('MP2/aug-cc-pvtz', properties = ['dipole'])
--------------------------------------------------------------------------

    Molecular point group: c1
  Charge       = 0
  Multiplicity = 1
  Basis Set: AUG-CC-PVTZ
    Blend: AUG-CC-PVTZ
  Basis Set: (AUG-CC-PVTZ AUX)
    Blend: AUG-CC-PVTZ-JKFIT

    Orbital Energies [Eh]
    ---------------------

    Doubly Occupied:

       1A    -20.506173     2A    -15.625608     3A    -11.350166
       4A    -11.308488     5A    -11.273507     6A    -11.270579
       7A    -11.239947     8A    -11.237174     9A    -11.221351
      10A     -1.368741    11A     -1.278553    12A     -1.118944
      13A     -1.030747    14A     -1.017876    15A     -0.895264
      16A     -0.871449    17A     -0.824768    18A     -0.714959
      19A     -0.699700    20A     -0.668429    21A     -0.638954
      22A     -0.613517    23A     -0.608423    24A     -0.605029
      25A     -0.560323    26A     -0.538194    27A     -0.531215
      28A     -0.526772    29A     -0.502744    30A     -0.475359
      31A     -0.421107    32A     -0.407187    33A     -0.308651

  @DF-RHF Final Energy:  -399.77072675831198

   => Energetics <=

    Nuclear Repulsion Energy =            437.3340526672183159
    One-Electron Energy =               -1409.6897655348000171
    Two-Electron Energy =                 572.5849861092697211
    Total Energy =                       -399.7707267583119801
  Basis Set: (AUG-CC-PVTZ AUX)
    Blend: AUG-CC-PVTZ-RI
    Molecular point group: c1

    Geometry (in Angstrom), charge = 0, multiplicity = 1:

       Center              X                  Y                   Z               Mass
    ------------   -----------------  -----------------  -----------------  -----------------
         O            0.719225280751     1.916681147825    -0.173477375586    15.994914619570
         N            0.358179280751    -0.355430852175    -0.286326375586    14.003074004430
         C            1.790521380751    -0.555646752175    -0.539125075586    12.000000000000
         C           -0.085051719249     0.974300147825    -0.100162375586    12.000000000000
         C           -0.461292719249    -1.445267852175    -0.185589375586    12.000000000000
         C            2.596445280751    -0.466500852175     0.754020624414    12.000000000000
         C           -1.501201719249     1.087570147825     0.164302624414    12.000000000000
         C           -1.795915719249    -1.312800852175     0.082930624414    12.000000000000
         C           -2.319106719249    -0.006670852175     0.260440624414    12.000000000000
         H            1.921623280751    -1.490735852175    -1.044460375586     1.007825032230
         H            2.095575280751     0.270372147825    -1.214965375586     1.007825032230
         H            0.016339280751    -2.408573852175    -0.341127375586     1.007825032230
         H            2.454682280751     0.508456147825     1.222487624414     1.007825032230
         H            2.278368280751    -1.250135852175     1.447086624414     1.007825032230
         H            3.661570280751    -0.601255852175     0.543168624414     1.007825032230
         H           -1.876607719249     2.097253147825     0.297212624414     1.007825032230
         H           -2.423078719249    -2.194282852175     0.150789624414     1.007825032230
         H           -3.377979719249     0.127743147825     0.470225624414     1.007825032230

  Basis Set: AUG-CC-PVTZ
    Blend: AUG-CC-PVTZ
  Basis Set: (AUG-CC-PVTZ AUX)
    Blend: AUG-CC-PVTZ-JKFIT
	 Reference Energy          =    -399.7707267583119801 [Eh]
	 Singles Energy            =      -0.0000000000000000 [Eh]
	 Same-Spin Energy          =      -0.4234789359839692 [Eh]
	 Opposite-Spin Energy      =      -1.3398938741195385 [Eh]
	 Correlation Energy        =      -1.7633728101035078 [Eh]
	 Total Energy              =    -401.5340995684155132 [Eh]

	 ================> DF-SCS-MP2 Energies <==================
	-----------------------------------------------------------
	 SCS Same-Spin Scale       =       0.3333333333333333 [-]
	 SCS Opposite-Spin Scale   =       1.2000000000000000 [-]
	 SCS Same-Spin Energy      =      -0.1411596453279897 [Eh]
	 SCS Opposite-Spin Energy  =      -1.6078726489434463 [Eh]
	 SCS Correlation Energy    =      -1.7490322942714360 [Eh]
	 SCS Total Energy          =    -401.5197590525834244 [Eh]
	-----------------------------------------------------------

  Dipole Moment: [D]
     X:    -0.7580      Y:    -3.8308      Z:     0.0269     Total:     3.9051

*** Psi4 exiting successfully. Buy a developer a beer!
