                               Psi4 1.3.2 release

  ==> Input File <==

--------------------------------------------------------------------------
#psi4
#
memory 32 gb

molecule  {
0 1
  O        0.6831730     1.9514370    -0.1851230
  N        0.3221270    -0.3206750    -0.2979720
  C        1.7580560    -0.4955670    -0.5492050
  C       -0.1211040     1.0090560    -0.1118080
  C       -0.4973450    -1.4105120    -0.1972350
  C        2.5603930    -0.4317450     0.7423750
  C       -1.5372540     1.1223260     0.1526570
  C       -1.8319680    -1.2780450     0.0712850
  C       -2.3551590     0.0280850     0.2487950
  H        1.8855710    -1.4559800    -1.0561060
  H        2.0595230     0.3051280    -1.2266110
  H       -0.0197130    -2.3738180    -0.3527730
  H        2.4186300     0.5432120     1.2108420
  H        2.2423160    -1.2153800     1.4354410
  H        3.6255180    -0.5665000     0.5315230
  H       -1.9126600     2.1320090     0.2855670
  H       -2.5748490    -2.3221695     0.1516647
  H       -3.4140320     0.1624990     0.4585800
units angstrom
no_reorient  #important for SAPT in psi4, default
symmetry c1  #important for SAPT in psi4, default
}

set PROPERTIES_ORIGIN ["COM"]
properties('MP2/aug-cc-pvtz', properties = ['dipole'])
--------------------------------------------------------------------------

    Molecular point group: c1
  Charge       = 0
  Multiplicity = 1
  Basis Set: AUG-CC-PVTZ
    Blend: AUG-CC-PVTZ
  Basis Set: (AUG-CC-PVTZ AUX)
    Blend: AUG-CC-PVTZ-JKFIT

    Orbital Energies [Eh]
    ---------------------

    Doubly Occupied:

       1A    -20.506983     2A    -15.626724     3A    -11.350779
       4A    -11.310681     5A    -11.274556     6A    -11.272968
       7A    -11.261215     8A    -11.238590     9A    -11.221596
      10A     -1.369907    11A     -1.279375    12A     -1.118747
      13A     -1.031982    14A     -1.015343    15A     -0.896182
      16A     -0.867960    17A     -0.821896    18A     -0.711555
      19A     -0.692856    20A     -0.666096    21A     -0.636539
      22A     -0.614930    23A     -0.608038    24A     -0.597369
      25A     -0.554847    26A     -0.530879    27A     -0.527200
      28A     -0.521359    29A     -0.504724    30A     -0.476040
      31A     -0.422004    32A     -0.409048    33A     -0.309858

  @DF-RHF Final Energy:  -399.74904201675400

   => Energetics <=

    Nuclear Repulsion Energy =            436.5104300021237123
    One-Electron Energy =               -1408.0212928094970266
    Two-Electron Energy =                 571.7618207906193675
    Total Energy =                       -399.7490420167539469
  Basis Set: (AUG-CC-PVTZ AUX)
    Blend: AUG-CC-PVTZ-RI
    Molecular point group: c1

    Geometry (in Angstrom), charge = 0, multiplicity = 1:

       Center              X                  Y                   Z               Mass
    ------------   -----------------  -----------------  -----------------  -----------------
         O            0.719823165250     1.915543799803    -0.173732575713    15.994914619570
         N            0.358777165250    -0.356568200197    -0.286581575713    14.003074004430
         C            1.794706165250    -0.531460200197    -0.537814575713    12.000000000000
         C           -0.084453834750     0.973162799803    -0.100417575713    12.000000000000
         C           -0.460694834750    -1.446405200197    -0.185844575713    12.000000000000
         C            2.597043165250    -0.467638200197     0.753765424287    12.000000000000
         C           -1.500603834750     1.086432799803     0.164047424287    12.000000000000
         C           -1.795317834750    -1.313938200197     0.082675424287    12.000000000000
         C           -2.318508834750    -0.007808200197     0.260185424287    12.000000000000
         H            1.922221165250    -1.491873200197    -1.044715575713     1.007825032230
         H            2.096173165250     0.269234799803    -1.215220575713     1.007825032230
         H            0.016937165250    -2.409711200197    -0.341382575713     1.007825032230
         H            2.455280165250     0.507318799803     1.222232424287     1.007825032230
         H            2.278966165250    -1.251273200197     1.446831424287     1.007825032230
         H            3.662168165250    -0.602393200197     0.542913424287     1.007825032230
         H           -1.876009834750     2.096115799803     0.296957424287     1.007825032230
         H           -2.538198834750    -2.358062700197     0.163055124287     1.007825032230
         H           -3.377381834750     0.126605799803     0.469970424287     1.007825032230

  Basis Set: AUG-CC-PVTZ
    Blend: AUG-CC-PVTZ
  Basis Set: (AUG-CC-PVTZ AUX)
    Blend: AUG-CC-PVTZ-JKFIT
	 Reference Energy          =    -399.7490420167540037 [Eh]
	 Singles Energy            =      -0.0000000000000000 [Eh]
	 Same-Spin Energy          =      -0.4238583153714164 [Eh]
	 Opposite-Spin Energy      =      -1.3419010252942842 [Eh]
	 Correlation Energy        =      -1.7657593406657006 [Eh]
	 Total Energy              =    -401.5148013574196852 [Eh]

	 ================> DF-SCS-MP2 Energies <==================
	-----------------------------------------------------------
	 SCS Same-Spin Scale       =       0.3333333333333333 [-]
	 SCS Opposite-Spin Scale   =       1.2000000000000000 [-]
	 SCS Same-Spin Energy      =      -0.1412861051238055 [Eh]
	 SCS Opposite-Spin Energy  =      -1.6102812303531411 [Eh]
	 SCS Correlation Energy    =      -1.7515673354769465 [Eh]
	 SCS Total Energy          =    -401.5006093522309243 [Eh]
	-----------------------------------------------------------

  Dipole Moment: [D]
     X:    -0.7300      Y:    -3.7562      Z:     0.0324     Total:     3.8266

*** Psi4 exiting successfully. Buy a developer a beer!
