                               Psi4 1.3.2 release

  ==> Input File <==

--------------------------------------------------------------------------
#psi4
#
memory 32 gb

molecule  {
0 1
  O        0.6831730     1.9514370    -0.1851230
  N        0.3221270    -0.3206750    -0.2979720
  C        1.7580560    -0.4955670    -0.5492050
  C       -0.2113905     0.9729385    -0.0949488
  C       -0.4973450    -1.4105120    -0.1972350
  C        2.5603930    -0.4317450     0.7423750
  C       -1.5372540     1.1223260     0.1526570
  C       -1.8319680    -1.2780450     0.0712850
  C       -2.3551590     0.0280850     0.2487950
  H        1.8855710    -1.4559800    -1.0561060
  H        2.0595230     0.3051280    -1.2266110
  H       -0.0197130    -2.3738180    -0.3527730
  H        2.4186300     0.5432120     1.2108420
  H        2.2423160    -1.2153800     1.4354410
  H        3.6255180    -0.5665000     0.5315230
  H       -1.9126600     2.1320090     0.2855670
  H       -2.4591310    -2.1595270     0.1391440
  H       -3.4140320     0.1624990     0.4585800
units angstrom
no_reorient  #important for SAPT in psi4, default
symmetry c1  #important for SAPT in psi4, default
}

set PROPERTIES_ORIGIN ["COM"]
properties('MP2/aug-cc-pvtz', properties = ['dipole'])
--------------------------------------------------------------------------

    Molecular point group: c1
  Charge       = 0
  Multiplicity = 1
  Basis Set: AUG-CC-PVTZ
    Blend: AUG-CC-PVTZ
  Basis Set: (AUG-CC-PVTZ AUX)
    Blend: AUG-CC-PVTZ-JKFIT

    Orbital Energies [Eh]
    ---------------------

    Doubly Occupied:

       1A    -20.484023     2A    -15.635707     3A    -11.343416
       4A    -11.316138     5A    -11.281729     6A    -11.276110
       7A    -11.247282     8A    -11.234259     9A    -11.220301
      10A     -1.339196    11A     -1.249416    12A     -1.131605
      13A     -1.041152    14A     -1.023220    15A     -0.904988
      16A     -0.872841    17A     -0.833985    18A     -0.718956
      19A     -0.705638    20A     -0.670027    21A     -0.643702
      22A     -0.617749    23A     -0.610287    24A     -0.591201
      25A     -0.553827    26A     -0.531891    27A     -0.527101
      28A     -0.523934    29A     -0.504114    30A     -0.454019
      31A     -0.413513    32A     -0.404002    33A     -0.313045

  @DF-RHF Final Energy:  -399.75059809109530

   => Energetics <=

    Nuclear Repulsion Energy =            437.3507622243478750
    One-Electron Energy =               -1409.7659708875955857
    Two-Electron Energy =                 572.6646105721524691
    Total Energy =                       -399.7505980910952985
  Basis Set: (AUG-CC-PVTZ AUX)
    Blend: AUG-CC-PVTZ-RI
    Molecular point group: c1

    Geometry (in Angstrom), charge = 0, multiplicity = 1:

       Center              X                  Y                   Z               Mass
    ------------   -----------------  -----------------  -----------------  -----------------
         O            0.727679076220     1.917733596588    -0.175273927544    15.994914619570
         N            0.366633076220    -0.354378403412    -0.288122927544    14.003074004430
         C            1.802562076220    -0.529270403412    -0.539355927544    12.000000000000
         C           -0.166884423780     0.939235096588    -0.085099727544    12.000000000000
         C           -0.452838923780    -1.444215403412    -0.187385927544    12.000000000000
         C            2.604899076220    -0.465448403412     0.752224072456    12.000000000000
         C           -1.492747923780     1.088622596588     0.162506072456    12.000000000000
         C           -1.787461923780    -1.311748403412     0.081134072456    12.000000000000
         C           -2.310652923780    -0.005618403412     0.258644072456    12.000000000000
         H            1.930077076220    -1.489683403412    -1.046256927544     1.007825032230
         H            2.104029076220     0.271424596588    -1.216761927544     1.007825032230
         H            0.024793076220    -2.407521403412    -0.342923927544     1.007825032230
         H            2.463136076220     0.509508596588     1.220691072456     1.007825032230
         H            2.286822076220    -1.249083403412     1.445290072456     1.007825032230
         H            3.670024076220    -0.600203403412     0.541372072456     1.007825032230
         H           -1.868153923780     2.098305596588     0.295416072456     1.007825032230
         H           -2.414624923780    -2.193230403412     0.148993072456     1.007825032230
         H           -3.369525923780     0.128795596588     0.468429072456     1.007825032230

  Basis Set: AUG-CC-PVTZ
    Blend: AUG-CC-PVTZ
  Basis Set: (AUG-CC-PVTZ AUX)
    Blend: AUG-CC-PVTZ-JKFIT
	 Reference Energy          =    -399.7505980910952985 [Eh]
	 Singles Energy            =      -0.0000000000000000 [Eh]
	 Same-Spin Energy          =      -0.4260124505162789 [Eh]
	 Opposite-Spin Energy      =      -1.3434068543948825 [Eh]
	 Correlation Energy        =      -1.7694193049111613 [Eh]
	 Total Energy              =    -401.5200173960064376 [Eh]

	 ================> DF-SCS-MP2 Energies <==================
	-----------------------------------------------------------
	 SCS Same-Spin Scale       =       0.3333333333333333 [-]
	 SCS Opposite-Spin Scale   =       1.2000000000000000 [-]
	 SCS Same-Spin Energy      =      -0.1420041501720929 [Eh]
	 SCS Opposite-Spin Energy  =      -1.6120882252738589 [Eh]
	 SCS Correlation Energy    =      -1.7540923754459519 [Eh]
	 SCS Total Energy          =    -401.5046904665412626 [Eh]
	-----------------------------------------------------------

  Dipole Moment: [D]
     X:    -1.2094      Y:    -4.3878      Z:     0.0849     Total:     4.5522

*** Psi4 exiting successfully. Buy a developer a beer!
