                               Psi4 1.3.2 release

  ==> Input File <==

--------------------------------------------------------------------------
#psi4
#
memory 32 gb

molecule  {
0 1
  O        0.6831730     1.9514370    -0.1851230
  N        0.3221270    -0.3206750    -0.2979720
  C        1.7580560    -0.4955670    -0.5492050
  C       -0.2507116     0.8571933    -0.0999934
  C       -0.4973450    -1.4105120    -0.1972350
  C        2.5603930    -0.4317450     0.7423750
  C       -1.5372540     1.1223260     0.1526570
  C       -1.8319680    -1.2780450     0.0712850
  C       -2.3551590     0.0280850     0.2487950
  H        1.8855710    -1.4559800    -1.0561060
  H        2.0595230     0.3051280    -1.2266110
  H       -0.0197130    -2.3738180    -0.3527730
  H        2.4186300     0.5432120     1.2108420
  H        2.2423160    -1.2153800     1.4354410
  H        3.6255180    -0.5665000     0.5315230
  H       -1.9126600     2.1320090     0.2855670
  H       -2.4591310    -2.1595270     0.1391440
  H       -3.4140320     0.1624990     0.4585800
units angstrom
no_reorient  #important for SAPT in psi4, default
symmetry c1  #important for SAPT in psi4, default
}

set PROPERTIES_ORIGIN ["COM"]
properties('MP2/aug-cc-pvtz', properties = ['dipole'])
--------------------------------------------------------------------------

    Molecular point group: c1
  Charge       = 0
  Multiplicity = 1
  Basis Set: AUG-CC-PVTZ
    Blend: AUG-CC-PVTZ
  Basis Set: (AUG-CC-PVTZ AUX)
    Blend: AUG-CC-PVTZ-JKFIT

    Orbital Energies [Eh]
    ---------------------

    Doubly Occupied:

       1A    -20.458594     2A    -15.649222     3A    -11.332261
       4A    -11.320530     5A    -11.284794     6A    -11.281517
       7A    -11.258068     8A    -11.240756     9A    -11.221829
      10A     -1.355556    11A     -1.197621    12A     -1.142847
      13A     -1.044207    14A     -1.034778    15A     -0.910143
      16A     -0.894458    17A     -0.836734    18A     -0.730168
      19A     -0.710966    20A     -0.675894    21A     -0.654444
      22A     -0.630674    23A     -0.614653    24A     -0.590435
      25A     -0.557607    26A     -0.538138    27A     -0.526521
      28A     -0.509444    29A     -0.478643    30A     -0.429644
      31A     -0.420547    32A     -0.377274    33A     -0.314837

  @DF-RHF Final Energy:  -399.71185890702048

   => Energetics <=

    Nuclear Repulsion Energy =            438.3183373915737207
    One-Electron Energy =               -1411.6127827042685112
    Two-Electron Energy =                 573.5825864056743058
    Total Energy =                       -399.7118589070204280
  Basis Set: (AUG-CC-PVTZ AUX)
    Blend: AUG-CC-PVTZ-RI
    Molecular point group: c1

    Geometry (in Angstrom), charge = 0, multiplicity = 1:

       Center              X                  Y                   Z               Mass
    ------------   -----------------  -----------------  -----------------  -----------------
         O            0.731513148546     1.929019533863    -0.174782045037    15.994914619570
         N            0.370467148546    -0.343092466137    -0.287631045037    14.003074004430
         C            1.806396148546    -0.517984466137    -0.538864045037    12.000000000000
         C           -0.202371451454     0.834775833863    -0.089652445037    12.000000000000
         C           -0.449004851454    -1.432929466137    -0.186894045037    12.000000000000
         C            2.608733148546    -0.454162466137     0.752715954963    12.000000000000
         C           -1.488913851454     1.099908533863     0.162997954963    12.000000000000
         C           -1.783627851454    -1.300462466137     0.081625954963    12.000000000000
         C           -2.306818851454     0.005667533863     0.259135954963    12.000000000000
         H            1.933911148546    -1.478397466137    -1.045765045037     1.007825032230
         H            2.107863148546     0.282710533863    -1.216270045037     1.007825032230
         H            0.028627148546    -2.396235466137    -0.342432045037     1.007825032230
         H            2.466970148546     0.520794533863     1.221182954963     1.007825032230
         H            2.290656148546    -1.237797466137     1.445781954963     1.007825032230
         H            3.673858148546    -0.588917466137     0.541863954963     1.007825032230
         H           -1.864319851454     2.109591533863     0.295907954963     1.007825032230
         H           -2.410790851454    -2.181944466137     0.149484954963     1.007825032230
         H           -3.365691851454     0.140081533863     0.468920954963     1.007825032230

  Basis Set: AUG-CC-PVTZ
    Blend: AUG-CC-PVTZ
  Basis Set: (AUG-CC-PVTZ AUX)
    Blend: AUG-CC-PVTZ-JKFIT
	 Reference Energy          =    -399.7118589070204848 [Eh]
	 Singles Energy            =      -0.0000000000000000 [Eh]
	 Same-Spin Energy          =      -0.4271827741389331 [Eh]
	 Opposite-Spin Energy      =      -1.3458354230653573 [Eh]
	 Correlation Energy        =      -1.7730181972042904 [Eh]
	 Total Energy              =    -401.4848771042247790 [Eh]

	 ================> DF-SCS-MP2 Energies <==================
	-----------------------------------------------------------
	 SCS Same-Spin Scale       =       0.3333333333333333 [-]
	 SCS Opposite-Spin Scale   =       1.2000000000000000 [-]
	 SCS Same-Spin Energy      =      -0.1423942580463110 [Eh]
	 SCS Opposite-Spin Energy  =      -1.6150025076784287 [Eh]
	 SCS Correlation Energy    =      -1.7573967657247396 [Eh]
	 SCS Total Energy          =    -401.4692556727452484 [Eh]
	-----------------------------------------------------------

  Dipole Moment: [D]
     X:    -1.6465      Y:    -5.1716      Z:     0.1283     Total:     5.4289

*** Psi4 exiting successfully. Buy a developer a beer!
