                               Psi4 1.3.2 release

  ==> Input File <==

--------------------------------------------------------------------------
#psi4
#
memory 32 gb

molecule  {
0 1
  O        0.6831730     1.9514370    -0.1851230
  N        0.3176523    -0.3433263    -0.3090855
  C        1.7580560    -0.4955670    -0.5492050
  C       -0.1211040     1.0090560    -0.1118080
  C       -0.4973450    -1.4105120    -0.1972350
  C        2.5603930    -0.4317450     0.7423750
  C       -1.5372540     1.1223260     0.1526570
  C       -1.8319680    -1.2780450     0.0712850
  C       -2.3551590     0.0280850     0.2487950
  H        1.8855710    -1.4559800    -1.0561060
  H        2.0595230     0.3051280    -1.2266110
  H       -0.0197130    -2.3738180    -0.3527730
  H        2.4186300     0.5432120     1.2108420
  H        2.2423160    -1.2153800     1.4354410
  H        3.6255180    -0.5665000     0.5315230
  H       -1.9126600     2.1320090     0.2855670
  H       -2.4591310    -2.1595270     0.1391440
  H       -3.4140320     0.1624990     0.4585800
units angstrom
no_reorient  #important for SAPT in psi4, default
symmetry c1  #important for SAPT in psi4, default
}

set PROPERTIES_ORIGIN ["COM"]
properties('MP2/aug-cc-pvtz', properties = ['dipole'])
--------------------------------------------------------------------------

    Molecular point group: c1
  Charge       = 0
  Multiplicity = 1
  Basis Set: AUG-CC-PVTZ
    Blend: AUG-CC-PVTZ
  Basis Set: (AUG-CC-PVTZ AUX)
    Blend: AUG-CC-PVTZ-JKFIT

    Orbital Energies [Eh]
    ---------------------

    Doubly Occupied:

       1A    -20.509436     2A    -15.626246     3A    -11.352608
       4A    -11.307703     5A    -11.274488     6A    -11.270527
       7A    -11.237650     8A    -11.235685     9A    -11.221927
      10A     -1.368997    11A     -1.282483    12A     -1.118393
      13A     -1.033463    14A     -1.015351    15A     -0.896071
      16A     -0.868455    17A     -0.827019    18A     -0.714136
      19A     -0.700251    20A     -0.665936    21A     -0.640951
      22A     -0.615220    23A     -0.607338    24A     -0.604442
      25A     -0.561352    26A     -0.538459    27A     -0.530836
      28A     -0.525961    29A     -0.506039    30A     -0.477430
      31A     -0.421908    32A     -0.408439    33A     -0.306660

  @DF-RHF Final Energy:  -399.77031855529697

   => Energetics <=

    Nuclear Repulsion Energy =            437.2890170402121157
    One-Electron Energy =               -1409.5749494659087304
    Two-Electron Energy =                 572.5156138703996476
    Total Energy =                       -399.7703185552969671
  Basis Set: (AUG-CC-PVTZ AUX)
    Blend: AUG-CC-PVTZ-RI
    Molecular point group: c1

    Geometry (in Angstrom), charge = 0, multiplicity = 1:

       Center              X                  Y                   Z               Mass
    ------------   -----------------  -----------------  -----------------  -----------------
         O            0.719384677907     1.916789226168    -0.172365516267    15.994914619570
         N            0.353863977907    -0.377974073832    -0.296328016267    14.003074004430
         C            1.794267677907    -0.530214773832    -0.536447516267    12.000000000000
         C           -0.084892322093     0.974408226168    -0.099050516267    12.000000000000
         C           -0.461133322093    -1.445159773832    -0.184477516267    12.000000000000
         C            2.596604677907    -0.466392773832     0.755132483733    12.000000000000
         C           -1.501042322093     1.087678226168     0.165414483733    12.000000000000
         C           -1.795756322093    -1.312692773832     0.084042483733    12.000000000000
         C           -2.318947322093    -0.006562773832     0.261552483733    12.000000000000
         H            1.921782677907    -1.490627773832    -1.043348516267     1.007825032230
         H            2.095734677907     0.270480226168    -1.213853516267     1.007825032230
         H            0.016498677907    -2.408465773832    -0.340015516267     1.007825032230
         H            2.454841677907     0.508564226168     1.223599483733     1.007825032230
         H            2.278527677907    -1.250027773832     1.448198483733     1.007825032230
         H            3.661729677907    -0.601147773832     0.544280483733     1.007825032230
         H           -1.876448322093     2.097361226168     0.298324483733     1.007825032230
         H           -2.422919322093    -2.194174773832     0.151901483733     1.007825032230
         H           -3.377820322093     0.127851226168     0.471337483733     1.007825032230

  Basis Set: AUG-CC-PVTZ
    Blend: AUG-CC-PVTZ
  Basis Set: (AUG-CC-PVTZ AUX)
    Blend: AUG-CC-PVTZ-JKFIT
	 Reference Energy          =    -399.7703185552969671 [Eh]
	 Singles Energy            =      -0.0000000000000000 [Eh]
	 Same-Spin Energy          =      -0.4237662807912871 [Eh]
	 Opposite-Spin Energy      =      -1.3400466020737773 [Eh]
	 Correlation Energy        =      -1.7638128828650643 [Eh]
	 Total Energy              =    -401.5341314381620350 [Eh]

	 ================> DF-SCS-MP2 Energies <==================
	-----------------------------------------------------------
	 SCS Same-Spin Scale       =       0.3333333333333333 [-]
	 SCS Opposite-Spin Scale   =       1.2000000000000000 [-]
	 SCS Same-Spin Energy      =      -0.1412554269304290 [Eh]
	 SCS Opposite-Spin Energy  =      -1.6080559224885327 [Eh]
	 SCS Correlation Energy    =      -1.7493113494189618 [Eh]
	 SCS Total Energy          =    -401.5196299047159414 [Eh]
	-----------------------------------------------------------

  Dipole Moment: [D]
     X:    -0.6747      Y:    -3.7323      Z:     0.0336     Total:     3.7929

*** Psi4 exiting successfully. Buy a developer a beer!
