                               Psi4 1.3.2 release

  ==> Input File <==

--------------------------------------------------------------------------
#psi4
#
memory 32 gb

molecule  {
0 1
  O        0.6831730     1.9514370    -0.1851230
  N        0.3221270    -0.3206750    -0.2979720
  C        1.7580560    -0.4955670    -0.5492050
  C       -0.1211040     1.0090560    -0.1118080
  C       -0.4950185    -1.3867709    -0.1963222
  C        2.5603930    -0.4317450     0.7423750
  C       -1.5372540     1.1223260     0.1526570
  C       -1.8319680    -1.2780450     0.0712850
  C       -2.3551590     0.0280850     0.2487950
  H        1.8855710    -1.4559800    -1.0561060
  H        2.0595230     0.3051280    -1.2266110
  H       -0.0197130    -2.3738180    -0.3527730
  H        2.4186300     0.5432120     1.2108420
  H        2.2423160    -1.2153800     1.4354410
  H        3.6255180    -0.5665000     0.5315230
  H       -1.9126600     2.1320090     0.2855670
  H       -2.4591310    -2.1595270     0.1391440
  H       -3.4140320     0.1624990     0.4585800
units angstrom
no_reorient  #important for SAPT in psi4, default
symmetry c1  #important for SAPT in psi4, default
}

set PROPERTIES_ORIGIN ["COM"]
properties('MP2/aug-cc-pvtz', properties = ['dipole'])
--------------------------------------------------------------------------

    Molecular point group: c1
  Charge       = 0
  Multiplicity = 1
  Basis Set: AUG-CC-PVTZ
    Blend: AUG-CC-PVTZ
  Basis Set: (AUG-CC-PVTZ AUX)
    Blend: AUG-CC-PVTZ-JKFIT

    Orbital Energies [Eh]
    ---------------------

    Doubly Occupied:

       1A    -20.506273     2A    -15.627131     3A    -11.349841
       4A    -11.309202     5A    -11.275286     6A    -11.269963
       7A    -11.238417     8A    -11.235425     9A    -11.222122
      10A     -1.370701    11A     -1.283843    12A     -1.119421
      13A     -1.032220    14A     -1.017975    15A     -0.896116
      16A     -0.871108    17A     -0.826833    18A     -0.714100
      19A     -0.701266    20A     -0.664641    21A     -0.641436
      22A     -0.615679    23A     -0.607602    24A     -0.603851
      25A     -0.561579    26A     -0.538527    27A     -0.529709
      28A     -0.525861    29A     -0.506847    30A     -0.476136
      31A     -0.420889    32A     -0.409078    33A     -0.307270

  @DF-RHF Final Energy:  -399.77134544080701

   => Energetics <=

    Nuclear Repulsion Energy =            437.9032261593235376
    One-Electron Energy =               -1410.7964398343085577
    Two-Electron Energy =                 573.1218682341780095
    Total Energy =                       -399.7713454408069538
  Basis Set: (AUG-CC-PVTZ AUX)
    Blend: AUG-CC-PVTZ-RI
    Molecular point group: c1

    Geometry (in Angstrom), charge = 0, multiplicity = 1:

       Center              X                  Y                   Z               Mass
    ------------   -----------------  -----------------  -----------------  -----------------
         O            0.718648684387     1.911896979562    -0.173719046045    15.994914619570
         N            0.357602684387    -0.360215020438    -0.286568046045    14.003074004430
         C            1.793531684387    -0.535107020438    -0.537801046045    12.000000000000
         C           -0.085628315613     0.969515979562    -0.100404046045    12.000000000000
         C           -0.459542815613    -1.426310920438    -0.184918246045    12.000000000000
         C            2.595868684387    -0.471285020438     0.753778953955    12.000000000000
         C           -1.501778315613     1.082785979562     0.164060953955    12.000000000000
         C           -1.796492315613    -1.317585020438     0.082688953955    12.000000000000
         C           -2.319683315613    -0.011455020438     0.260198953955    12.000000000000
         H            1.921046684387    -1.495520020438    -1.044702046045     1.007825032230
         H            2.094998684387     0.265587979562    -1.215207046045     1.007825032230
         H            0.015762684387    -2.413358020438    -0.341369046045     1.007825032230
         H            2.454105684387     0.503671979562     1.222245953955     1.007825032230
         H            2.277791684387    -1.254920020438     1.446844953955     1.007825032230
         H            3.660993684387    -0.606040020438     0.542926953955     1.007825032230
         H           -1.877184315613     2.092468979562     0.296970953955     1.007825032230
         H           -2.423655315613    -2.199067020438     0.150547953955     1.007825032230
         H           -3.378556315613     0.122958979562     0.469983953955     1.007825032230

  Basis Set: AUG-CC-PVTZ
    Blend: AUG-CC-PVTZ
  Basis Set: (AUG-CC-PVTZ AUX)
    Blend: AUG-CC-PVTZ-JKFIT
	 Reference Energy          =    -399.7713454408070106 [Eh]
	 Singles Energy            =      -0.0000000000000000 [Eh]
	 Same-Spin Energy          =      -0.4235362585638880 [Eh]
	 Opposite-Spin Energy      =      -1.3395465261993760 [Eh]
	 Correlation Energy        =      -1.7630827847632640 [Eh]
	 Total Energy              =    -401.5344282255702524 [Eh]

	 ================> DF-SCS-MP2 Energies <==================
	-----------------------------------------------------------
	 SCS Same-Spin Scale       =       0.3333333333333333 [-]
	 SCS Opposite-Spin Scale   =       1.2000000000000000 [-]
	 SCS Same-Spin Energy      =      -0.1411787528546293 [Eh]
	 SCS Opposite-Spin Energy  =      -1.6074558314392511 [Eh]
	 SCS Correlation Energy    =      -1.7486345842938804 [Eh]
	 SCS Total Energy          =    -401.5199800251008924 [Eh]
	-----------------------------------------------------------

  Dipole Moment: [D]
     X:    -0.6911      Y:    -3.8010      Z:     0.0255     Total:     3.8634

*** Psi4 exiting successfully. Buy a developer a beer!
