                               Psi4 1.3.2 release

  ==> Input File <==

--------------------------------------------------------------------------
#psi4
#
memory 32 gb

molecule  {
0 1
  O        0.6831730     1.9514370    -0.1851230
  N        0.3221270    -0.3206750    -0.2979720
  C        1.7508587    -0.5463027    -0.5497956
  C       -0.1211040     1.0090560    -0.1118080
  C       -0.4973450    -1.4105120    -0.1972350
  C        2.5603930    -0.4317450     0.7423750
  C       -1.5372540     1.1223260     0.1526570
  C       -1.8319680    -1.2780450     0.0712850
  C       -2.3551590     0.0280850     0.2487950
  H        1.8855710    -1.4559800    -1.0561060
  H        2.0595230     0.3051280    -1.2266110
  H       -0.0197130    -2.3738180    -0.3527730
  H        2.4186300     0.5432120     1.2108420
  H        2.2423160    -1.2153800     1.4354410
  H        3.6255180    -0.5665000     0.5315230
  H       -1.9126600     2.1320090     0.2855670
  H       -2.4591310    -2.1595270     0.1391440
  H       -3.4140320     0.1624990     0.4585800
units angstrom
no_reorient  #important for SAPT in psi4, default
symmetry c1  #important for SAPT in psi4, default
}

set PROPERTIES_ORIGIN ["COM"]
properties('MP2/aug-cc-pvtz', properties = ['dipole'])
--------------------------------------------------------------------------

    Molecular point group: c1
  Charge       = 0
  Multiplicity = 1
  Basis Set: AUG-CC-PVTZ
    Blend: AUG-CC-PVTZ
  Basis Set: (AUG-CC-PVTZ AUX)
    Blend: AUG-CC-PVTZ-JKFIT

    Orbital Energies [Eh]
    ---------------------

    Doubly Occupied:

       1A    -20.506177     2A    -15.625815     3A    -11.350525
       4A    -11.308171     5A    -11.273465     6A    -11.270595
       7A    -11.239785     8A    -11.237319     9A    -11.221628
      10A     -1.368533    11A     -1.278879    12A     -1.118855
      13A     -1.030312    14A     -1.017988    15A     -0.895076
      16A     -0.872552    17A     -0.824761    18A     -0.715844
      19A     -0.698889    20A     -0.669772    21A     -0.638208
      22A     -0.613983    23A     -0.608598    24A     -0.604380
      25A     -0.560291    26A     -0.538042    27A     -0.534313
      28A     -0.527039    29A     -0.498303    30A     -0.475710
      31A     -0.421130    32A     -0.406605    33A     -0.308571

  @DF-RHF Final Energy:  -399.76823706015853

   => Energetics <=

    Nuclear Repulsion Energy =            437.2524847430098589
    One-Electron Energy =               -1409.5212149238573147
    Two-Electron Energy =                 572.5004931206889296
    Total Energy =                       -399.7682370601585262
  Basis Set: (AUG-CC-PVTZ AUX)
    Blend: AUG-CC-PVTZ-RI
    Molecular point group: c1

    Geometry (in Angstrom), charge = 0, multiplicity = 1:

       Center              X                  Y                   Z               Mass
    ------------   -----------------  -----------------  -----------------  -----------------
         O            0.719577319090     1.919158969634    -0.173572454410    15.994914619570
         N            0.358531319090    -0.352953030366    -0.286421454410    14.003074004430
         C            1.787263019090    -0.578580730366    -0.538245054410    12.000000000000
         C           -0.084699680910     0.976777969634    -0.100257454410    12.000000000000
         C           -0.460940680910    -1.442790030366    -0.185684454410    12.000000000000
         C            2.596797319090    -0.464023030366     0.753925545590    12.000000000000
         C           -1.500849680910     1.090047969634     0.164207545590    12.000000000000
         C           -1.795563680910    -1.310323030366     0.082835545590    12.000000000000
         C           -2.318754680910    -0.004193030366     0.260345545590    12.000000000000
         H            1.921975319090    -1.488258030366    -1.044555454410     1.007825032230
         H            2.095927319090     0.272849969634    -1.215060454410     1.007825032230
         H            0.016691319090    -2.406096030366    -0.341222454410     1.007825032230
         H            2.455034319090     0.510933969634     1.222392545590     1.007825032230
         H            2.278720319090    -1.247658030366     1.446991545590     1.007825032230
         H            3.661922319090    -0.598778030366     0.543073545590     1.007825032230
         H           -1.876255680910     2.099730969634     0.297117545590     1.007825032230
         H           -2.422726680910    -2.191805030366     0.150694545590     1.007825032230
         H           -3.377627680910     0.130220969634     0.470130545590     1.007825032230

  Basis Set: AUG-CC-PVTZ
    Blend: AUG-CC-PVTZ
  Basis Set: (AUG-CC-PVTZ AUX)
    Blend: AUG-CC-PVTZ-JKFIT
	 Reference Energy          =    -399.7682370601585262 [Eh]
	 Singles Energy            =      -0.0000000000000000 [Eh]
	 Same-Spin Energy          =      -0.4235515388249252 [Eh]
	 Opposite-Spin Energy      =      -1.3400617223053963 [Eh]
	 Correlation Energy        =      -1.7636132611303217 [Eh]
	 Total Energy              =    -401.5318503212888572 [Eh]

	 ================> DF-SCS-MP2 Energies <==================
	-----------------------------------------------------------
	 SCS Same-Spin Scale       =       0.3333333333333333 [-]
	 SCS Opposite-Spin Scale   =       1.2000000000000000 [-]
	 SCS Same-Spin Energy      =      -0.1411838462749751 [Eh]
	 SCS Opposite-Spin Energy  =      -1.6080740667664755 [Eh]
	 SCS Correlation Energy    =      -1.7492579130414505 [Eh]
	 SCS Total Energy          =    -401.5174949731999732 [Eh]
	-----------------------------------------------------------

  Dipole Moment: [D]
     X:    -0.7597      Y:    -3.8462      Z:     0.0271     Total:     3.9206

*** Psi4 exiting successfully. Buy a developer a beer!
