                               Psi4 1.3.2 release

  ==> Input File <==

--------------------------------------------------------------------------
#psi4
#
memory 32 gb

molecule  {
0 1
  O        0.6831730     1.9514370    -0.1851230
  N        0.3221270    -0.3206750    -0.2979720
  C        1.7580560    -0.4955670    -0.5492050
  C       -0.1211040     1.0090560    -0.1118080
  C       -0.4973450    -1.4105120    -0.1972350
  C        2.5603930    -0.4317450     0.7423750
  C       -1.5372540     1.1223260     0.1526570
  C       -1.6368187    -1.2974144     0.0320219
  C       -2.3551590     0.0280850     0.2487950
  H        1.8855710    -1.4559800    -1.0561060
  H        2.0595230     0.3051280    -1.2266110
  H       -0.0197130    -2.3738180    -0.3527730
  H        2.4186300     0.5432120     1.2108420
  H        2.2423160    -1.2153800     1.4354410
  H        3.6255180    -0.5665000     0.5315230
  H       -1.9126600     2.1320090     0.2855670
  H       -2.4591310    -2.1595270     0.1391440
  H       -3.4140320     0.1624990     0.4585800
units angstrom
no_reorient  #important for SAPT in psi4, default
symmetry c1  #important for SAPT in psi4, default
}

set PROPERTIES_ORIGIN ["COM"]
properties('MP2/aug-cc-pvtz', properties = ['dipole'])
--------------------------------------------------------------------------

    Molecular point group: c1
  Charge       = 0
  Multiplicity = 1
  Basis Set: AUG-CC-PVTZ
    Blend: AUG-CC-PVTZ
  Basis Set: (AUG-CC-PVTZ AUX)
    Blend: AUG-CC-PVTZ-JKFIT

    Orbital Energies [Eh]
    ---------------------

    Doubly Occupied:

       1A    -20.512214     2A    -15.605536     3A    -11.352780
       4A    -11.280749     5A    -11.266635     6A    -11.265815
       7A    -11.245852     8A    -11.231696     9A    -11.216236
      10A     -1.370439    11A     -1.278924    12A     -1.124543
      13A     -1.056422    14A     -1.012848    15A     -0.892362
      16A     -0.853276    17A     -0.828841    18A     -0.715194
      19A     -0.699322    20A     -0.662551    21A     -0.634241
      22A     -0.625773    23A     -0.607973    24A     -0.596550
      25A     -0.568660    26A     -0.530930    27A     -0.523037
      28A     -0.508287    29A     -0.489776    30A     -0.485685
      31A     -0.424092    32A     -0.398688    33A     -0.336344

  @DF-RHF Final Energy:  -399.70853038937014

   => Energetics <=

    Nuclear Repulsion Energy =            440.3428775355269522
    One-Electron Energy =               -1415.6982688804134796
    Two-Electron Energy =                 575.6468609555164448
    Total Energy =                       -399.7085303893701393
  Basis Set: (AUG-CC-PVTZ AUX)
    Blend: AUG-CC-PVTZ-RI
    Molecular point group: c1

    Geometry (in Angstrom), charge = 0, multiplicity = 1:

       Center              X                  Y                   Z               Mass
    ------------   -----------------  -----------------  -----------------  -----------------
         O            0.699847161507     1.916100543934    -0.169801624956    15.994914619570
         N            0.338801161507    -0.356011456066    -0.282650624956    14.003074004430
         C            1.774730161507    -0.530903456066    -0.533883624956    12.000000000000
         C           -0.104429838493     0.973719543934    -0.096486624956    12.000000000000
         C           -0.480670838493    -1.445848456066    -0.181913624956    12.000000000000
         C            2.577067161507    -0.467081456066     0.757696375044    12.000000000000
         C           -1.520579838493     1.086989543934     0.167978375044    12.000000000000
         C           -1.620144538493    -1.332750856066     0.047343275044    12.000000000000
         C           -2.338484838493    -0.007251456066     0.264116375044    12.000000000000
         H            1.902245161507    -1.491316456066    -1.040784624956     1.007825032230
         H            2.076197161507     0.269791543934    -1.211289624956     1.007825032230
         H           -0.003038838493    -2.409154456066    -0.337451624956     1.007825032230
         H            2.435304161507     0.507875543934     1.226163375044     1.007825032230
         H            2.258990161507    -1.250716456066     1.450762375044     1.007825032230
         H            3.642192161507    -0.601836456066     0.546844375044     1.007825032230
         H           -1.895985838493     2.096672543934     0.300888375044     1.007825032230
         H           -2.442456838493    -2.194863456066     0.154465375044     1.007825032230
         H           -3.397357838493     0.127162543934     0.473901375044     1.007825032230

  Basis Set: AUG-CC-PVTZ
    Blend: AUG-CC-PVTZ
  Basis Set: (AUG-CC-PVTZ AUX)
    Blend: AUG-CC-PVTZ-JKFIT
	 Reference Energy          =    -399.7085303893701393 [Eh]
	 Singles Energy            =      -0.0000000000000000 [Eh]
	 Same-Spin Energy          =      -0.4205009864257960 [Eh]
	 Opposite-Spin Energy      =      -1.3376991567003720 [Eh]
	 Correlation Energy        =      -1.7582001431261680 [Eh]
	 Total Energy              =    -401.4667305324962854 [Eh]

	 ================> DF-SCS-MP2 Energies <==================
	-----------------------------------------------------------
	 SCS Same-Spin Scale       =       0.3333333333333333 [-]
	 SCS Opposite-Spin Scale   =       1.2000000000000000 [-]
	 SCS Same-Spin Energy      =      -0.1401669954752653 [Eh]
	 SCS Opposite-Spin Energy  =      -1.6052389880404463 [Eh]
	 SCS Correlation Energy    =      -1.7454059835157116 [Eh]
	 SCS Total Energy          =    -401.4539363728858348 [Eh]
	-----------------------------------------------------------

  Dipole Moment: [D]
     X:    -1.1344      Y:    -3.5137      Z:     0.0909     Total:     3.6934

*** Psi4 exiting successfully. Buy a developer a beer!
