                               Psi4 1.3.2 release

  ==> Input File <==

--------------------------------------------------------------------------
#psi4
#
memory 32 gb

molecule  {
0 1
  O        0.6831730     1.9514370    -0.1851230
  N        0.3221270    -0.3206750    -0.2979720
  C        1.7580560    -0.4955670    -0.5492050
  C       -0.1665450     0.9917968    -0.1032598
  C       -0.4973450    -1.4105120    -0.1972350
  C        2.5603930    -0.4317450     0.7423750
  C       -1.5372540     1.1223260     0.1526570
  C       -1.8319680    -1.2780450     0.0712850
  C       -2.3551590     0.0280850     0.2487950
  H        1.8855710    -1.4559800    -1.0561060
  H        2.0595230     0.3051280    -1.2266110
  H       -0.0197130    -2.3738180    -0.3527730
  H        2.4186300     0.5432120     1.2108420
  H        2.2423160    -1.2153800     1.4354410
  H        3.6255180    -0.5665000     0.5315230
  H       -1.9126600     2.1320090     0.2855670
  H       -2.4591310    -2.1595270     0.1391440
  H       -3.4140320     0.1624990     0.4585800
units angstrom
no_reorient  #important for SAPT in psi4, default
symmetry c1  #important for SAPT in psi4, default
}

set PROPERTIES_ORIGIN ["COM"]
properties('MP2/aug-cc-pvtz', properties = ['dipole'])
--------------------------------------------------------------------------

    Molecular point group: c1
  Charge       = 0
  Multiplicity = 1
  Basis Set: AUG-CC-PVTZ
    Blend: AUG-CC-PVTZ
  Basis Set: (AUG-CC-PVTZ AUX)
    Blend: AUG-CC-PVTZ-JKFIT

    Orbital Energies [Eh]
    ---------------------

    Doubly Occupied:

       1A    -20.495367     2A    -15.630505     3A    -11.347231
       4A    -11.312384     5A    -11.276139     6A    -11.274935
       7A    -11.243620     8A    -11.236008     9A    -11.220700
      10A     -1.350009    11A     -1.267053    12A     -1.125011
      13A     -1.035974    14A     -1.020980    15A     -0.900204
      16A     -0.871522    17A     -0.829675    18A     -0.716523
      19A     -0.702734    20A     -0.668363    21A     -0.641201
      22A     -0.615487    23A     -0.609110    24A     -0.596255
      25A     -0.556733    26A     -0.536850    27A     -0.528342
      28A     -0.524709    29A     -0.505177    30A     -0.464560
      31A     -0.415384    32A     -0.409486    33A     -0.311159

  @DF-RHF Final Energy:  -399.76456944776493

   => Energetics <=

    Nuclear Repulsion Energy =            437.3592314264461720
    One-Electron Energy =               -1409.7688197626791862
    Two-Electron Energy =                 572.6450188884680301
    Total Energy =                       -399.7645694477649840
  Basis Set: (AUG-CC-PVTZ AUX)
    Blend: AUG-CC-PVTZ-RI
    Molecular point group: c1

    Geometry (in Angstrom), charge = 0, multiplicity = 1:

       Center              X                  Y                   Z               Mass
    ------------   -----------------  -----------------  -----------------  -----------------
         O            0.723306337653     1.915894785208    -0.174463549017    15.994914619570
         N            0.362260337653    -0.356217214792    -0.287312549017    14.003074004430
         C            1.798189337653    -0.531109214792    -0.538545549017    12.000000000000
         C           -0.126411662347     0.956254585208    -0.092600349017    12.000000000000
         C           -0.457211662347    -1.446054214792    -0.186575549017    12.000000000000
         C            2.600526337653    -0.467287214792     0.753034450983    12.000000000000
         C           -1.497120662347     1.086783785208     0.163316450983    12.000000000000
         C           -1.791834662347    -1.313587214792     0.081944450983    12.000000000000
         C           -2.315025662347    -0.007457214792     0.259454450983    12.000000000000
         H            1.925704337653    -1.491522214792    -1.045446549017     1.007825032230
         H            2.099656337653     0.269585785208    -1.215951549017     1.007825032230
         H            0.020420337653    -2.409360214792    -0.342113549017     1.007825032230
         H            2.458763337653     0.507669785208     1.221501450983     1.007825032230
         H            2.282449337653    -1.250922214792     1.446100450983     1.007825032230
         H            3.665651337653    -0.602042214792     0.542182450983     1.007825032230
         H           -1.872526662347     2.096466785208     0.296226450983     1.007825032230
         H           -2.418997662347    -2.195069214792     0.149803450983     1.007825032230
         H           -3.373898662347     0.126956785208     0.469239450983     1.007825032230

  Basis Set: AUG-CC-PVTZ
    Blend: AUG-CC-PVTZ
  Basis Set: (AUG-CC-PVTZ AUX)
    Blend: AUG-CC-PVTZ-JKFIT
	 Reference Energy          =    -399.7645694477649272 [Eh]
	 Singles Energy            =      -0.0000000000000000 [Eh]
	 Same-Spin Energy          =      -0.4247434920931328 [Eh]
	 Opposite-Spin Energy      =      -1.3415937513304721 [Eh]
	 Correlation Energy        =      -1.7663372434236049 [Eh]
	 Total Energy              =    -401.5309066911885338 [Eh]

	 ================> DF-SCS-MP2 Energies <==================
	-----------------------------------------------------------
	 SCS Same-Spin Scale       =       0.3333333333333333 [-]
	 SCS Opposite-Spin Scale   =       1.2000000000000000 [-]
	 SCS Same-Spin Energy      =      -0.1415811640310443 [Eh]
	 SCS Opposite-Spin Energy  =      -1.6099125015965665 [Eh]
	 SCS Correlation Energy    =      -1.7514936656276108 [Eh]
	 SCS Total Energy          =    -401.5160631133925335 [Eh]
	-----------------------------------------------------------

  Dipole Moment: [D]
     X:    -0.9899      Y:    -4.0986      Z:     0.0593     Total:     4.2168

*** Psi4 exiting successfully. Buy a developer a beer!
