                               Psi4 1.3.2 release

  ==> Input File <==

--------------------------------------------------------------------------
#psi4
#
memory 32 gb

molecule  {
0 1
  O        0.6831730     1.9514370    -0.1851230
  N        0.3221270    -0.3206750    -0.2979720
  C        1.7580560    -0.4955670    -0.5492050
  C       -0.1211040     1.0090560    -0.1118080
  C       -0.5198082    -1.5518590    -0.2009860
  C        2.5603930    -0.4317450     0.7423750
  C       -1.5372540     1.1223260     0.1526570
  C       -1.8319680    -1.2780450     0.0712850
  C       -2.3551590     0.0280850     0.2487950
  H        1.8855710    -1.4559800    -1.0561060
  H        2.0595230     0.3051280    -1.2266110
  H       -0.0197130    -2.3738180    -0.3527730
  H        2.4186300     0.5432120     1.2108420
  H        2.2423160    -1.2153800     1.4354410
  H        3.6255180    -0.5665000     0.5315230
  H       -1.9126600     2.1320090     0.2855670
  H       -2.4591310    -2.1595270     0.1391440
  H       -3.4140320     0.1624990     0.4585800
units angstrom
no_reorient  #important for SAPT in psi4, default
symmetry c1  #important for SAPT in psi4, default
}

set PROPERTIES_ORIGIN ["COM"]
properties('MP2/aug-cc-pvtz', properties = ['dipole'])
--------------------------------------------------------------------------

    Molecular point group: c1
  Charge       = 0
  Multiplicity = 1
  Basis Set: AUG-CC-PVTZ
    Blend: AUG-CC-PVTZ
  Basis Set: (AUG-CC-PVTZ AUX)
    Blend: AUG-CC-PVTZ-JKFIT

    Orbital Energies [Eh]
    ---------------------

    Doubly Occupied:

       1A    -20.506245     2A    -15.614346     3A    -11.349723
       4A    -11.308188     5A    -11.274666     6A    -11.265285
       7A    -11.252563     8A    -11.247109     9A    -11.215414
      10A     -1.362669    11A     -1.247348    12A     -1.118388
      13A     -1.034662    14A     -1.011874    15A     -0.897605
      16A     -0.870204    17A     -0.812473    18A     -0.720528
      19A     -0.694182    20A     -0.687039    21A     -0.631697
      22A     -0.615792    23A     -0.603537    24A     -0.599523
      25A     -0.555649    26A     -0.544522    27A     -0.523820
      28A     -0.516465    29A     -0.496417    30A     -0.469797
      31A     -0.421646    32A     -0.398354    33A     -0.318443

  @DF-RHF Final Energy:  -399.74329018405678

   => Energetics <=

    Nuclear Repulsion Energy =            434.7523523044142166
    One-Electron Energy =               -1404.6189407853887587
    Two-Electron Energy =                 570.1232982969177101
    Total Energy =                       -399.7432901840568320
  Basis Set: (AUG-CC-PVTZ AUX)
    Blend: AUG-CC-PVTZ-RI
    Molecular point group: c1

    Geometry (in Angstrom), charge = 0, multiplicity = 1:

       Center              X                  Y                   Z               Mass
    ------------   -----------------  -----------------  -----------------  -----------------
         O            0.721065847252     1.927994182224    -0.173264294104    15.994914619570
         N            0.360019847252    -0.344117817776    -0.286113294104    14.003074004430
         C            1.795948847252    -0.519009817776    -0.537346294104    12.000000000000
         C           -0.083211152748     0.985613182224    -0.099949294104    12.000000000000
         C           -0.481915352748    -1.575301817776    -0.189127294104    12.000000000000
         C            2.598285847252    -0.455187817776     0.754233705896    12.000000000000
         C           -1.499361152748     1.098883182224     0.164515705896    12.000000000000
         C           -1.794075152748    -1.301487817776     0.083143705896    12.000000000000
         C           -2.317266152748     0.004642182224     0.260653705896    12.000000000000
         H            1.923463847252    -1.479422817776    -1.044247294104     1.007825032230
         H            2.097415847252     0.281685182224    -1.214752294104     1.007825032230
         H            0.018179847252    -2.397260817776    -0.340914294104     1.007825032230
         H            2.456522847252     0.519769182224     1.222700705896     1.007825032230
         H            2.280208847252    -1.238822817776     1.447299705896     1.007825032230
         H            3.663410847252    -0.589942817776     0.543381705896     1.007825032230
         H           -1.874767152748     2.108566182224     0.297425705896     1.007825032230
         H           -2.421238152748    -2.182969817776     0.151002705896     1.007825032230
         H           -3.376139152748     0.139056182224     0.470438705896     1.007825032230

  Basis Set: AUG-CC-PVTZ
    Blend: AUG-CC-PVTZ
  Basis Set: (AUG-CC-PVTZ AUX)
    Blend: AUG-CC-PVTZ-JKFIT
	 Reference Energy          =    -399.7432901840567752 [Eh]
	 Singles Energy            =      -0.0000000000000000 [Eh]
	 Same-Spin Energy          =      -0.4233390532970751 [Eh]
	 Opposite-Spin Energy      =      -1.3430457452940925 [Eh]
	 Correlation Energy        =      -1.7663847985911676 [Eh]
	 Total Energy              =    -401.5096749826479368 [Eh]

	 ================> DF-SCS-MP2 Energies <==================
	-----------------------------------------------------------
	 SCS Same-Spin Scale       =       0.3333333333333333 [-]
	 SCS Opposite-Spin Scale   =       1.2000000000000000 [-]
	 SCS Same-Spin Energy      =      -0.1411130177656917 [Eh]
	 SCS Opposite-Spin Energy  =      -1.6116548943529110 [Eh]
	 SCS Correlation Energy    =      -1.7527679121186026 [Eh]
	 SCS Total Energy          =    -401.4960580961753749 [Eh]
	-----------------------------------------------------------

  Dipole Moment: [D]
     X:    -1.1605      Y:    -3.8712      Z:     0.0757     Total:     4.0421

*** Psi4 exiting successfully. Buy a developer a beer!
