                               Psi4 1.3.2 release

  ==> Input File <==

--------------------------------------------------------------------------
#psi4
#
memory 32 gb

molecule  {
0 1
  O        0.6831730     1.9514370    -0.1851230
  N        0.2758182    -0.3361907    -0.2908592
  C        1.7580560    -0.4955670    -0.5492050
  C       -0.1211040     1.0090560    -0.1118080
  C       -0.4973450    -1.4105120    -0.1972350
  C        2.5603930    -0.4317450     0.7423750
  C       -1.5372540     1.1223260     0.1526570
  C       -1.8319680    -1.2780450     0.0712850
  C       -2.3551590     0.0280850     0.2487950
  H        1.8855710    -1.4559800    -1.0561060
  H        2.0595230     0.3051280    -1.2266110
  H       -0.0197130    -2.3738180    -0.3527730
  H        2.4186300     0.5432120     1.2108420
  H        2.2423160    -1.2153800     1.4354410
  H        3.6255180    -0.5665000     0.5315230
  H       -1.9126600     2.1320090     0.2855670
  H       -2.4591310    -2.1595270     0.1391440
  H       -3.4140320     0.1624990     0.4585800
units angstrom
no_reorient  #important for SAPT in psi4, default
symmetry c1  #important for SAPT in psi4, default
}

set PROPERTIES_ORIGIN ["COM"]
properties('MP2/aug-cc-pvtz', properties = ['dipole'])
--------------------------------------------------------------------------

    Molecular point group: c1
  Charge       = 0
  Multiplicity = 1
  Basis Set: AUG-CC-PVTZ
    Blend: AUG-CC-PVTZ
  Basis Set: (AUG-CC-PVTZ AUX)
    Blend: AUG-CC-PVTZ-JKFIT

    Orbital Energies [Eh]
    ---------------------

    Doubly Occupied:

       1A    -20.507277     2A    -15.627246     3A    -11.350162
       4A    -11.305523     5A    -11.279180     6A    -11.268358
       7A    -11.235935     8A    -11.233674     9A    -11.223830
      10A     -1.369269    11A     -1.285556    12A     -1.114139
      13A     -1.034691    14A     -1.018908    15A     -0.891756
      16A     -0.873071    17A     -0.827747    18A     -0.717010
      19A     -0.698517    20A     -0.662539    21A     -0.640133
      22A     -0.615858    23A     -0.608344    24A     -0.604746
      25A     -0.561042    26A     -0.539120    27A     -0.530284
      28A     -0.521359    29A     -0.508624    30A     -0.478529
      31A     -0.420328    32A     -0.409286    33A     -0.305738

  @DF-RHF Final Energy:  -399.76828468562837

   => Energetics <=

    Nuclear Repulsion Energy =            437.5994144192022191
    One-Electron Energy =               -1410.1998459194453517
    Two-Electron Energy =                 572.8321468146147026
    Total Energy =                       -399.7682846856283732
  Basis Set: (AUG-CC-PVTZ AUX)
    Blend: AUG-CC-PVTZ-RI
    Molecular point group: c1

    Geometry (in Angstrom), charge = 0, multiplicity = 1:

       Center              X                  Y                   Z               Mass
    ------------   -----------------  -----------------  -----------------  -----------------
         O            0.724144680735     1.915977317314    -0.174439356496    15.994914619570
         N            0.316789880735    -0.371650382686    -0.280175556496    14.003074004430
         C            1.799027680735    -0.531026682686    -0.538521356496    12.000000000000
         C           -0.080132319265     0.973596317314    -0.101124356496    12.000000000000
         C           -0.456373319265    -1.445971682686    -0.186551356496    12.000000000000
         C            2.601364680735    -0.467204682686     0.753058643504    12.000000000000
         C           -1.496282319265     1.086866317314     0.163340643504    12.000000000000
         C           -1.790996319265    -1.313504682686     0.081968643504    12.000000000000
         C           -2.314187319265    -0.007374682686     0.259478643504    12.000000000000
         H            1.926542680735    -1.491439682686    -1.045422356496     1.007825032230
         H            2.100494680735     0.269668317314    -1.215927356496     1.007825032230
         H            0.021258680735    -2.409277682686    -0.342089356496     1.007825032230
         H            2.459601680735     0.507752317314     1.221525643504     1.007825032230
         H            2.283287680735    -1.250839682686     1.446124643504     1.007825032230
         H            3.666489680735    -0.601959682686     0.542206643504     1.007825032230
         H           -1.871688319265     2.096549317314     0.296250643504     1.007825032230
         H           -2.418159319265    -2.194986682686     0.149827643504     1.007825032230
         H           -3.373060319265     0.127039317314     0.469263643504     1.007825032230

  Basis Set: AUG-CC-PVTZ
    Blend: AUG-CC-PVTZ
  Basis Set: (AUG-CC-PVTZ AUX)
    Blend: AUG-CC-PVTZ-JKFIT
	 Reference Energy          =    -399.7682846856283732 [Eh]
	 Singles Energy            =      -0.0000000000000000 [Eh]
	 Same-Spin Energy          =      -0.4238760398374535 [Eh]
	 Opposite-Spin Energy      =      -1.3399490826475957 [Eh]
	 Correlation Energy        =      -1.7638251224850492 [Eh]
	 Total Energy              =    -401.5321098081134323 [Eh]

	 ================> DF-SCS-MP2 Energies <==================
	-----------------------------------------------------------
	 SCS Same-Spin Scale       =       0.3333333333333333 [-]
	 SCS Opposite-Spin Scale   =       1.2000000000000000 [-]
	 SCS Same-Spin Energy      =      -0.1412920132791512 [Eh]
	 SCS Opposite-Spin Energy  =      -1.6079388991771149 [Eh]
	 SCS Correlation Energy    =      -1.7492309124562659 [Eh]
	 SCS Total Energy          =    -401.5175155980846284 [Eh]
	-----------------------------------------------------------

  Dipole Moment: [D]
     X:    -0.5659      Y:    -3.8215      Z:     0.0134     Total:     3.8632

*** Psi4 exiting successfully. Buy a developer a beer!
