                               Psi4 1.4a3.dev225

  ==> Input File <==

--------------------------------------------------------------------------
#psi4
#
memory 32 gb

molecule  {
0 1
  O        0.6831730     1.9514370    -0.1851230
  N        0.3221270    -0.3206750    -0.2979720
  C        1.7580560    -0.4955670    -0.5492050
  C       -0.1211040     1.0090560    -0.1118080
  C       -0.4973450    -1.4105120    -0.1972350
  C        2.5603930    -0.4317450     0.7423750
  C       -1.5372540     1.1223260     0.1526570
  C       -1.8319680    -1.2780450     0.0712850
  C       -2.3477806     0.0096651     0.2462916
  H        1.8855710    -1.4559800    -1.0561060
  H        2.0595230     0.3051280    -1.2266110
  H       -0.0197130    -2.3738180    -0.3527730
  H        2.4186300     0.5432120     1.2108420
  H        2.2423160    -1.2153800     1.4354410
  H        3.6255180    -0.5665000     0.5315230
  H       -1.9126600     2.1320090     0.2855670
  H       -2.4591310    -2.1595270     0.1391440
  H       -3.4140320     0.1624990     0.4585800
units angstrom
no_reorient  #important for SAPT in psi4, default
symmetry c1  #important for SAPT in psi4, default
}

set PROPERTIES_ORIGIN ["COM"]
properties('MP2/aug-cc-pvtz', properties = ['dipole'])
--------------------------------------------------------------------------

    Molecular point group: c1
  Charge       = 0
  Multiplicity = 1
  Basis Set: AUG-CC-PVTZ
    Blend: AUG-CC-PVTZ
  Basis Set: (AUG-CC-PVTZ AUX)
    Blend: AUG-CC-PVTZ-JKFIT

    Orbital Energies [Eh]
    ---------------------

    Doubly Occupied:

       1A    -20.504645     2A    -15.626836     3A    -11.348597
       4A    -11.310345     5A    -11.274207     6A    -11.270767
       7A    -11.239104     8A    -11.237041     9A    -11.221396
      10A     -1.368334    11A     -1.278732    12A     -1.120776
      13A     -1.030296    14A     -1.019217    15A     -0.896416
      16A     -0.870879    17A     -0.824167    18A     -0.715365
      19A     -0.700990    20A     -0.666440    21A     -0.640100
      22A     -0.612933    23A     -0.607975    24A     -0.605008
      25A     -0.557689    26A     -0.541227    27A     -0.529870
      28A     -0.526212    29A     -0.506005    30A     -0.475631
      31A     -0.419813    32A     -0.407741    33A     -0.307680

  @DF-RHF Final Energy:  -399.77041041102069

   => Energetics <=

    Nuclear Repulsion Energy =            437.6055439393887241
    One-Electron Energy =               -1410.2270374018307848
    Two-Electron Energy =                 572.8510830514212557
    Total Energy =                       -399.7704104110207481
  Basis Set: (AUG-CC-PVTZ AUX)
    Blend: AUG-CC-PVTZ-RI
    Molecular point group: c1

    Geometry (in Angstrom), charge = 0, multiplicity = 1:

       Center              X                  Y                   Z               Mass
    ------------   -----------------  -----------------  -----------------  -----------------
         O            0.718156090080     1.916007961283    -0.173385943515    15.994914619570
         N            0.357110090080    -0.356104038717    -0.286234943515    14.003074004430
         C            1.793039090080    -0.530996038717    -0.537467943515    12.000000000000
         C           -0.086120909920     0.973626961283    -0.100070943515    12.000000000000
         C           -0.462361909920    -1.445941038717    -0.185497943515    12.000000000000
         C            2.595376090080    -0.467174038717     0.754112056485    12.000000000000
         C           -1.502270909920     1.086896961283     0.164394056485    12.000000000000
         C           -1.796984909920    -1.313474038717     0.083022056485    12.000000000000
         C           -2.312797509920    -0.025763938717     0.258028656485    12.000000000000
         H            1.920554090080    -1.491409038717    -1.044368943515     1.007825032230
         H            2.094506090080     0.269698961283    -1.214873943515     1.007825032230
         H            0.015270090080    -2.409247038717    -0.341035943515     1.007825032230
         H            2.453613090080     0.507782961283     1.222579056485     1.007825032230
         H            2.277299090080    -1.250809038717     1.447178056485     1.007825032230
         H            3.660501090080    -0.601929038717     0.543260056485     1.007825032230
         H           -1.877676909920     2.096579961283     0.297304056485     1.007825032230
         H           -2.424147909920    -2.194956038717     0.150881056485     1.007825032230
         H           -3.379048909920     0.127069961283     0.470317056485     1.007825032230

  Basis Set: AUG-CC-PVTZ
    Blend: AUG-CC-PVTZ
  Basis Set: (AUG-CC-PVTZ AUX)
    Blend: AUG-CC-PVTZ-JKFIT
	 Reference Energy          =    -399.7704104110206913 [Eh]
	 Singles Energy            =      -0.0000000000000000 [Eh]
	 Same-Spin Energy          =      -0.4238838784451984 [Eh]
	 Opposite-Spin Energy      =      -1.3401380511120065 [Eh]
	 Correlation Energy        =      -1.7640219295572048 [Eh]
	 Total Energy              =    -401.5344323405778937 [Eh]

	 ================> DF-SCS-MP2 Energies <==================
	-----------------------------------------------------------
	 SCS Same-Spin Scale       =       0.3333333333333333 [-]
	 SCS Opposite-Spin Scale   =       1.2000000000000000 [-]
	 SCS Same-Spin Energy      =      -0.1412946261483995 [Eh]
	 SCS Opposite-Spin Energy  =      -1.6081656613344077 [Eh]
	 SCS Correlation Energy    =      -1.7494602874828071 [Eh]
	 SCS Total Energy          =    -401.5198706985034960 [Eh]
	-----------------------------------------------------------

  Dipole Moment: [D]
     X:    -0.7438      Y:    -3.8557      Z:     0.0283     Total:     3.9269

*** Psi4 exiting successfully. Buy a developer a beer!
