                               Psi4 1.3.2 release

  ==> Input File <==

--------------------------------------------------------------------------
#psi4
#
memory 32 gb

molecule  {
0 1
  O        0.6831730     1.9514370    -0.1851230
  N        0.3136528    -0.3254860    -0.3482841
  C        1.7580560    -0.4955670    -0.5492050
  C       -0.1211040     1.0090560    -0.1118080
  C       -0.4973450    -1.4105120    -0.1972350
  C        2.5603930    -0.4317450     0.7423750
  C       -1.5372540     1.1223260     0.1526570
  C       -1.8319680    -1.2780450     0.0712850
  C       -2.3551590     0.0280850     0.2487950
  H        1.8855710    -1.4559800    -1.0561060
  H        2.0595230     0.3051280    -1.2266110
  H       -0.0197130    -2.3738180    -0.3527730
  H        2.4186300     0.5432120     1.2108420
  H        2.2423160    -1.2153800     1.4354410
  H        3.6255180    -0.5665000     0.5315230
  H       -1.9126600     2.1320090     0.2855670
  H       -2.4591310    -2.1595270     0.1391440
  H       -3.4140320     0.1624990     0.4585800
units angstrom
no_reorient  #important for SAPT in psi4, default
symmetry c1  #important for SAPT in psi4, default
}

set PROPERTIES_ORIGIN ["COM"]
properties('MP2/aug-cc-pvtz', properties = ['dipole'])
--------------------------------------------------------------------------

    Molecular point group: c1
  Charge       = 0
  Multiplicity = 1
  Basis Set: AUG-CC-PVTZ
    Blend: AUG-CC-PVTZ
  Basis Set: (AUG-CC-PVTZ AUX)
    Blend: AUG-CC-PVTZ-JKFIT

    Orbital Energies [Eh]
    ---------------------

    Doubly Occupied:

       1A    -20.507890     2A    -15.625433     3A    -11.351076
       4A    -11.308390     5A    -11.273602     6A    -11.270817
       7A    -11.239466     8A    -11.236775     9A    -11.222136
      10A     -1.368890    11A     -1.278854    12A     -1.118786
      13A     -1.031705    14A     -1.016976    15A     -0.896826
      16A     -0.868924    17A     -0.825278    18A     -0.713160
      19A     -0.700123    20A     -0.665720    21A     -0.640548
      22A     -0.614244    23A     -0.607365    24A     -0.604969
      25A     -0.560887    26A     -0.539007    27A     -0.532125
      28A     -0.524487    29A     -0.505048    30A     -0.475904
      31A     -0.421886    32A     -0.407932    33A     -0.308307

  @DF-RHF Final Energy:  -399.77046997787880

   => Energetics <=

    Nuclear Repulsion Energy =            437.1847831838224465
    One-Electron Energy =               -1409.3834334065718394
    Two-Electron Energy =                 572.4281802448706458
    Total Energy =                       -399.7704699778787472
  Basis Set: (AUG-CC-PVTZ AUX)
    Blend: AUG-CC-PVTZ-RI
    Molecular point group: c1

    Geometry (in Angstrom), charge = 0, multiplicity = 1:

       Center              X                  Y                   Z               Mass
    ------------   -----------------  -----------------  -----------------  -----------------
         O            0.719839752387     1.914759306116    -0.167905388122    15.994914619570
         N            0.350319552387    -0.362163693884    -0.331066488122    14.003074004430
         C            1.794722752387    -0.532244693884    -0.531987388122    12.000000000000
         C           -0.084437247613     0.972378306116    -0.094590388122    12.000000000000
         C           -0.460678247613    -1.447189693884    -0.180017388122    12.000000000000
         C            2.597059752387    -0.468422693884     0.759592611878    12.000000000000
         C           -1.500587247613     1.085648306116     0.169874611878    12.000000000000
         C           -1.795301247613    -1.314722693884     0.088502611878    12.000000000000
         C           -2.318492247613    -0.008592693884     0.266012611878    12.000000000000
         H            1.922237752387    -1.492657693884    -1.038888388122     1.007825032230
         H            2.096189752387     0.268450306116    -1.209393388122     1.007825032230
         H            0.016953752387    -2.410495693884    -0.335555388122     1.007825032230
         H            2.455296752387     0.506534306116     1.228059611878     1.007825032230
         H            2.278982752387    -1.252057693884     1.452658611878     1.007825032230
         H            3.662184752387    -0.603177693884     0.548740611878     1.007825032230
         H           -1.875993247613     2.095331306116     0.302784611878     1.007825032230
         H           -2.422464247613    -2.196204693884     0.156361611878     1.007825032230
         H           -3.377365247613     0.125821306116     0.475797611878     1.007825032230

  Basis Set: AUG-CC-PVTZ
    Blend: AUG-CC-PVTZ
  Basis Set: (AUG-CC-PVTZ AUX)
    Blend: AUG-CC-PVTZ-JKFIT
	 Reference Energy          =    -399.7704699778788040 [Eh]
	 Singles Energy            =      -0.0000000000000000 [Eh]
	 Same-Spin Energy          =      -0.4235046322550223 [Eh]
	 Opposite-Spin Energy      =      -1.3399402275503387 [Eh]
	 Correlation Energy        =      -1.7634448598053609 [Eh]
	 Total Energy              =    -401.5339148376841649 [Eh]

	 ================> DF-SCS-MP2 Energies <==================
	-----------------------------------------------------------
	 SCS Same-Spin Scale       =       0.3333333333333333 [-]
	 SCS Opposite-Spin Scale   =       1.2000000000000000 [-]
	 SCS Same-Spin Energy      =      -0.1411682107516741 [Eh]
	 SCS Opposite-Spin Energy  =      -1.6079282730604063 [Eh]
	 SCS Correlation Energy    =      -1.7490964838120804 [Eh]
	 SCS Total Energy          =    -401.5195664616908857 [Eh]
	-----------------------------------------------------------

  Dipole Moment: [D]
     X:    -0.7325      Y:    -3.7654      Z:     0.0691     Total:     3.8366

*** Psi4 exiting successfully. Buy a developer a beer!
