                               Psi4 1.4a3.dev225

  ==> Input File <==

--------------------------------------------------------------------------
#psi4
#
memory 32 gb

molecule  {
0 1
  O        0.6831730     1.9514370    -0.1851230
  N        0.3221270    -0.3206750    -0.2979720
  C        1.7580560    -0.4955670    -0.5492050
  C       -0.1367773     1.0560774    -0.1052249
  C       -0.4973450    -1.4105120    -0.1972350
  C        2.5603930    -0.4317450     0.7423750
  C       -1.5372540     1.1223260     0.1526570
  C       -1.8319680    -1.2780450     0.0712850
  C       -2.3551590     0.0280850     0.2487950
  H        1.8855710    -1.4559800    -1.0561060
  H        2.0595230     0.3051280    -1.2266110
  H       -0.0197130    -2.3738180    -0.3527730
  H        2.4186300     0.5432120     1.2108420
  H        2.2423160    -1.2153800     1.4354410
  H        3.6255180    -0.5665000     0.5315230
  H       -1.9126600     2.1320090     0.2855670
  H       -2.4591310    -2.1595270     0.1391440
  H       -3.4140320     0.1624990     0.4585800
units angstrom
no_reorient  #important for SAPT in psi4, default
symmetry c1  #important for SAPT in psi4, default
}

set PROPERTIES_ORIGIN ["COM"]
properties('MP2/aug-cc-pvtz', properties = ['dipole'])
--------------------------------------------------------------------------

    Molecular point group: c1
  Charge       = 0
  Multiplicity = 1
  Basis Set: AUG-CC-PVTZ
    Blend: AUG-CC-PVTZ
  Basis Set: (AUG-CC-PVTZ AUX)
    Blend: AUG-CC-PVTZ-JKFIT

    Orbital Energies [Eh]
    ---------------------

    Doubly Occupied:

       1A    -20.513503     2A    -15.620154     3A    -11.351746
       4A    -11.308121     5A    -11.272778     6A    -11.271557
       7A    -11.236284     8A    -11.233442     9A    -11.220023
      10A     -1.381218    11A     -1.274057    12A     -1.117638
      13A     -1.031615    14A     -1.013328    15A     -0.895710
      16A     -0.859619    17A     -0.826542    18A     -0.710855
      19A     -0.701217    20A     -0.667195    21A     -0.636894
      22A     -0.614996    23A     -0.609274    24A     -0.603688
      25A     -0.563487    26A     -0.537131    27A     -0.532300
      28A     -0.526096    29A     -0.503626    30A     -0.480797
      31A     -0.424767    32A     -0.404993    33A     -0.307305

  @DF-RHF Final Energy:  -399.76910405058538

   => Energetics <=

    Nuclear Repulsion Energy =            437.0384460245118134
    One-Electron Energy =               -1409.1111847543904787
    Two-Electron Energy =                 572.3036346792932818
    Total Energy =                       -399.7691040505853834
  Basis Set: (AUG-CC-PVTZ AUX)
    Blend: AUG-CC-PVTZ-RI
    Molecular point group: c1

    Geometry (in Angstrom), charge = 0, multiplicity = 1:

       Center              X                  Y                   Z               Mass
    ------------   -----------------  -----------------  -----------------  -----------------
         O            0.720403786229     1.909626993372    -0.174271938520    15.994914619570
         N            0.359357786229    -0.362485006628    -0.287120938520    14.003074004430
         C            1.795286786229    -0.537377006628    -0.538353938520    12.000000000000
         C           -0.099546513771     1.014267393372    -0.094373838520    12.000000000000
         C           -0.460114213771    -1.452322006628    -0.186383938520    12.000000000000
         C            2.597623786229    -0.473555006628     0.753226061480    12.000000000000
         C           -1.500023213771     1.080515993372     0.163508061480    12.000000000000
         C           -1.794737213771    -1.319855006628     0.082136061480    12.000000000000
         C           -2.317928213771    -0.013725006628     0.259646061480    12.000000000000
         H            1.922801786229    -1.497790006628    -1.045254938520     1.007825032230
         H            2.096753786229     0.263317993372    -1.215759938520     1.007825032230
         H            0.017517786229    -2.415628006628    -0.341921938520     1.007825032230
         H            2.455860786229     0.501401993372     1.221693061480     1.007825032230
         H            2.279546786229    -1.257190006628     1.446292061480     1.007825032230
         H            3.662748786229    -0.608310006628     0.542374061480     1.007825032230
         H           -1.875429213771     2.090198993372     0.296418061480     1.007825032230
         H           -2.421900213771    -2.201337006628     0.149995061480     1.007825032230
         H           -3.376801213771     0.120688993372     0.469431061480     1.007825032230

  Basis Set: AUG-CC-PVTZ
    Blend: AUG-CC-PVTZ
  Basis Set: (AUG-CC-PVTZ AUX)
    Blend: AUG-CC-PVTZ-JKFIT
	 Reference Energy          =    -399.7691040505853834 [Eh]
	 Singles Energy            =      -0.0000000000000000 [Eh]
	 Same-Spin Energy          =      -0.4236929539772381 [Eh]
	 Opposite-Spin Energy      =      -1.3398394428124467 [Eh]
	 Correlation Energy        =      -1.7635323967896848 [Eh]
	 Total Energy              =    -401.5326364473750687 [Eh]

	 ================> DF-SCS-MP2 Energies <==================
	-----------------------------------------------------------
	 SCS Same-Spin Scale       =       0.3333333333333333 [-]
	 SCS Opposite-Spin Scale   =       1.2000000000000000 [-]
	 SCS Same-Spin Energy      =      -0.1412309846590794 [Eh]
	 SCS Opposite-Spin Energy  =      -1.6078073313749359 [Eh]
	 SCS Correlation Energy    =      -1.7490383160340153 [Eh]
	 SCS Total Energy          =    -401.5181423666193723 [Eh]
	-----------------------------------------------------------

  Dipole Moment: [D]
     X:    -0.6854      Y:    -3.5604      Z:     0.0310     Total:     3.6259

*** Psi4 exiting successfully. Buy a developer a beer!
