                               Psi4 1.3.2 release

  ==> Input File <==

--------------------------------------------------------------------------
#psi4
#
memory 32 gb

molecule  {
0 1
  O        0.6831730     1.9514370    -0.1851230
  N        0.3221270    -0.3206750    -0.2979720
  C        1.7580560    -0.4955670    -0.5492050
  C       -0.1211040     1.0090560    -0.1118080
  C       -0.4973450    -1.4105120    -0.1972350
  C        2.5603930    -0.4317450     0.7423750
  C       -1.5372540     1.1223260     0.1526570
  C       -1.9295426    -1.2683603     0.0909166
  C       -2.3551590     0.0280850     0.2487950
  H        1.8855710    -1.4559800    -1.0561060
  H        2.0595230     0.3051280    -1.2266110
  H       -0.0197130    -2.3738180    -0.3527730
  H        2.4186300     0.5432120     1.2108420
  H        2.2423160    -1.2153800     1.4354410
  H        3.6255180    -0.5665000     0.5315230
  H       -1.9126600     2.1320090     0.2855670
  H       -2.4591310    -2.1595270     0.1391440
  H       -3.4140320     0.1624990     0.4585800
units angstrom
no_reorient  #important for SAPT in psi4, default
symmetry c1  #important for SAPT in psi4, default
}

set PROPERTIES_ORIGIN ["COM"]
properties('MP2/aug-cc-pvtz', properties = ['dipole'])
--------------------------------------------------------------------------

    Molecular point group: c1
  Charge       = 0
  Multiplicity = 1
  Basis Set: AUG-CC-PVTZ
    Blend: AUG-CC-PVTZ
  Basis Set: (AUG-CC-PVTZ AUX)
    Blend: AUG-CC-PVTZ-JKFIT

    Orbital Energies [Eh]
    ---------------------

    Doubly Occupied:

       1A    -20.503009     2A    -15.636670     3A    -11.347889
       4A    -11.327638     5A    -11.277774     6A    -11.264810
       7A    -11.243503     8A    -11.230943     9A    -11.223972
      10A     -1.368692    11A     -1.280223    12A     -1.119103
      13A     -1.030883    14A     -1.013431    15A     -0.899308
      16A     -0.876129    17A     -0.822487    18A     -0.716824
      19A     -0.700117    20A     -0.669704    21A     -0.645888
      22A     -0.615234    23A     -0.613463    24A     -0.598358
      25A     -0.560274    26A     -0.547403    27A     -0.530164
      28A     -0.520488    29A     -0.507781    30A     -0.470895
      31A     -0.418970    32A     -0.413003    33A     -0.297326

  @DF-RHF Final Energy:  -399.75584127206332

   => Energetics <=

    Nuclear Repulsion Energy =            436.2274886873643709
    One-Electron Energy =               -1407.3819516354303687
    Two-Electron Energy =                 571.3986216760026764
    Total Energy =                       -399.7558412720633214
  Basis Set: (AUG-CC-PVTZ AUX)
    Blend: AUG-CC-PVTZ-RI
    Molecular point group: c1

    Geometry (in Angstrom), charge = 0, multiplicity = 1:

       Center              X                  Y                   Z               Mass
    ------------   -----------------  -----------------  -----------------  -----------------
         O            0.728389715102     1.913267573321    -0.175544255234    15.994914619570
         N            0.367343715102    -0.358844426679    -0.288393255234    14.003074004430
         C            1.803272715102    -0.533736426679    -0.539626255234    12.000000000000
         C           -0.075887284898     0.970886573321    -0.102229255234    12.000000000000
         C           -0.452128284898    -1.448681426679    -0.187656255234    12.000000000000
         C            2.605609715102    -0.469914426679     0.751953744766    12.000000000000
         C           -1.492037284898     1.084156573321     0.162235744766    12.000000000000
         C           -1.884325884898    -1.306529726679     0.100495344766    12.000000000000
         C           -2.309942284898    -0.010084426679     0.258373744766    12.000000000000
         H            1.930787715102    -1.494149426679    -1.046527255234     1.007825032230
         H            2.104739715102     0.266958573321    -1.217032255234     1.007825032230
         H            0.025503715102    -2.411987426679    -0.343194255234     1.007825032230
         H            2.463846715102     0.505042573321     1.220420744766     1.007825032230
         H            2.287532715102    -1.253549426679     1.445019744766     1.007825032230
         H            3.670734715102    -0.604669426679     0.541101744766     1.007825032230
         H           -1.867443284898     2.093839573321     0.295145744766     1.007825032230
         H           -2.413914284898    -2.197696426679     0.148722744766     1.007825032230
         H           -3.368815284898     0.124329573321     0.468158744766     1.007825032230

  Basis Set: AUG-CC-PVTZ
    Blend: AUG-CC-PVTZ
  Basis Set: (AUG-CC-PVTZ AUX)
    Blend: AUG-CC-PVTZ-JKFIT
	 Reference Energy          =    -399.7558412720633214 [Eh]
	 Singles Energy            =      -0.0000000000000000 [Eh]
	 Same-Spin Energy          =      -0.4252591381180256 [Eh]
	 Opposite-Spin Energy      =      -1.3419864167824869 [Eh]
	 Correlation Energy        =      -1.7672455549005126 [Eh]
	 Total Energy              =    -401.5230868269638336 [Eh]

	 ================> DF-SCS-MP2 Energies <==================
	-----------------------------------------------------------
	 SCS Same-Spin Scale       =       0.3333333333333333 [-]
	 SCS Opposite-Spin Scale   =       1.2000000000000000 [-]
	 SCS Same-Spin Energy      =      -0.1417530460393419 [Eh]
	 SCS Opposite-Spin Energy  =      -1.6103837001389842 [Eh]
	 SCS Correlation Energy    =      -1.7521367461783262 [Eh]
	 SCS Total Energy          =    -401.5079780182416584 [Eh]
	-----------------------------------------------------------

  Dipole Moment: [D]
     X:    -0.6078      Y:    -3.9418      Z:     0.0096     Total:     3.9884

*** Psi4 exiting successfully. Buy a developer a beer!
