                               Psi4 1.3.2 release

  ==> Input File <==

--------------------------------------------------------------------------
#psi4
#
memory 32 gb

molecule  {
0 1
  O        0.6831730     1.9514370    -0.1851230
  N        0.3581034    -0.1861260    -0.2330147
  C        1.7580560    -0.4955670    -0.5492050
  C       -0.1211040     1.0090560    -0.1118080
  C       -0.4973450    -1.4105120    -0.1972350
  C        2.5603930    -0.4317450     0.7423750
  C       -1.5372540     1.1223260     0.1526570
  C       -1.8319680    -1.2780450     0.0712850
  C       -2.3551590     0.0280850     0.2487950
  H        1.8855710    -1.4559800    -1.0561060
  H        2.0595230     0.3051280    -1.2266110
  H       -0.0197130    -2.3738180    -0.3527730
  H        2.4186300     0.5432120     1.2108420
  H        2.2423160    -1.2153800     1.4354410
  H        3.6255180    -0.5665000     0.5315230
  H       -1.9126600     2.1320090     0.2855670
  H       -2.4591310    -2.1595270     0.1391440
  H       -3.4140320     0.1624990     0.4585800
units angstrom
no_reorient  #important for SAPT in psi4, default
symmetry c1  #important for SAPT in psi4, default
}

set PROPERTIES_ORIGIN ["COM"]
properties('MP2/aug-cc-pvtz', properties = ['dipole'])
--------------------------------------------------------------------------

    Molecular point group: c1
  Charge       = 0
  Multiplicity = 1
  Basis Set: AUG-CC-PVTZ
    Blend: AUG-CC-PVTZ
  Basis Set: (AUG-CC-PVTZ AUX)
    Blend: AUG-CC-PVTZ-JKFIT

    Orbital Energies [Eh]
    ---------------------

    Doubly Occupied:

       1A    -20.485533     2A    -15.620521     3A    -11.331501
       4A    -11.314115     5A    -11.272468     6A    -11.270733
       7A    -11.254210     8A    -11.244531     9A    -11.217851
      10A     -1.374780    11A     -1.257671    12A     -1.123758
      13A     -1.035097    14A     -1.020403    15A     -0.894879
      16A     -0.880619    17A     -0.808856    18A     -0.716305
      19A     -0.702543    20A     -0.678523    21A     -0.635621
      22A     -0.617093    23A     -0.605778    24A     -0.602839
      25A     -0.554442    26A     -0.543865    27A     -0.526649
      28A     -0.516982    29A     -0.498209    30A     -0.463837
      31A     -0.412271    32A     -0.401638    33A     -0.320450

  @DF-RHF Final Energy:  -399.74884164248186

   => Energetics <=

    Nuclear Repulsion Energy =            438.3832629245647468
    One-Electron Energy =               -1411.8550689650669483
    Two-Electron Energy =                 573.7229643980203946
    Total Energy =                       -399.7488416424818070
  Basis Set: (AUG-CC-PVTZ AUX)
    Blend: AUG-CC-PVTZ-RI
    Molecular point group: c1

    Geometry (in Angstrom), charge = 0, multiplicity = 1:

       Center              X                  Y                   Z               Mass
    ------------   -----------------  -----------------  -----------------  -----------------
         O            0.714782036752     1.898902529131    -0.181021068151    15.994914619570
         N            0.389712436752    -0.238660470869    -0.228912768151    14.003074004430
         C            1.789665036752    -0.548101470869    -0.545103068151    12.000000000000
         C           -0.089494963248     0.956521529131    -0.107706068151    12.000000000000
         C           -0.465735963248    -1.463046470869    -0.193133068151    12.000000000000
         C            2.592002036752    -0.484279470869     0.746476931849    12.000000000000
         C           -1.505644963248     1.069791529131     0.156758931849    12.000000000000
         C           -1.800358963248    -1.330579470869     0.075386931849    12.000000000000
         C           -2.323549963248    -0.024449470869     0.252896931849    12.000000000000
         H            1.917180036752    -1.508514470869    -1.052004068151     1.007825032230
         H            2.091132036752     0.252593529131    -1.222509068151     1.007825032230
         H            0.011896036752    -2.426352470869    -0.348671068151     1.007825032230
         H            2.450239036752     0.490677529131     1.214943931849     1.007825032230
         H            2.273925036752    -1.267914470869     1.439542931849     1.007825032230
         H            3.657127036752    -0.619034470869     0.535624931849     1.007825032230
         H           -1.881050963248     2.079474529131     0.289668931849     1.007825032230
         H           -2.427521963248    -2.212061470869     0.143245931849     1.007825032230
         H           -3.382422963248     0.109964529131     0.462681931849     1.007825032230

  Basis Set: AUG-CC-PVTZ
    Blend: AUG-CC-PVTZ
  Basis Set: (AUG-CC-PVTZ AUX)
    Blend: AUG-CC-PVTZ-JKFIT
	 Reference Energy          =    -399.7488416424818638 [Eh]
	 Singles Energy            =      -0.0000000000000000 [Eh]
	 Same-Spin Energy          =      -0.4220176894904892 [Eh]
	 Opposite-Spin Energy      =      -1.3402001939028656 [Eh]
	 Correlation Energy        =      -1.7622178833933548 [Eh]
	 Total Energy              =    -401.5110595258752255 [Eh]

	 ================> DF-SCS-MP2 Energies <==================
	-----------------------------------------------------------
	 SCS Same-Spin Scale       =       0.3333333333333333 [-]
	 SCS Opposite-Spin Scale   =       1.2000000000000000 [-]
	 SCS Same-Spin Energy      =      -0.1406725631634964 [Eh]
	 SCS Opposite-Spin Energy  =      -1.6082402326834386 [Eh]
	 SCS Correlation Energy    =      -1.7489127958469350 [Eh]
	 SCS Total Energy          =    -401.4977544383287977 [Eh]
	-----------------------------------------------------------

  Dipole Moment: [D]
     X:    -1.2062      Y:    -4.3147      Z:     0.0180     Total:     4.4801

*** Psi4 exiting successfully. Buy a developer a beer!
