                               Psi4 1.3.2 release

  ==> Input File <==

--------------------------------------------------------------------------
#psi4
#
memory 32 gb

molecule  {
0 1
  O        0.6831730     1.9514370    -0.1851230
  N        0.3221270    -0.3206750    -0.2979720
  C        1.7580560    -0.4955670    -0.5492050
  C       -0.1191560     1.0341866    -0.1109375
  C       -0.4973450    -1.4105120    -0.1972350
  C        2.5603930    -0.4317450     0.7423750
  C       -1.5372540     1.1223260     0.1526570
  C       -1.8319680    -1.2780450     0.0712850
  C       -2.3551590     0.0280850     0.2487950
  H        1.8855710    -1.4559800    -1.0561060
  H        2.0595230     0.3051280    -1.2266110
  H       -0.0197130    -2.3738180    -0.3527730
  H        2.4186300     0.5432120     1.2108420
  H        2.2423160    -1.2153800     1.4354410
  H        3.6255180    -0.5665000     0.5315230
  H       -1.9126600     2.1320090     0.2855670
  H       -2.4591310    -2.1595270     0.1391440
  H       -3.4140320     0.1624990     0.4585800
units angstrom
no_reorient  #important for SAPT in psi4, default
symmetry c1  #important for SAPT in psi4, default
}

set PROPERTIES_ORIGIN ["COM"]
properties('MP2/aug-cc-pvtz', properties = ['dipole'])
--------------------------------------------------------------------------

    Molecular point group: c1
  Charge       = 0
  Multiplicity = 1
  Basis Set: AUG-CC-PVTZ
    Blend: AUG-CC-PVTZ
  Basis Set: (AUG-CC-PVTZ AUX)
    Blend: AUG-CC-PVTZ-JKFIT

    Orbital Energies [Eh]
    ---------------------

    Doubly Occupied:

       1A    -20.511795     2A    -15.622073     3A    -11.351118
       4A    -11.307813     5A    -11.272538     6A    -11.270468
       7A    -11.237601     8A    -11.235486     9A    -11.220702
      10A     -1.379577    11A     -1.277801    12A     -1.117241
      13A     -1.030548    14A     -1.015002    15A     -0.894654
      16A     -0.865137    17A     -0.824676    18A     -0.712224
      19A     -0.700603    20A     -0.667294    21A     -0.638468
      22A     -0.613375    23A     -0.609668    24A     -0.605606
      25A     -0.562464    26A     -0.537838    27A     -0.531671
      28A     -0.526367    29A     -0.504712    30A     -0.479649
      31A     -0.423791    32A     -0.405988    33A     -0.307516

  @DF-RHF Final Energy:  -399.77143430757559

   => Energetics <=

    Nuclear Repulsion Energy =            437.2733491794755878
    One-Electron Energy =               -1409.5666406091502267
    Two-Electron Energy =                 572.5218571220990498
    Total Energy =                       -399.7714343075755323
  Basis Set: (AUG-CC-PVTZ AUX)
    Blend: AUG-CC-PVTZ-RI
    Molecular point group: c1

    Geometry (in Angstrom), charge = 0, multiplicity = 1:

       Center              X                  Y                   Z               Mass
    ------------   -----------------  -----------------  -----------------  -----------------
         O            0.718685590688     1.911761493945    -0.173714921509    15.994914619570
         N            0.357639590688    -0.360350506055    -0.286563921509    14.003074004430
         C            1.793568590688    -0.535242506055    -0.537796921509    12.000000000000
         C           -0.083643409312     0.994511093945    -0.099529421509    12.000000000000
         C           -0.461832409312    -1.450187506055    -0.185826921509    12.000000000000
         C            2.595905590688    -0.471420506055     0.753783078491    12.000000000000
         C           -1.501741409312     1.082650493945     0.164065078491    12.000000000000
         C           -1.796455409312    -1.317720506055     0.082693078491    12.000000000000
         C           -2.319646409312    -0.011590506055     0.260203078491    12.000000000000
         H            1.921083590688    -1.495655506055    -1.044697921509     1.007825032230
         H            2.095035590688     0.265452493945    -1.215202921509     1.007825032230
         H            0.015799590688    -2.413493506055    -0.341364921509     1.007825032230
         H            2.454142590688     0.503536493945     1.222250078491     1.007825032230
         H            2.277828590688    -1.255055506055     1.446849078491     1.007825032230
         H            3.661030590688    -0.606175506055     0.542931078491     1.007825032230
         H           -1.877147409312     2.092333493945     0.296975078491     1.007825032230
         H           -2.423618409312    -2.199202506055     0.150552078491     1.007825032230
         H           -3.378519409312     0.122823493945     0.469988078491     1.007825032230

  Basis Set: AUG-CC-PVTZ
    Blend: AUG-CC-PVTZ
  Basis Set: (AUG-CC-PVTZ AUX)
    Blend: AUG-CC-PVTZ-JKFIT
	 Reference Energy          =    -399.7714343075755892 [Eh]
	 Singles Energy            =      -0.0000000000000000 [Eh]
	 Same-Spin Energy          =      -0.4232802136291347 [Eh]
	 Opposite-Spin Energy      =      -1.3394454713061177 [Eh]
	 Correlation Energy        =      -1.7627256849352524 [Eh]
	 Total Energy              =    -401.5341599925108653 [Eh]

	 ================> DF-SCS-MP2 Energies <==================
	-----------------------------------------------------------
	 SCS Same-Spin Scale       =       0.3333333333333333 [-]
	 SCS Opposite-Spin Scale   =       1.2000000000000000 [-]
	 SCS Same-Spin Energy      =      -0.1410934045430449 [Eh]
	 SCS Opposite-Spin Energy  =      -1.6073345655673412 [Eh]
	 SCS Correlation Energy    =      -1.7484279701103862 [Eh]
	 SCS Total Energy          =    -401.5198622776860020 [Eh]
	-----------------------------------------------------------

  Dipole Moment: [D]
     X:    -0.6753      Y:    -3.6359      Z:     0.0252     Total:     3.6982

*** Psi4 exiting successfully. Buy a developer a beer!
