                               Psi4 1.3.2 release

  ==> Input File <==

--------------------------------------------------------------------------
#psi4
#
memory 32 gb

molecule  {
0 1
  O        0.6831730     1.9514370    -0.1851230
  N        0.3405469    -0.3351934    -0.3023730
  C        1.7580560    -0.4955670    -0.5492050
  C       -0.1211040     1.0090560    -0.1118080
  C       -0.4973450    -1.4105120    -0.1972350
  C        2.5603930    -0.4317450     0.7423750
  C       -1.5372540     1.1223260     0.1526570
  C       -1.8319680    -1.2780450     0.0712850
  C       -2.3551590     0.0280850     0.2487950
  H        1.8855710    -1.4559800    -1.0561060
  H        2.0595230     0.3051280    -1.2266110
  H       -0.0197130    -2.3738180    -0.3527730
  H        2.4186300     0.5432120     1.2108420
  H        2.2423160    -1.2153800     1.4354410
  H        3.6255180    -0.5665000     0.5315230
  H       -1.9126600     2.1320090     0.2855670
  H       -2.4591310    -2.1595270     0.1391440
  H       -3.4140320     0.1624990     0.4585800
units angstrom
no_reorient  #important for SAPT in psi4, default
symmetry c1  #important for SAPT in psi4, default
}

set PROPERTIES_ORIGIN ["COM"]
properties('MP2/aug-cc-pvtz', properties = ['dipole'])
--------------------------------------------------------------------------

    Molecular point group: c1
  Charge       = 0
  Multiplicity = 1
  Basis Set: AUG-CC-PVTZ
    Blend: AUG-CC-PVTZ
  Basis Set: (AUG-CC-PVTZ AUX)
    Blend: AUG-CC-PVTZ-JKFIT

    Orbital Energies [Eh]
    ---------------------

    Doubly Occupied:

       1A    -20.508755     2A    -15.625295     3A    -11.352370
       4A    -11.309323     5A    -11.271944     6A    -11.271522
       7A    -11.239747     8A    -11.237344     9A    -11.220433
      10A     -1.368994    11A     -1.279357    12A     -1.120769
      13A     -1.031894    14A     -1.015129    15A     -0.897599
      16A     -0.867429    17A     -0.825586    18A     -0.713405
      19A     -0.701190    20A     -0.668679    21A     -0.640693
      22A     -0.614434    23A     -0.606805    24A     -0.604626
      25A     -0.561144    26A     -0.537861    27A     -0.531020
      28A     -0.527097    29A     -0.504640    30A     -0.475574
      31A     -0.422102    32A     -0.407417    33A     -0.308156

  @DF-RHF Final Energy:  -399.77034494607864

   => Energetics <=

    Nuclear Repulsion Energy =            437.2661354576147801
    One-Electron Energy =               -1409.5362955658165447
    Two-Electron Energy =                 572.4998151621230136
    Total Energy =                       -399.7703449460786942
  Basis Set: (AUG-CC-PVTZ AUX)
    Blend: AUG-CC-PVTZ-RI
    Molecular point group: c1

    Geometry (in Angstrom), charge = 0, multiplicity = 1:

       Center              X                  Y                   Z               Mass
    ------------   -----------------  -----------------  -----------------  -----------------
         O            0.716779665233     1.915863841685    -0.173129283600    15.994914619570
         N            0.374153565233    -0.370766558315    -0.290379283600    14.003074004430
         C            1.791662665233    -0.531140158315    -0.537211283600    12.000000000000
         C           -0.087497334767     0.973482841685    -0.099814283600    12.000000000000
         C           -0.463738334767    -1.446085158315    -0.185241283600    12.000000000000
         C            2.593999665233    -0.467318158315     0.754368716400    12.000000000000
         C           -1.503647334767     1.086752841685     0.164650716400    12.000000000000
         C           -1.798361334767    -1.313618158315     0.083278716400    12.000000000000
         C           -2.321552334767    -0.007488158315     0.260788716400    12.000000000000
         H            1.919177665233    -1.491553158315    -1.044112283600     1.007825032230
         H            2.093129665233     0.269554841685    -1.214617283600     1.007825032230
         H            0.013893665233    -2.409391158315    -0.340779283600     1.007825032230
         H            2.452236665233     0.507638841685     1.222835716400     1.007825032230
         H            2.275922665233    -1.250953158315     1.447434716400     1.007825032230
         H            3.659124665233    -0.602073158315     0.543516716400     1.007825032230
         H           -1.879053334767     2.096435841685     0.297560716400     1.007825032230
         H           -2.425524334767    -2.195100158315     0.151137716400     1.007825032230
         H           -3.380425334767     0.126925841685     0.470573716400     1.007825032230

  Basis Set: AUG-CC-PVTZ
    Blend: AUG-CC-PVTZ
  Basis Set: (AUG-CC-PVTZ AUX)
    Blend: AUG-CC-PVTZ-JKFIT
	 Reference Energy          =    -399.7703449460786373 [Eh]
	 Singles Energy            =      -0.0000000000000000 [Eh]
	 Same-Spin Energy          =      -0.4236451588202595 [Eh]
	 Opposite-Spin Energy      =      -1.3401326588166862 [Eh]
	 Correlation Energy        =      -1.7637778176369456 [Eh]
	 Total Energy              =    -401.5341227637155725 [Eh]

	 ================> DF-SCS-MP2 Energies <==================
	-----------------------------------------------------------
	 SCS Same-Spin Scale       =       0.3333333333333333 [-]
	 SCS Opposite-Spin Scale   =       1.2000000000000000 [-]
	 SCS Same-Spin Energy      =      -0.1412150529400865 [Eh]
	 SCS Opposite-Spin Energy  =      -1.6081591905800234 [Eh]
	 SCS Correlation Energy    =      -1.7493742435201098 [Eh]
	 SCS Total Energy          =    -401.5197191895987316 [Eh]
	-----------------------------------------------------------

  Dipole Moment: [D]
     X:    -0.7705      Y:    -3.7348      Z:     0.0355     Total:     3.8136

*** Psi4 exiting successfully. Buy a developer a beer!
