                               Psi4 1.3.2 release

  ==> Input File <==

--------------------------------------------------------------------------
#psi4
#
memory 32 gb

molecule  {
0 1
  O        0.6831730     1.9514370    -0.1851230
  N        0.3221270    -0.3206750    -0.2979720
  C        1.7580560    -0.4955670    -0.5492050
  C       -0.1211040     1.0090560    -0.1118080
  C       -0.4973450    -1.4105120    -0.1972350
  C        2.5603930    -0.4317450     0.7423750
  C       -1.5004785     1.0930344     0.1440165
  C       -1.8319680    -1.2780450     0.0712850
  C       -2.3551590     0.0280850     0.2487950
  H        1.8855710    -1.4559800    -1.0561060
  H        2.0595230     0.3051280    -1.2266110
  H       -0.0197130    -2.3738180    -0.3527730
  H        2.4186300     0.5432120     1.2108420
  H        2.2423160    -1.2153800     1.4354410
  H        3.6255180    -0.5665000     0.5315230
  H       -1.9126600     2.1320090     0.2855670
  H       -2.4591310    -2.1595270     0.1391440
  H       -3.4140320     0.1624990     0.4585800
units angstrom
no_reorient  #important for SAPT in psi4, default
symmetry c1  #important for SAPT in psi4, default
}

set PROPERTIES_ORIGIN ["COM"]
properties('MP2/aug-cc-pvtz', properties = ['dipole'])
--------------------------------------------------------------------------

    Molecular point group: c1
  Charge       = 0
  Multiplicity = 1
  Basis Set: AUG-CC-PVTZ
    Blend: AUG-CC-PVTZ
  Basis Set: (AUG-CC-PVTZ AUX)
    Blend: AUG-CC-PVTZ-JKFIT

    Orbital Energies [Eh]
    ---------------------

    Doubly Occupied:

       1A    -20.503535     2A    -15.626068     3A    -11.345750
       4A    -11.309366     5A    -11.273578     6A    -11.272960
       7A    -11.240597     8A    -11.236132     9A    -11.221072
      10A     -1.368668    11A     -1.278479    12A     -1.121585
      13A     -1.032304    14A     -1.020717    15A     -0.899211
      16A     -0.867888    17A     -0.828114    18A     -0.713744
      19A     -0.703704    20A     -0.665899    21A     -0.636984
      22A     -0.614382    23A     -0.607675    24A     -0.605309
      25A     -0.563647    26A     -0.534371    27A     -0.529093
      28A     -0.521041    29A     -0.504727    30A     -0.474817
      31A     -0.422059    32A     -0.407394    33A     -0.309926

  @DF-RHF Final Energy:  -399.76758369925949

   => Energetics <=

    Nuclear Repulsion Energy =            438.3274078173936346
    One-Electron Energy =               -1411.6683926819489443
    Two-Electron Energy =                 573.5734011652958770
    Total Energy =                       -399.7675836992594895
  Basis Set: (AUG-CC-PVTZ AUX)
    Blend: AUG-CC-PVTZ-RI
    Molecular point group: c1

    Geometry (in Angstrom), charge = 0, multiplicity = 1:

       Center              X                  Y                   Z               Mass
    ------------   -----------------  -----------------  -----------------  -----------------
         O            0.715289674655     1.917068025323    -0.172787534893    15.994914619570
         N            0.354243674655    -0.355043974677    -0.285636534893    14.003074004430
         C            1.790172674655    -0.529935974677    -0.536869534893    12.000000000000
         C           -0.088987325345     0.974687025323    -0.099472534893    12.000000000000
         C           -0.465228325345    -1.444880974677    -0.184899534893    12.000000000000
         C            2.592509674655    -0.466113974677     0.754710465107    12.000000000000
         C           -1.468361825345     1.058665425323     0.156351965107    12.000000000000
         C           -1.799851325345    -1.312413974677     0.083620465107    12.000000000000
         C           -2.323042325345    -0.006283974677     0.261130465107    12.000000000000
         H            1.917687674655    -1.490348974677    -1.043770534893     1.007825032230
         H            2.091639674655     0.270759025323    -1.214275534893     1.007825032230
         H            0.012403674655    -2.408186974677    -0.340437534893     1.007825032230
         H            2.450746674655     0.508843025323     1.223177465107     1.007825032230
         H            2.274432674655    -1.249748974677     1.447776465107     1.007825032230
         H            3.657634674655    -0.600868974677     0.543858465107     1.007825032230
         H           -1.880543325345     2.097640025323     0.297902465107     1.007825032230
         H           -2.427014325345    -2.193895974677     0.151479465107     1.007825032230
         H           -3.381915325345     0.128130025323     0.470915465107     1.007825032230

  Basis Set: AUG-CC-PVTZ
    Blend: AUG-CC-PVTZ
  Basis Set: (AUG-CC-PVTZ AUX)
    Blend: AUG-CC-PVTZ-JKFIT
	 Reference Energy          =    -399.7675836992594895 [Eh]
	 Singles Energy            =      -0.0000000000000000 [Eh]
	 Same-Spin Energy          =      -0.4243241893787182 [Eh]
	 Opposite-Spin Energy      =      -1.3406247015509773 [Eh]
	 Correlation Energy        =      -1.7649488909296955 [Eh]
	 Total Energy              =    -401.5325325901891915 [Eh]

	 ================> DF-SCS-MP2 Energies <==================
	-----------------------------------------------------------
	 SCS Same-Spin Scale       =       0.3333333333333333 [-]
	 SCS Opposite-Spin Scale   =       1.2000000000000000 [-]
	 SCS Same-Spin Energy      =      -0.1414413964595727 [Eh]
	 SCS Opposite-Spin Energy  =      -1.6087496418611729 [Eh]
	 SCS Correlation Energy    =      -1.7501910383207455 [Eh]
	 SCS Total Energy          =    -401.5177747375802255 [Eh]
	-----------------------------------------------------------

  Dipole Moment: [D]
     X:    -0.8160      Y:    -3.9033      Z:     0.0388     Total:     3.9878

*** Psi4 exiting successfully. Buy a developer a beer!
