                               Psi4 1.3.2 release

  ==> Input File <==

--------------------------------------------------------------------------
#psi4
#
memory 32 gb

molecule  {
0 1
  O        0.6831730     1.9514370    -0.1851230
  N        0.3221270    -0.3206750    -0.2979720
  C        1.7580560    -0.4955670    -0.5492050
  C       -0.1211040     1.0090560    -0.1118080
  C       -0.4973450    -1.4105120    -0.1972350
  C        2.5603930    -0.4317450     0.7423750
  C       -1.5372540     1.1223260     0.1526570
  C       -1.8319680    -1.2780450     0.0712850
  C       -2.3920509     0.1201845     0.2613118
  H        1.8855710    -1.4559800    -1.0561060
  H        2.0595230     0.3051280    -1.2266110
  H       -0.0197130    -2.3738180    -0.3527730
  H        2.4186300     0.5432120     1.2108420
  H        2.2423160    -1.2153800     1.4354410
  H        3.6255180    -0.5665000     0.5315230
  H       -1.9126600     2.1320090     0.2855670
  H       -2.4591310    -2.1595270     0.1391440
  H       -3.4140320     0.1624990     0.4585800
units angstrom
no_reorient  #important for SAPT in psi4, default
symmetry c1  #important for SAPT in psi4, default
}

set PROPERTIES_ORIGIN ["COM"]
properties('MP2/aug-cc-pvtz', properties = ['dipole'])
--------------------------------------------------------------------------

    Molecular point group: c1
  Charge       = 0
  Multiplicity = 1
  Basis Set: AUG-CC-PVTZ
    Blend: AUG-CC-PVTZ
  Basis Set: (AUG-CC-PVTZ AUX)
    Blend: AUG-CC-PVTZ-JKFIT

    Orbital Energies [Eh]
    ---------------------

    Doubly Occupied:

       1A    -20.513489     2A    -15.619728     3A    -11.355720
       4A    -11.302337     5A    -11.272118     6A    -11.269297
       7A    -11.244130     8A    -11.236738     9A    -11.220047
      10A     -1.372441    11A     -1.276374    12A     -1.114823
      13A     -1.035951    14A     -1.011863    15A     -0.894918
      16A     -0.865799    17A     -0.828069    18A     -0.710107
      19A     -0.700600    20A     -0.673257    21A     -0.639992
      22A     -0.619187    23A     -0.607712    24A     -0.603246
      25A     -0.571148    26A     -0.533234    27A     -0.527216
      28A     -0.513233    29A     -0.503010    30A     -0.471907
      31A     -0.426697    32A     -0.410155    33A     -0.312732

  @DF-RHF Final Energy:  -399.76300068982289

   => Energetics <=

    Nuclear Repulsion Energy =            436.6427495993893899
    One-Electron Energy =               -1408.2969521052002619
    Two-Electron Energy =                 571.8912018159879835
    Total Energy =                       -399.7630006898228885
  Basis Set: (AUG-CC-PVTZ AUX)
    Blend: AUG-CC-PVTZ-RI
    Molecular point group: c1

    Geometry (in Angstrom), charge = 0, multiplicity = 1:

       Center              X                  Y                   Z               Mass
    ------------   -----------------  -----------------  -----------------  -----------------
         O            0.722472742770     1.905231574737    -0.174850514271    15.994914619570
         N            0.361426742770    -0.366880425263    -0.287699514271    14.003074004430
         C            1.797355742770    -0.541772425263    -0.538932514271    12.000000000000
         C           -0.081804257230     0.962850574737    -0.101535514271    12.000000000000
         C           -0.458045257230    -1.456717425263    -0.186962514271    12.000000000000
         C            2.599692742770    -0.477950425263     0.752647485729    12.000000000000
         C           -1.497954257230     1.076120574737     0.162929485729    12.000000000000
         C           -1.792668257230    -1.324250425263     0.081557485729    12.000000000000
         C           -2.352751157230     0.073979074737     0.271584285729    12.000000000000
         H            1.924870742770    -1.502185425263    -1.045833514271     1.007825032230
         H            2.098822742770     0.258922574737    -1.216338514271     1.007825032230
         H            0.019586742770    -2.420023425263    -0.342500514271     1.007825032230
         H            2.457929742770     0.497006574737     1.221114485729     1.007825032230
         H            2.281615742770    -1.261585425263     1.445713485729     1.007825032230
         H            3.664817742770    -0.612705425263     0.541795485729     1.007825032230
         H           -1.873360257230     2.085803574737     0.295839485729     1.007825032230
         H           -2.419831257230    -2.205732425263     0.149416485729     1.007825032230
         H           -3.374732257230     0.116293574737     0.468852485729     1.007825032230

  Basis Set: AUG-CC-PVTZ
    Blend: AUG-CC-PVTZ
  Basis Set: (AUG-CC-PVTZ AUX)
    Blend: AUG-CC-PVTZ-JKFIT
	 Reference Energy          =    -399.7630006898228885 [Eh]
	 Singles Energy            =      -0.0000000000000000 [Eh]
	 Same-Spin Energy          =      -0.4216758510695576 [Eh]
	 Opposite-Spin Energy      =      -1.3391464404366960 [Eh]
	 Correlation Energy        =      -1.7608222915062535 [Eh]
	 Total Energy              =    -401.5238229813291468 [Eh]

	 ================> DF-SCS-MP2 Energies <==================
	-----------------------------------------------------------
	 SCS Same-Spin Scale       =       0.3333333333333333 [-]
	 SCS Opposite-Spin Scale   =       1.2000000000000000 [-]
	 SCS Same-Spin Energy      =      -0.1405586170231859 [Eh]
	 SCS Opposite-Spin Energy  =      -1.6069757285240351 [Eh]
	 SCS Correlation Energy    =      -1.7475343455472210 [Eh]
	 SCS Total Energy          =    -401.5105350353700828 [Eh]
	-----------------------------------------------------------

  Dipole Moment: [D]
     X:    -0.8218      Y:    -3.5948      Z:     0.0503     Total:     3.6879

*** Psi4 exiting successfully. Buy a developer a beer!
