                               Psi4 1.3.2 release

  ==> Input File <==

--------------------------------------------------------------------------
#psi4
#
memory 32 gb

molecule  {
0 1
  O        0.6831730     1.9514370    -0.1851230
  N        0.3678958    -0.3035392    -0.3048580
  C        1.7580560    -0.4955670    -0.5492050
  C       -0.1211040     1.0090560    -0.1118080
  C       -0.4973450    -1.4105120    -0.1972350
  C        2.5603930    -0.4317450     0.7423750
  C       -1.5372540     1.1223260     0.1526570
  C       -1.8319680    -1.2780450     0.0712850
  C       -2.3551590     0.0280850     0.2487950
  H        1.8855710    -1.4559800    -1.0561060
  H        2.0595230     0.3051280    -1.2266110
  H       -0.0197130    -2.3738180    -0.3527730
  H        2.4186300     0.5432120     1.2108420
  H        2.2423160    -1.2153800     1.4354410
  H        3.6255180    -0.5665000     0.5315230
  H       -1.9126600     2.1320090     0.2855670
  H       -2.4591310    -2.1595270     0.1391440
  H       -3.4140320     0.1624990     0.4585800
units angstrom
no_reorient  #important for SAPT in psi4, default
symmetry c1  #important for SAPT in psi4, default
}

set PROPERTIES_ORIGIN ["COM"]
properties('MP2/aug-cc-pvtz', properties = ['dipole'])
--------------------------------------------------------------------------

    Molecular point group: c1
  Charge       = 0
  Multiplicity = 1
  Basis Set: AUG-CC-PVTZ
    Blend: AUG-CC-PVTZ
  Basis Set: (AUG-CC-PVTZ AUX)
    Blend: AUG-CC-PVTZ-JKFIT

    Orbital Energies [Eh]
    ---------------------

    Doubly Occupied:

       1A    -20.505158     2A    -15.623342     3A    -11.349811
       4A    -11.311870     5A    -11.272737     6A    -11.268452
       7A    -11.244294     8A    -11.240452     9A    -11.218446
      10A     -1.369307    11A     -1.272816    12A     -1.124065
      13A     -1.028364    14A     -1.017043    15A     -0.899544
      16A     -0.868289    17A     -0.821256    18A     -0.712643
      19A     -0.702429    20A     -0.672833    21A     -0.639671
      22A     -0.613356    23A     -0.605913    24A     -0.605425
      25A     -0.559781    26A     -0.538547    27A     -0.530769
      28A     -0.526837    29A     -0.502147    30A     -0.471831
      31A     -0.421469    32A     -0.405042    33A     -0.311673

  @DF-RHF Final Energy:  -399.76810890691468

   => Energetics <=

    Nuclear Repulsion Energy =            437.3242634352069445
    One-Electron Energy =               -1409.6735197062791940
    Two-Electron Energy =                 572.5811473641575731
    Total Energy =                       -399.7681089069146765
  Basis Set: (AUG-CC-PVTZ AUX)
    Blend: AUG-CC-PVTZ-RI
    Molecular point group: c1

    Geometry (in Angstrom), charge = 0, multiplicity = 1:

       Center              X                  Y                   Z               Mass
    ------------   -----------------  -----------------  -----------------  -----------------
         O            0.713667829641     1.912262136819    -0.172846533235    15.994914619570
         N            0.398390629641    -0.342714063181    -0.292581533235    14.003074004430
         C            1.788550829641    -0.534741863181    -0.536928533235    12.000000000000
         C           -0.090609170359     0.969881136819    -0.099531533235    12.000000000000
         C           -0.466850170359    -1.449686863181    -0.184958533235    12.000000000000
         C            2.590887829641    -0.470919863181     0.754651466765    12.000000000000
         C           -1.506759170359     1.083151136819     0.164933466765    12.000000000000
         C           -1.801473170359    -1.317219863181     0.083561466765    12.000000000000
         C           -2.324664170359    -0.011089863181     0.261071466765    12.000000000000
         H            1.916065829641    -1.495154863181    -1.043829533235     1.007825032230
         H            2.090017829641     0.265953136819    -1.214334533235     1.007825032230
         H            0.010781829641    -2.412992863181    -0.340496533235     1.007825032230
         H            2.449124829641     0.504037136819     1.223118466765     1.007825032230
         H            2.272810829641    -1.254554863181     1.447717466765     1.007825032230
         H            3.656012829641    -0.605674863181     0.543799466765     1.007825032230
         H           -1.882165170359     2.092834136819     0.297843466765     1.007825032230
         H           -2.428636170359    -2.198701863181     0.151420466765     1.007825032230
         H           -3.383537170359     0.123324136819     0.470856466765     1.007825032230

  Basis Set: AUG-CC-PVTZ
    Blend: AUG-CC-PVTZ
  Basis Set: (AUG-CC-PVTZ AUX)
    Blend: AUG-CC-PVTZ-JKFIT
	 Reference Energy          =    -399.7681089069146765 [Eh]
	 Singles Energy            =      -0.0000000000000000 [Eh]
	 Same-Spin Energy          =      -0.4232819325506991 [Eh]
	 Opposite-Spin Energy      =      -1.3402192756113083 [Eh]
	 Correlation Energy        =      -1.7635012081620074 [Eh]
	 Total Energy              =    -401.5316101150766599 [Eh]

	 ================> DF-SCS-MP2 Energies <==================
	-----------------------------------------------------------
	 SCS Same-Spin Scale       =       0.3333333333333333 [-]
	 SCS Opposite-Spin Scale   =       1.2000000000000000 [-]
	 SCS Same-Spin Energy      =      -0.1410939775168997 [Eh]
	 SCS Opposite-Spin Energy  =      -1.6082631307335700 [Eh]
	 SCS Correlation Energy    =      -1.7493571082504698 [Eh]
	 SCS Total Energy          =    -401.5174660151651551 [Eh]
	-----------------------------------------------------------

  Dipole Moment: [D]
     X:    -0.9494      Y:    -3.8086      Z:     0.0503     Total:     3.9255

*** Psi4 exiting successfully. Buy a developer a beer!
