                               Psi4 1.3.2 release

  ==> Input File <==

--------------------------------------------------------------------------
#psi4
#
memory 32 gb

molecule  {
0 1
  O        0.6831730     1.9514370    -0.1851230
  N        0.3221270    -0.3206750    -0.2979720
  C        1.7580560    -0.4955670    -0.5492050
  C       -0.1211040     1.0090560    -0.1118080
  C       -0.5107830    -1.5049776    -0.2004518
  C        2.5603930    -0.4317450     0.7423750
  C       -1.5372540     1.1223260     0.1526570
  C       -1.8319680    -1.2780450     0.0712850
  C       -2.3551590     0.0280850     0.2487950
  H        1.8855710    -1.4559800    -1.0561060
  H        2.0595230     0.3051280    -1.2266110
  H       -0.0197130    -2.3738180    -0.3527730
  H        2.4186300     0.5432120     1.2108420
  H        2.2423160    -1.2153800     1.4354410
  H        3.6255180    -0.5665000     0.5315230
  H       -1.9126600     2.1320090     0.2855670
  H       -2.4591310    -2.1595270     0.1391440
  H       -3.4140320     0.1624990     0.4585800
units angstrom
no_reorient  #important for SAPT in psi4, default
symmetry c1  #important for SAPT in psi4, default
}

set PROPERTIES_ORIGIN ["COM"]
properties('MP2/aug-cc-pvtz', properties = ['dipole'])
--------------------------------------------------------------------------

    Molecular point group: c1
  Charge       = 0
  Multiplicity = 1
  Basis Set: AUG-CC-PVTZ
    Blend: AUG-CC-PVTZ
  Basis Set: (AUG-CC-PVTZ AUX)
    Blend: AUG-CC-PVTZ-JKFIT

    Orbital Energies [Eh]
    ---------------------

    Doubly Occupied:

       1A    -20.506206     2A    -15.618309     3A    -11.349845
       4A    -11.308035     5A    -11.273271     6A    -11.268046
       7A    -11.248035     8A    -11.243745     9A    -11.217271
      10A     -1.364279    11A     -1.257032    12A     -1.118425
      13A     -1.032443    14A     -1.014603    15A     -0.895881
      16A     -0.869735    17A     -0.816103    18A     -0.717779
      19A     -0.696427    20A     -0.680755    21A     -0.634059
      22A     -0.614879    23A     -0.605009    24A     -0.602356
      25A     -0.556430    26A     -0.543318    27A     -0.525971
      28A     -0.520628    29A     -0.499910    30A     -0.471071
      31A     -0.421657    32A     -0.401696    33A     -0.315130

  @DF-RHF Final Energy:  -399.75804280235718

   => Energetics <=

    Nuclear Repulsion Energy =            435.6209650991219746
    One-Electron Energy =               -1406.3413355379723271
    Two-Electron Energy =                 570.9623276364931144
    Total Energy =                       -399.7580428023571812
  Basis Set: (AUG-CC-PVTZ AUX)
    Blend: AUG-CC-PVTZ-RI
    Molecular point group: c1

    Geometry (in Angstrom), charge = 0, multiplicity = 1:

       Center              X                  Y                   Z               Mass
    ------------   -----------------  -----------------  -----------------  -----------------
         O            0.720185829410     1.923422929681    -0.173316382206    15.994914619570
         N            0.359139829410    -0.348689070319    -0.286165382206    14.003074004430
         C            1.795068829410    -0.523581070319    -0.537398382206    12.000000000000
         C           -0.084091170590     0.981041929681    -0.100001382206    12.000000000000
         C           -0.473770170590    -1.532991670319    -0.188645182206    12.000000000000
         C            2.597405829410    -0.459759070319     0.754181617794    12.000000000000
         C           -1.500241170590     1.094311929681     0.164463617794    12.000000000000
         C           -1.794955170590    -1.306059070319     0.083091617794    12.000000000000
         C           -2.318146170590     0.000070929681     0.260601617794    12.000000000000
         H            1.922583829410    -1.483994070319    -1.044299382206     1.007825032230
         H            2.096535829410     0.277113929681    -1.214804382206     1.007825032230
         H            0.017299829410    -2.401832070319    -0.340966382206     1.007825032230
         H            2.455642829410     0.515197929681     1.222648617794     1.007825032230
         H            2.279328829410    -1.243394070319     1.447247617794     1.007825032230
         H            3.662530829410    -0.594514070319     0.543329617794     1.007825032230
         H           -1.875647170590     2.103994929681     0.297373617794     1.007825032230
         H           -2.422118170590    -2.187541070319     0.150950617794     1.007825032230
         H           -3.377019170590     0.134484929681     0.470386617794     1.007825032230

  Basis Set: AUG-CC-PVTZ
    Blend: AUG-CC-PVTZ
  Basis Set: (AUG-CC-PVTZ AUX)
    Blend: AUG-CC-PVTZ-JKFIT
	 Reference Energy          =    -399.7580428023571812 [Eh]
	 Singles Energy            =      -0.0000000000000000 [Eh]
	 Same-Spin Energy          =      -0.4233014349077264 [Eh]
	 Opposite-Spin Energy      =      -1.3417189485369780 [Eh]
	 Correlation Energy        =      -1.7650203834447045 [Eh]
	 Total Energy              =    -401.5230631858019024 [Eh]

	 ================> DF-SCS-MP2 Energies <==================
	-----------------------------------------------------------
	 SCS Same-Spin Scale       =       0.3333333333333333 [-]
	 SCS Opposite-Spin Scale   =       1.2000000000000000 [-]
	 SCS Same-Spin Energy      =      -0.1411004783025755 [Eh]
	 SCS Opposite-Spin Energy  =      -1.6100627382443735 [Eh]
	 SCS Correlation Energy    =      -1.7511632165469491 [Eh]
	 SCS Total Energy          =    -401.5092060189041376 [Eh]
	-----------------------------------------------------------

  Dipole Moment: [D]
     X:    -1.0271      Y:    -3.8521      Z:     0.0607     Total:     3.9872

*** Psi4 exiting successfully. Buy a developer a beer!
