                               Psi4 1.4a3.dev225

  ==> Input File <==

--------------------------------------------------------------------------
#psi4
#
memory 32 gb

molecule  {
0 1
  O        0.6831730     1.9514370    -0.1851230
  N        0.3221270    -0.3206750    -0.2979720
  C        1.7580560    -0.4955670    -0.5492050
  C       -0.1211040     1.0090560    -0.1118080
  C       -0.4973450    -1.4105120    -0.1972350
  C        2.5603930    -0.4317450     0.7423750
  C       -1.5372540     1.1223260     0.1526570
  C       -1.8319680    -1.2780450     0.0712850
  C       -2.3551590     0.0280850     0.2487950
  H        1.8855710    -1.4559800    -1.0561060
  H        2.0595230     0.3051280    -1.2266110
  H       -0.0197130    -2.3738180    -0.3527730
  H        2.4186300     0.5432120     1.2108420
  H        2.2423160    -1.2153800     1.4354410
  H        3.6255180    -0.5665000     0.5315230
  H       -1.8953663     2.0854962     0.2794443
  H       -2.4591310    -2.1595270     0.1391440
  H       -3.4140320     0.1624990     0.4585800
units angstrom
no_reorient  #important for SAPT in psi4, default
symmetry c1  #important for SAPT in psi4, default
}

set PROPERTIES_ORIGIN ["COM"]
properties('MP2/aug-cc-pvtz', properties = ['dipole'])
--------------------------------------------------------------------------

    Molecular point group: c1
  Charge       = 0
  Multiplicity = 1
  Basis Set: AUG-CC-PVTZ
    Blend: AUG-CC-PVTZ
  Basis Set: (AUG-CC-PVTZ AUX)
    Blend: AUG-CC-PVTZ-JKFIT

    Orbital Energies [Eh]
    ---------------------

    Doubly Occupied:

       1A    -20.506226     2A    -15.625204     3A    -11.349471
       4A    -11.308754     5A    -11.273669     6A    -11.270370
       7A    -11.239901     8A    -11.231412     9A    -11.221064
      10A     -1.368977    11A     -1.278147    12A     -1.119453
      13A     -1.032375    14A     -1.018131    15A     -0.895890
      16A     -0.872567    17A     -0.825129    18A     -0.716196
      19A     -0.700373    20A     -0.670473    21A     -0.642412
      22A     -0.614618    23A     -0.607536    24A     -0.605666
      25A     -0.560308    26A     -0.541666    27A     -0.530182
      28A     -0.526552    29A     -0.505623    30A     -0.474852
      31A     -0.421001    32A     -0.407557    33A     -0.308691

  @DF-RHF Final Energy:  -399.77071537912252

   => Energetics <=

    Nuclear Repulsion Energy =            437.7040882468741074
    One-Electron Energy =               -1410.4087151319758959
    Two-Electron Energy =                 572.9339115059792675
    Total Energy =                       -399.7707153791225210
  Basis Set: (AUG-CC-PVTZ AUX)
    Blend: AUG-CC-PVTZ-RI
    Molecular point group: c1

    Geometry (in Angstrom), charge = 0, multiplicity = 1:

       Center              X                  Y                   Z               Mass
    ------------   -----------------  -----------------  -----------------  -----------------
         O            0.718733913211     1.914592796902    -0.173579902216    15.994914619570
         N            0.357687913211    -0.357519203098    -0.286428902216    14.003074004430
         C            1.793616913211    -0.532411203098    -0.537661902216    12.000000000000
         C           -0.085543086789     0.972211796902    -0.100264902216    12.000000000000
         C           -0.461784086789    -1.447356203098    -0.185691902216    12.000000000000
         C            2.595953913211    -0.468589203098     0.753918097784    12.000000000000
         C           -1.501693086789     1.085481796902     0.164200097784    12.000000000000
         C           -1.796407086789    -1.314889203098     0.082828097784    12.000000000000
         C           -2.319598086789    -0.008759203098     0.260338097784    12.000000000000
         H            1.921131913211    -1.492824203098    -1.044562902216     1.007825032230
         H            2.095083913211     0.268283796902    -1.215067902216     1.007825032230
         H            0.015847913211    -2.410662203098    -0.341229902216     1.007825032230
         H            2.454190913211     0.506367796902     1.222385097784     1.007825032230
         H            2.277876913211    -1.252224203098     1.446984097784     1.007825032230
         H            3.661078913211    -0.603344203098     0.543066097784     1.007825032230
         H           -1.859805386789     2.048651996902     0.290987397784     1.007825032230
         H           -2.423570086789    -2.196371203098     0.150687097784     1.007825032230
         H           -3.378471086789     0.125654796902     0.470123097784     1.007825032230

  Basis Set: AUG-CC-PVTZ
    Blend: AUG-CC-PVTZ
  Basis Set: (AUG-CC-PVTZ AUX)
    Blend: AUG-CC-PVTZ-JKFIT
	 Reference Energy          =    -399.7707153791225210 [Eh]
	 Singles Energy            =      -0.0000000000000000 [Eh]
	 Same-Spin Energy          =      -0.4233528078908324 [Eh]
	 Opposite-Spin Energy      =      -1.3395518133719140 [Eh]
	 Correlation Energy        =      -1.7629046212627464 [Eh]
	 Total Energy              =    -401.5336200003852696 [Eh]

	 ================> DF-SCS-MP2 Energies <==================
	-----------------------------------------------------------
	 SCS Same-Spin Scale       =       0.3333333333333333 [-]
	 SCS Opposite-Spin Scale   =       1.2000000000000000 [-]
	 SCS Same-Spin Energy      =      -0.1411176026302774 [Eh]
	 SCS Opposite-Spin Energy  =      -1.6074621760462968 [Eh]
	 SCS Correlation Energy    =      -1.7485797786765742 [Eh]
	 SCS Total Energy          =    -401.5192951577990925 [Eh]
	-----------------------------------------------------------

  Dipole Moment: [D]
     X:    -0.7628      Y:    -3.8139      Z:     0.0323     Total:     3.8896

*** Psi4 exiting successfully. Buy a developer a beer!
