                               Psi4 1.3.2 release

  ==> Input File <==

--------------------------------------------------------------------------
#psi4
#
memory 32 gb

molecule  {
0 1
  O        0.6831730     1.9514370    -0.1851230
  N        0.3221270    -0.3206750    -0.2979720
  C        1.7580560    -0.4955670    -0.5492050
  C       -0.1211040     1.0090560    -0.1118080
  C       -0.4973450    -1.4105120    -0.1972350
  C        2.5603930    -0.4317450     0.7423750
  C       -1.5187388     1.1078446     0.1483214
  C       -1.8319680    -1.2780450     0.0712850
  C       -2.3551590     0.0280850     0.2487950
  H        1.8855710    -1.4559800    -1.0561060
  H        2.0595230     0.3051280    -1.2266110
  H       -0.0197130    -2.3738180    -0.3527730
  H        2.4186300     0.5432120     1.2108420
  H        2.2423160    -1.2153800     1.4354410
  H        3.6255180    -0.5665000     0.5315230
  H       -1.9126600     2.1320090     0.2855670
  H       -2.4591310    -2.1595270     0.1391440
  H       -3.4140320     0.1624990     0.4585800
units angstrom
no_reorient  #important for SAPT in psi4, default
symmetry c1  #important for SAPT in psi4, default
}

set PROPERTIES_ORIGIN ["COM"]
properties('MP2/aug-cc-pvtz', properties = ['dipole'])
--------------------------------------------------------------------------

    Molecular point group: c1
  Charge       = 0
  Multiplicity = 1
  Basis Set: AUG-CC-PVTZ
    Blend: AUG-CC-PVTZ
  Basis Set: (AUG-CC-PVTZ AUX)
    Blend: AUG-CC-PVTZ-JKFIT

    Orbital Energies [Eh]
    ---------------------

    Doubly Occupied:

       1A    -20.504901     2A    -15.625757     3A    -11.347852
       4A    -11.309070     5A    -11.273686     6A    -11.271715
       7A    -11.240337     8A    -11.236574     9A    -11.221097
      10A     -1.368840    11A     -1.278375    12A     -1.120308
      13A     -1.031729    14A     -1.019356    15A     -0.897345
      16A     -0.869102    17A     -0.826481    18A     -0.713999
      19A     -0.702029    20A     -0.666505    21A     -0.638472
      22A     -0.614086    23A     -0.607554    24A     -0.605365
      25A     -0.562050    26A     -0.535607    27A     -0.529556
      28A     -0.524278    29A     -0.505260    30A     -0.474859
      31A     -0.421693    32A     -0.407551    33A     -0.309317

  @DF-RHF Final Energy:  -399.77026782833036

   => Energetics <=

    Nuclear Repulsion Energy =            437.8781717543220680
    One-Electron Energy =               -1410.7754694222601302
    Two-Electron Energy =                 573.1270298396077578
    Total Energy =                       -399.7702678283303612
  Basis Set: (AUG-CC-PVTZ AUX)
    Blend: AUG-CC-PVTZ-RI
    Molecular point group: c1

    Geometry (in Angstrom), charge = 0, multiplicity = 1:

       Center              X                  Y                   Z               Mass
    ------------   -----------------  -----------------  -----------------  -----------------
         O            0.717070177003     1.915623930982    -0.173207291663    15.994914619570
         N            0.356024177003    -0.356488069018    -0.286056291663    14.003074004430
         C            1.791953177003    -0.531380069018    -0.537289291663    12.000000000000
         C           -0.087206822997     0.973242930982    -0.099892291663    12.000000000000
         C           -0.463447822997    -1.446325069018    -0.185319291663    12.000000000000
         C            2.594290177003    -0.467558069018     0.754290708337    12.000000000000
         C           -1.484841622997     1.072031530982     0.160237108337    12.000000000000
         C           -1.798070822997    -1.313858069018     0.083200708337    12.000000000000
         C           -2.321261822997    -0.007728069018     0.260710708337    12.000000000000
         H            1.919468177003    -1.491793069018    -1.044190291663     1.007825032230
         H            2.093420177003     0.269314930982    -1.214695291663     1.007825032230
         H            0.014184177003    -2.409631069018    -0.340857291663     1.007825032230
         H            2.452527177003     0.507398930982     1.222757708337     1.007825032230
         H            2.276213177003    -1.251193069018     1.447356708337     1.007825032230
         H            3.659415177003    -0.602313069018     0.543438708337     1.007825032230
         H           -1.878762822997     2.096195930982     0.297482708337     1.007825032230
         H           -2.425233822997    -2.195340069018     0.151059708337     1.007825032230
         H           -3.380134822997     0.126685930982     0.470495708337     1.007825032230

  Basis Set: AUG-CC-PVTZ
    Blend: AUG-CC-PVTZ
  Basis Set: (AUG-CC-PVTZ AUX)
    Blend: AUG-CC-PVTZ-JKFIT
	 Reference Energy          =    -399.7702678283303612 [Eh]
	 Singles Energy            =      -0.0000000000000000 [Eh]
	 Same-Spin Energy          =      -0.4238707714864325 [Eh]
	 Opposite-Spin Energy      =      -1.3401907560155730 [Eh]
	 Correlation Energy        =      -1.7640615275020055 [Eh]
	 Total Energy              =    -401.5343293558323694 [Eh]

	 ================> DF-SCS-MP2 Energies <==================
	-----------------------------------------------------------
	 SCS Same-Spin Scale       =       0.3333333333333333 [-]
	 SCS Opposite-Spin Scale   =       1.2000000000000000 [-]
	 SCS Same-Spin Energy      =      -0.1412902571621442 [Eh]
	 SCS Opposite-Spin Energy  =      -1.6082289072186875 [Eh]
	 SCS Correlation Energy    =      -1.7495191643808317 [Eh]
	 SCS Total Energy          =    -401.5197869927112038 [Eh]
	-----------------------------------------------------------

  Dipole Moment: [D]
     X:    -0.7877      Y:    -3.8569      Z:     0.0355     Total:     3.9367

*** Psi4 exiting successfully. Buy a developer a beer!
