                               Psi4 1.3.2 release

  ==> Input File <==

--------------------------------------------------------------------------
#psi4
#
memory 32 gb

molecule  {
0 1
  O        0.6831730     1.9514370    -0.1851230
  N        0.3221270    -0.3206750    -0.2979720
  C        1.7580560    -0.4955670    -0.5492050
  C       -0.1211040     1.0090560    -0.1118080
  C       -0.4973450    -1.4105120    -0.1972350
  C        2.5603930    -0.4317450     0.7423750
  C       -1.4648263     1.0624692     0.1350785
  C       -1.8319680    -1.2780450     0.0712850
  C       -2.3551590     0.0280850     0.2487950
  H        1.8855710    -1.4559800    -1.0561060
  H        2.0595230     0.3051280    -1.2266110
  H       -0.0197130    -2.3738180    -0.3527730
  H        2.4186300     0.5432120     1.2108420
  H        2.2423160    -1.2153800     1.4354410
  H        3.6255180    -0.5665000     0.5315230
  H       -1.9126600     2.1320090     0.2855670
  H       -2.4591310    -2.1595270     0.1391440
  H       -3.4140320     0.1624990     0.4585800
units angstrom
no_reorient  #important for SAPT in psi4, default
symmetry c1  #important for SAPT in psi4, default
}

set PROPERTIES_ORIGIN ["COM"]
properties('MP2/aug-cc-pvtz', properties = ['dipole'])
--------------------------------------------------------------------------

    Molecular point group: c1
  Charge       = 0
  Multiplicity = 1
  Basis Set: AUG-CC-PVTZ
    Blend: AUG-CC-PVTZ
  Basis Set: (AUG-CC-PVTZ AUX)
    Blend: AUG-CC-PVTZ-JKFIT

    Orbital Energies [Eh]
    ---------------------

    Doubly Occupied:

       1A    -20.500685     2A    -15.626794     3A    -11.341301
       4A    -11.310116     5A    -11.275793     6A    -11.273389
       7A    -11.241295     8A    -11.235387     9A    -11.221047
      10A     -1.368377    11A     -1.278755    12A     -1.124335
      13A     -1.034322    14A     -1.023171    15A     -0.903271
      16A     -0.865569    17A     -0.831317    18A     -0.713713
      19A     -0.707084    20A     -0.665457    21A     -0.634276
      22A     -0.615349    23A     -0.607528    24A     -0.605040
      25A     -0.566780    26A     -0.534562    27A     -0.528583
      28A     -0.512573    29A     -0.501268    30A     -0.474783
      31A     -0.422266    32A     -0.407142    33A     -0.311328

  @DF-RHF Final Energy:  -399.75794008982149

   => Energetics <=

    Nuclear Repulsion Energy =            439.2422561210225922
    One-Electron Energy =               -1413.4750763496533636
    Two-Electron Energy =                 574.4748801388092261
    Total Energy =                       -399.7579400898215454
  Basis Set: (AUG-CC-PVTZ AUX)
    Blend: AUG-CC-PVTZ-RI
    Molecular point group: c1

    Geometry (in Angstrom), charge = 0, multiplicity = 1:

       Center              X                  Y                   Z               Mass
    ------------   -----------------  -----------------  -----------------  -----------------
         O            0.711813344812     1.920048338372    -0.171916019639    15.994914619570
         N            0.350767344812    -0.352063661628    -0.284765019639    14.003074004430
         C            1.786696344812    -0.526955661628    -0.535998019639    12.000000000000
         C           -0.092463655188     0.977667338372    -0.098601019639    12.000000000000
         C           -0.468704655188    -1.441900661628    -0.184028019639    12.000000000000
         C            2.589033344812    -0.463133661628     0.755581980361    12.000000000000
         C           -1.436185955188     1.031080538372     0.148285480361    12.000000000000
         C           -1.803327655188    -1.309433661628     0.084491980361    12.000000000000
         C           -2.326518655188    -0.003303661628     0.262001980361    12.000000000000
         H            1.914211344812    -1.487368661628    -1.042899019639     1.007825032230
         H            2.088163344812     0.273739338372    -1.213404019639     1.007825032230
         H            0.008927344812    -2.405206661628    -0.339566019639     1.007825032230
         H            2.447270344812     0.511823338372     1.224048980361     1.007825032230
         H            2.270956344812    -1.246768661628     1.448647980361     1.007825032230
         H            3.654158344812    -0.597888661628     0.544729980361     1.007825032230
         H           -1.884019655188     2.100620338372     0.298773980361     1.007825032230
         H           -2.430490655188    -2.190915661628     0.152350980361     1.007825032230
         H           -3.385391655188     0.131110338372     0.471786980361     1.007825032230

  Basis Set: AUG-CC-PVTZ
    Blend: AUG-CC-PVTZ
  Basis Set: (AUG-CC-PVTZ AUX)
    Blend: AUG-CC-PVTZ-JKFIT
	 Reference Energy          =    -399.7579400898214885 [Eh]
	 Singles Energy            =      -0.0000000000000000 [Eh]
	 Same-Spin Energy          =      -0.4253387052816850 [Eh]
	 Opposite-Spin Energy      =      -1.3417310263467059 [Eh]
	 Correlation Energy        =      -1.7670697316283910 [Eh]
	 Total Energy              =    -401.5250098214498848 [Eh]

	 ================> DF-SCS-MP2 Energies <==================
	-----------------------------------------------------------
	 SCS Same-Spin Scale       =       0.3333333333333333 [-]
	 SCS Opposite-Spin Scale   =       1.2000000000000000 [-]
	 SCS Same-Spin Energy      =      -0.1417795684272283 [Eh]
	 SCS Opposite-Spin Energy  =      -1.6100772316160470 [Eh]
	 SCS Correlation Energy    =      -1.7518568000432753 [Eh]
	 SCS Total Energy          =    -401.5097968898647878 [Eh]
	-----------------------------------------------------------

  Dipole Moment: [D]
     X:    -0.8678      Y:    -4.0027      Z:     0.0446     Total:     4.0959

*** Psi4 exiting successfully. Buy a developer a beer!
