                               Psi4 1.3.2 release

  ==> Input File <==

--------------------------------------------------------------------------
#psi4
#
memory 32 gb

molecule  {
0 1
  O        0.6831730     1.9514370    -0.1851230
  N        0.3221270    -0.3206750    -0.2979720
  C        1.7580560    -0.4955670    -0.5492050
  C       -0.1438955     1.0006276    -0.1075049
  C       -0.4973450    -1.4105120    -0.1972350
  C        2.5603930    -0.4317450     0.7423750
  C       -1.5372540     1.1223260     0.1526570
  C       -1.8319680    -1.2780450     0.0712850
  C       -2.3551590     0.0280850     0.2487950
  H        1.8855710    -1.4559800    -1.0561060
  H        2.0595230     0.3051280    -1.2266110
  H       -0.0197130    -2.3738180    -0.3527730
  H        2.4186300     0.5432120     1.2108420
  H        2.2423160    -1.2153800     1.4354410
  H        3.6255180    -0.5665000     0.5315230
  H       -1.9126600     2.1320090     0.2855670
  H       -2.4591310    -2.1595270     0.1391440
  H       -3.4140320     0.1624990     0.4585800
units angstrom
no_reorient  #important for SAPT in psi4, default
symmetry c1  #important for SAPT in psi4, default
}

set PROPERTIES_ORIGIN ["COM"]
properties('MP2/aug-cc-pvtz', properties = ['dipole'])
--------------------------------------------------------------------------

    Molecular point group: c1
  Charge       = 0
  Multiplicity = 1
  Basis Set: AUG-CC-PVTZ
    Blend: AUG-CC-PVTZ
  Basis Set: (AUG-CC-PVTZ AUX)
    Blend: AUG-CC-PVTZ-JKFIT

    Orbital Energies [Eh]
    ---------------------

    Doubly Occupied:

       1A    -20.500864     2A    -15.627959     3A    -11.348676
       4A    -11.310577     5A    -11.274358     6A    -11.273359
       7A    -11.241851     8A    -11.236631     9A    -11.220909
      10A     -1.358484    11A     -1.273502    12A     -1.121968
      13A     -1.033558    14A     -1.019596    15A     -0.897875
      16A     -0.870914    17A     -0.827324    18A     -0.715399
      19A     -0.701499    20A     -0.667761    21A     -0.640383
      22A     -0.614563    23A     -0.608341    24A     -0.600418
      25A     -0.558751    26A     -0.538045    27A     -0.528707
      28A     -0.525202    29A     -0.505415    30A     -0.469861
      31A     -0.418572    32A     -0.408790    33A     -0.310018

  @DF-RHF Final Energy:  -399.76895191409642

   => Energetics <=

    Nuclear Repulsion Energy =            437.3887276416895702
    One-Electron Energy =               -1409.8150991603019975
    Two-Electron Energy =                 572.6574196045160079
    Total Energy =                       -399.7689519140964194
  Basis Set: (AUG-CC-PVTZ AUX)
    Blend: AUG-CC-PVTZ-RI
    Molecular point group: c1

    Geometry (in Angstrom), charge = 0, multiplicity = 1:

       Center              X                  Y                   Z               Mass
    ------------   -----------------  -----------------  -----------------  -----------------
         O            0.721097858715     1.915033722677    -0.174049623150    15.994914619570
         N            0.360051858715    -0.357078277323    -0.286898623150    14.003074004430
         C            1.795980858715    -0.531970277323    -0.538131623150    12.000000000000
         C           -0.105970641285     0.964224322677    -0.096431523150    12.000000000000
         C           -0.459420141285    -1.446915277323    -0.186161623150    12.000000000000
         C            2.598317858715    -0.468148277323     0.753448376850    12.000000000000
         C           -1.499329141285     1.085922722677     0.163730376850    12.000000000000
         C           -1.794043141285    -1.314448277323     0.082358376850    12.000000000000
         C           -2.317234141285    -0.008318277323     0.259868376850    12.000000000000
         H            1.923495858715    -1.492383277323    -1.045032623150     1.007825032230
         H            2.097447858715     0.268724722677    -1.215537623150     1.007825032230
         H            0.018211858715    -2.410221277323    -0.341699623150     1.007825032230
         H            2.456554858715     0.506808722677     1.221915376850     1.007825032230
         H            2.280240858715    -1.251783277323     1.446514376850     1.007825032230
         H            3.663442858715    -0.602903277323     0.542596376850     1.007825032230
         H           -1.874735141285     2.095605722677     0.296640376850     1.007825032230
         H           -2.421206141285    -2.195930277323     0.150217376850     1.007825032230
         H           -3.376107141285     0.126095722677     0.469653376850     1.007825032230

  Basis Set: AUG-CC-PVTZ
    Blend: AUG-CC-PVTZ
  Basis Set: (AUG-CC-PVTZ AUX)
    Blend: AUG-CC-PVTZ-JKFIT
	 Reference Energy          =    -399.7689519140964194 [Eh]
	 Singles Energy            =      -0.0000000000000000 [Eh]
	 Same-Spin Energy          =      -0.4240958120760853 [Eh]
	 Opposite-Spin Energy      =      -1.3407025229887459 [Eh]
	 Correlation Energy        =      -1.7647983350648313 [Eh]
	 Total Energy              =    -401.5337502491612440 [Eh]

	 ================> DF-SCS-MP2 Energies <==================
	-----------------------------------------------------------
	 SCS Same-Spin Scale       =       0.3333333333333333 [-]
	 SCS Opposite-Spin Scale   =       1.2000000000000000 [-]
	 SCS Same-Spin Energy      =      -0.1413652706920284 [Eh]
	 SCS Opposite-Spin Energy  =      -1.6088430275864951 [Eh]
	 SCS Correlation Energy    =      -1.7502082982785234 [Eh]
	 SCS Total Energy          =    -401.5191602123749703 [Eh]
	-----------------------------------------------------------

  Dipole Moment: [D]
     X:    -0.8760      Y:    -3.9554      Z:     0.0459     Total:     4.0515

*** Psi4 exiting successfully. Buy a developer a beer!
