                               Psi4 1.3.2 release

  ==> Input File <==

--------------------------------------------------------------------------
#psi4
#
memory 32 gb

molecule  {
0 1
  O        0.6831730     1.9514370    -0.1851230
  N        0.3221270    -0.3206750    -0.2979720
  C        1.7580560    -0.4955670    -0.5492050
  C       -0.1211040     1.0090560    -0.1118080
  C       -0.4973450    -1.4105120    -0.1972350
  C        2.5603930    -0.4317450     0.7423750
  C       -1.5372540     1.1223260     0.1526570
  C       -1.8319680    -1.2780450     0.0712850
  C       -2.3551590     0.0280850     0.2487950
  H        1.8855710    -1.4559800    -1.0561060
  H        2.0595230     0.3051280    -1.2266110
  H       -0.0197130    -2.3738180    -0.3527730
  H        2.4186300     0.5432120     1.2108420
  H        2.2423160    -1.2153800     1.4354410
  H        3.6255180    -0.5665000     0.5315230
  H       -1.8434851     1.9459579     0.2610761
  H       -2.4591310    -2.1595270     0.1391440
  H       -3.4140320     0.1624990     0.4585800
units angstrom
no_reorient  #important for SAPT in psi4, default
symmetry c1  #important for SAPT in psi4, default
}

set PROPERTIES_ORIGIN ["COM"]
properties('MP2/aug-cc-pvtz', properties = ['dipole'])
--------------------------------------------------------------------------

    Molecular point group: c1
  Charge       = 0
  Multiplicity = 1
  Basis Set: AUG-CC-PVTZ
    Blend: AUG-CC-PVTZ
  Basis Set: (AUG-CC-PVTZ AUX)
    Blend: AUG-CC-PVTZ-JKFIT

    Orbital Energies [Eh]
    ---------------------

    Doubly Occupied:

       1A    -20.506315     2A    -15.624621     3A    -11.348648
       4A    -11.308801     5A    -11.273417     6A    -11.270137
       7A    -11.239431     8A    -11.220957     9A    -11.214121
      10A     -1.368990    11A     -1.277877    12A     -1.121691
      13A     -1.037622    14A     -1.018743    15A     -0.898763
      16A     -0.880955    17A     -0.826328    18A     -0.726360
      19A     -0.700417    20A     -0.682101    21A     -0.647499
      22A     -0.616335    23A     -0.607940    24A     -0.605976
      25A     -0.560027    26A     -0.550205    27A     -0.530742
      28A     -0.527081    29A     -0.505688    30A     -0.474770
      31A     -0.420676    32A     -0.407328    33A     -0.308747

  @DF-RHF Final Energy:  -399.73630383286832

   => Energetics <=

    Nuclear Repulsion Energy =            438.6228971276619291
    One-Electron Energy =               -1412.0997847036717303
    Two-Electron Energy =                 573.7405837431415421
    Total Energy =                       -399.7363038328683160
  Basis Set: (AUG-CC-PVTZ AUX)
    Blend: AUG-CC-PVTZ-RI
    Molecular point group: c1

    Geometry (in Angstrom), charge = 0, multiplicity = 1:

       Center              X                  Y                   Z               Mass
    ------------   -----------------  -----------------  -----------------  -----------------
         O            0.718309050564     1.915735496212    -0.173429482371    15.994914619570
         N            0.357263050564    -0.356376503788    -0.286278482371    14.003074004430
         C            1.793192050564    -0.531268503788    -0.537511482371    12.000000000000
         C           -0.085967949436     0.973354496212    -0.100114482371    12.000000000000
         C           -0.462208949436    -1.446213503788    -0.185541482371    12.000000000000
         C            2.595529050564    -0.467446503788     0.754068517629    12.000000000000
         C           -1.502117949436     1.086624496212     0.164350517629    12.000000000000
         C           -1.796831949436    -1.313746503788     0.082978517629    12.000000000000
         C           -2.320022949436    -0.007616503788     0.260488517629    12.000000000000
         H            1.920707050564    -1.491681503788    -1.044412482371     1.007825032230
         H            2.094659050564     0.269426496212    -1.214917482371     1.007825032230
         H            0.015423050564    -2.409519503788    -0.341079482371     1.007825032230
         H            2.453766050564     0.507510496212     1.222535517629     1.007825032230
         H            2.277452050564    -1.251081503788     1.447134517629     1.007825032230
         H            3.660654050564    -0.602201503788     0.543216517629     1.007825032230
         H           -1.808349049436     1.910256396212     0.272769617629     1.007825032230
         H           -2.423994949436    -2.195228503788     0.150837517629     1.007825032230
         H           -3.378895949436     0.126797496212     0.470273517629     1.007825032230

  Basis Set: AUG-CC-PVTZ
    Blend: AUG-CC-PVTZ
  Basis Set: (AUG-CC-PVTZ AUX)
    Blend: AUG-CC-PVTZ-JKFIT
	 Reference Energy          =    -399.7363038328683160 [Eh]
	 Singles Energy            =      -0.0000000000000000 [Eh]
	 Same-Spin Energy          =      -0.4231938357423816 [Eh]
	 Opposite-Spin Energy      =      -1.3393369223629754 [Eh]
	 Correlation Energy        =      -1.7625307581053571 [Eh]
	 Total Energy              =    -401.4988345909736722 [Eh]

	 ================> DF-SCS-MP2 Energies <==================
	-----------------------------------------------------------
	 SCS Same-Spin Scale       =       0.3333333333333333 [-]
	 SCS Opposite-Spin Scale   =       1.2000000000000000 [-]
	 SCS Same-Spin Energy      =      -0.1410646119141272 [Eh]
	 SCS Opposite-Spin Energy  =      -1.6072043068355704 [Eh]
	 SCS Correlation Energy    =      -1.7482689187496976 [Eh]
	 SCS Total Energy          =    -401.4845727516180318 [Eh]
	-----------------------------------------------------------

  Dipole Moment: [D]
     X:    -0.7671      Y:    -3.8327      Z:     0.0311     Total:     3.9088

*** Psi4 exiting successfully. Buy a developer a beer!
