                               Psi4 1.3.2 release

  ==> Input File <==

--------------------------------------------------------------------------
#psi4
#
memory 32 gb

molecule  {
0 1
  O        0.6831730     1.9514370    -0.1851230
  N        0.3221270    -0.3206750    -0.2979720
  C        1.7580560    -0.4955670    -0.5492050
  C       -0.1211040     1.0090560    -0.1118080
  C       -0.4973450    -1.4105120    -0.1972350
  C        2.5603930    -0.4317450     0.7423750
  C       -1.5372540     1.1223260     0.1526570
  C       -1.8319680    -1.2780450     0.0712850
  C       -2.4148812    -0.0518148     0.2558149
  H        1.8855710    -1.4559800    -1.0561060
  H        2.0595230     0.3051280    -1.2266110
  H       -0.0197130    -2.3738180    -0.3527730
  H        2.4186300     0.5432120     1.2108420
  H        2.2423160    -1.2153800     1.4354410
  H        3.6255180    -0.5665000     0.5315230
  H       -1.9126600     2.1320090     0.2855670
  H       -2.4591310    -2.1595270     0.1391440
  H       -3.4140320     0.1624990     0.4585800
units angstrom
no_reorient  #important for SAPT in psi4, default
symmetry c1  #important for SAPT in psi4, default
}

set PROPERTIES_ORIGIN ["COM"]
properties('MP2/aug-cc-pvtz', properties = ['dipole'])
--------------------------------------------------------------------------

    Molecular point group: c1
  Charge       = 0
  Multiplicity = 1
  Basis Set: AUG-CC-PVTZ
    Blend: AUG-CC-PVTZ
  Basis Set: (AUG-CC-PVTZ AUX)
    Blend: AUG-CC-PVTZ-JKFIT

    Orbital Energies [Eh]
    ---------------------

    Doubly Occupied:

       1A    -20.499383     2A    -15.631737     3A    -11.345774
       4A    -11.315136     5A    -11.276164     6A    -11.275400
       7A    -11.243155     8A    -11.240200     9A    -11.222169
      10A     -1.365799    11A     -1.278917    12A     -1.118497
      13A     -1.027017    14A     -1.016934    15A     -0.903363
      16A     -0.868323    17A     -0.828233    18A     -0.718707
      19A     -0.699001    20A     -0.672138    21A     -0.639026
      22A     -0.618050    23A     -0.607808    24A     -0.601609
      25A     -0.564118    26A     -0.534113    27A     -0.527950
      28A     -0.526836    29A     -0.505903    30A     -0.476409
      31A     -0.417091    32A     -0.402154    33A     -0.300664

  @DF-RHF Final Energy:  -399.75457318570011

   => Energetics <=

    Nuclear Repulsion Energy =            436.3701534344435231
    One-Electron Energy =               -1407.7138928226750068
    Two-Electron Energy =                 571.5891662025313735
    Total Energy =                       -399.7545731857001101
  Basis Set: (AUG-CC-PVTZ AUX)
    Blend: AUG-CC-PVTZ-RI
    Molecular point group: c1

    Geometry (in Angstrom), charge = 0, multiplicity = 1:

       Center              X                  Y                   Z               Mass
    ------------   -----------------  -----------------  -----------------  -----------------
         O            0.724698850927     1.922002665989    -0.174314529464    15.994914619570
         N            0.363652850927    -0.350109334011    -0.287163529464    14.003074004430
         C            1.799581850927    -0.525001334011    -0.538396529464    12.000000000000
         C           -0.079578149073     0.979621665989    -0.100999529464    12.000000000000
         C           -0.455819149073    -1.439946334011    -0.186426529464    12.000000000000
         C            2.601918850927    -0.461179334011     0.753183470536    12.000000000000
         C           -1.495728149073     1.092891665989     0.163465470536    12.000000000000
         C           -1.790442149073    -1.307479334011     0.082093470536    12.000000000000
         C           -2.373355349073    -0.081249134011     0.266623370536    12.000000000000
         H            1.927096850927    -1.485414334011    -1.045297529464     1.007825032230
         H            2.101048850927     0.275693665989    -1.215802529464     1.007825032230
         H            0.021812850927    -2.403252334011    -0.341964529464     1.007825032230
         H            2.460155850927     0.513777665989     1.221650470536     1.007825032230
         H            2.283841850927    -1.244814334011     1.446249470536     1.007825032230
         H            3.667043850927    -0.595934334011     0.542331470536     1.007825032230
         H           -1.871134149073     2.102574665989     0.296375470536     1.007825032230
         H           -2.417605149073    -2.188961334011     0.149952470536     1.007825032230
         H           -3.372506149073     0.133064665989     0.469388470536     1.007825032230

  Basis Set: AUG-CC-PVTZ
    Blend: AUG-CC-PVTZ
  Basis Set: (AUG-CC-PVTZ AUX)
    Blend: AUG-CC-PVTZ-JKFIT
	 Reference Energy          =    -399.7545731857001101 [Eh]
	 Singles Energy            =      -0.0000000000000000 [Eh]
	 Same-Spin Energy          =      -0.4258109307315369 [Eh]
	 Opposite-Spin Energy      =      -1.3428750099072213 [Eh]
	 Correlation Energy        =      -1.7686859406387583 [Eh]
	 Total Energy              =    -401.5232591263388713 [Eh]

	 ================> DF-SCS-MP2 Energies <==================
	-----------------------------------------------------------
	 SCS Same-Spin Scale       =       0.3333333333333333 [-]
	 SCS Opposite-Spin Scale   =       1.2000000000000000 [-]
	 SCS Same-Spin Energy      =      -0.1419369769105123 [Eh]
	 SCS Opposite-Spin Energy  =      -1.6114500118886654 [Eh]
	 SCS Correlation Energy    =      -1.7533869887991778 [Eh]
	 SCS Total Energy          =    -401.5079601744992601 [Eh]
	-----------------------------------------------------------

  Dipole Moment: [D]
     X:    -0.7526      Y:    -3.9379      Z:     0.0331     Total:     4.0093

*** Psi4 exiting successfully. Buy a developer a beer!
