                               Psi4 1.3.2 release

  ==> Input File <==

--------------------------------------------------------------------------
#psi4
#
memory 32 gb

molecule  {
0 1
  O        0.6831730     1.9514370    -0.1851230
  N        0.2068265    -0.2407587    -0.2696697
  C        1.7580560    -0.4955670    -0.5492050
  C       -0.1211040     1.0090560    -0.1118080
  C       -0.4973450    -1.4105120    -0.1972350
  C        2.5603930    -0.4317450     0.7423750
  C       -1.5372540     1.1223260     0.1526570
  C       -1.8319680    -1.2780450     0.0712850
  C       -2.3551590     0.0280850     0.2487950
  H        1.8855710    -1.4559800    -1.0561060
  H        2.0595230     0.3051280    -1.2266110
  H       -0.0197130    -2.3738180    -0.3527730
  H        2.4186300     0.5432120     1.2108420
  H        2.2423160    -1.2153800     1.4354410
  H        3.6255180    -0.5665000     0.5315230
  H       -1.9126600     2.1320090     0.2855670
  H       -2.4591310    -2.1595270     0.1391440
  H       -3.4140320     0.1624990     0.4585800
units angstrom
no_reorient  #important for SAPT in psi4, default
symmetry c1  #important for SAPT in psi4, default
}

set PROPERTIES_ORIGIN ["COM"]
properties('MP2/aug-cc-pvtz', properties = ['dipole'])
--------------------------------------------------------------------------

    Molecular point group: c1
  Charge       = 0
  Multiplicity = 1
  Basis Set: AUG-CC-PVTZ
    Blend: AUG-CC-PVTZ
  Basis Set: (AUG-CC-PVTZ AUX)
    Blend: AUG-CC-PVTZ-JKFIT

    Orbital Energies [Eh]
    ---------------------

    Doubly Occupied:

       1A    -20.491261     2A    -15.624847     3A    -11.333787
       4A    -11.307059     5A    -11.284896     6A    -11.264595
       7A    -11.243152     8A    -11.235665     9A    -11.225357
      10A     -1.372558    11A     -1.276367    12A     -1.109744
      13A     -1.039728    14A     -1.027935    15A     -0.886104
      16A     -0.883059    17A     -0.822409    18A     -0.724003
      19A     -0.695034    20A     -0.663016    21A     -0.637933
      22A     -0.614963    23A     -0.608947    24A     -0.603630
      25A     -0.560152    26A     -0.541509    27A     -0.530239
      28A     -0.511395    29A     -0.500973    30A     -0.470450
      31A     -0.412495    32A     -0.407283    33A     -0.312868

  @DF-RHF Final Energy:  -399.75024030563259

   => Energetics <=

    Nuclear Repulsion Energy =            438.5901175104763183
    One-Electron Energy =               -1412.2338925615317748
    Two-Electron Energy =                 573.8935347454228122
    Total Energy =                       -399.7502403056325875
  Basis Set: (AUG-CC-PVTZ AUX)
    Blend: AUG-CC-PVTZ-RI
    Molecular point group: c1

    Geometry (in Angstrom), charge = 0, multiplicity = 1:

       Center              X                  Y                   Z               Mass
    ------------   -----------------  -----------------  -----------------  -----------------
         O            0.731994752496     1.905118793052    -0.176850358045    15.994914619570
         N            0.255648252496    -0.287076906948    -0.261397058045    14.003074004430
         C            1.806877752496    -0.541885206948    -0.540932358045    12.000000000000
         C           -0.072282247504     0.962737793052    -0.103535358045    12.000000000000
         C           -0.448523247504    -1.456830206948    -0.188962358045    12.000000000000
         C            2.609214752496    -0.478063206948     0.750647641955    12.000000000000
         C           -1.488432247504     1.076007793052     0.160929641955    12.000000000000
         C           -1.783146247504    -1.324363206948     0.079557641955    12.000000000000
         C           -2.306337247504    -0.018233206948     0.257067641955    12.000000000000
         H            1.934392752496    -1.502298206948    -1.047833358045     1.007825032230
         H            2.108344752496     0.258809793052    -1.218338358045     1.007825032230
         H            0.029108752496    -2.420136206948    -0.344500358045     1.007825032230
         H            2.467451752496     0.496893793052     1.219114641955     1.007825032230
         H            2.291137752496    -1.261698206948     1.443713641955     1.007825032230
         H            3.674339752496    -0.612818206948     0.539795641955     1.007825032230
         H           -1.863838247504     2.085690793052     0.293839641955     1.007825032230
         H           -2.410309247504    -2.205845206948     0.147416641955     1.007825032230
         H           -3.365210247504     0.116180793052     0.466852641955     1.007825032230

  Basis Set: AUG-CC-PVTZ
    Blend: AUG-CC-PVTZ
  Basis Set: (AUG-CC-PVTZ AUX)
    Blend: AUG-CC-PVTZ-JKFIT
	 Reference Energy          =    -399.7502403056325875 [Eh]
	 Singles Energy            =      -0.0000000000000000 [Eh]
	 Same-Spin Energy          =      -0.4235480488009115 [Eh]
	 Opposite-Spin Energy      =      -1.3405391675122482 [Eh]
	 Correlation Energy        =      -1.7640872163131598 [Eh]
	 Total Energy              =    -401.5143275219457450 [Eh]

	 ================> DF-SCS-MP2 Energies <==================
	-----------------------------------------------------------
	 SCS Same-Spin Scale       =       0.3333333333333333 [-]
	 SCS Opposite-Spin Scale   =       1.2000000000000000 [-]
	 SCS Same-Spin Energy      =      -0.1411826829336371 [Eh]
	 SCS Opposite-Spin Energy  =      -1.6086470010146978 [Eh]
	 SCS Correlation Energy    =      -1.7498296839483349 [Eh]
	 SCS Total Energy          =    -401.5000699895809362 [Eh]
	-----------------------------------------------------------

  Dipole Moment: [D]
     X:    -0.6781      Y:    -4.2651      Z:     0.0144     Total:     4.3187

*** Psi4 exiting successfully. Buy a developer a beer!
