                               Psi4 1.4a3.dev225

  ==> Input File <==

--------------------------------------------------------------------------
#psi4
#
memory 32 gb

molecule  {
0 1
  O        0.6831730     1.9514370    -0.1851230
  N        0.3221270    -0.3206750    -0.2979720
  C        1.7580560    -0.4955670    -0.5492050
  C       -0.1211040     1.0090560    -0.1118080
  C       -0.4973450    -1.4105120    -0.1972350
  C        2.5603930    -0.4317450     0.7423750
  C       -1.5372540     1.1223260     0.1526570
  C       -1.8319680    -1.2780450     0.0712850
  C       -2.3367130    -0.0179647     0.2425366
  H        1.8855710    -1.4559800    -1.0561060
  H        2.0595230     0.3051280    -1.2266110
  H       -0.0197130    -2.3738180    -0.3527730
  H        2.4186300     0.5432120     1.2108420
  H        2.2423160    -1.2153800     1.4354410
  H        3.6255180    -0.5665000     0.5315230
  H       -1.9126600     2.1320090     0.2855670
  H       -2.4591310    -2.1595270     0.1391440
  H       -3.4140320     0.1624990     0.4585800
units angstrom
no_reorient  #important for SAPT in psi4, default
symmetry c1  #important for SAPT in psi4, default
}

set PROPERTIES_ORIGIN ["COM"]
properties('MP2/aug-cc-pvtz', properties = ['dipole'])
--------------------------------------------------------------------------

    Molecular point group: c1
  Charge       = 0
  Multiplicity = 1
  Basis Set: AUG-CC-PVTZ
    Blend: AUG-CC-PVTZ
  Basis Set: (AUG-CC-PVTZ AUX)
    Blend: AUG-CC-PVTZ-JKFIT

    Orbital Energies [Eh]
    ---------------------

    Doubly Occupied:

       1A    -20.502216     2A    -15.629019     3A    -11.346665
       4A    -11.312774     5A    -11.274868     6A    -11.270905
       7A    -11.237426     8A    -11.236923     9A    -11.221831
      10A     -1.367329    11A     -1.279432    12A     -1.123870
      13A     -1.028790    14A     -1.020877    15A     -0.898082
      16A     -0.871374    17A     -0.823119    18A     -0.716917
      19A     -0.701930    20A     -0.665238    21A     -0.640455
      22A     -0.612252    23A     -0.608641    24A     -0.604150
      25A     -0.553558    26A     -0.545157    27A     -0.529518
      28A     -0.526373    29A     -0.506696    30A     -0.476790
      31A     -0.417741    32A     -0.408067    33A     -0.305870

  @DF-RHF Final Energy:  -399.76673916282135

   => Energetics <=

    Nuclear Repulsion Energy =            437.8709519868509688
    One-Electron Energy =               -1410.7456745120537107
    Two-Electron Energy =                 573.1079833623814466
    Total Energy =                       -399.7667391628212954
  Basis Set: (AUG-CC-PVTZ AUX)
    Blend: AUG-CC-PVTZ-RI
    Molecular point group: c1

    Geometry (in Angstrom), charge = 0, multiplicity = 1:

       Center              X                  Y                   Z               Mass
    ------------   -----------------  -----------------  -----------------  -----------------
         O            0.717076924470     1.918702053044    -0.173019805701    15.994914619570
         N            0.356030924470    -0.353409946956    -0.285868805701    14.003074004430
         C            1.791959924470    -0.528301946956    -0.537101805701    12.000000000000
         C           -0.087200075530     0.976321053044    -0.099704805701    12.000000000000
         C           -0.463441075530    -1.443246946956    -0.185131805701    12.000000000000
         C            2.594296924470    -0.464479946956     0.754478194299    12.000000000000
         C           -1.503350075530     1.089591053044     0.164760194299    12.000000000000
         C           -1.798064075530    -1.310779946956     0.083388194299    12.000000000000
         C           -2.302809075530    -0.050699646956     0.254639794299    12.000000000000
         H            1.919474924470    -1.488714946956    -1.044002805701     1.007825032230
         H            2.093426924470     0.272393053044    -1.214507805701     1.007825032230
         H            0.014190924470    -2.406552946956    -0.340669805701     1.007825032230
         H            2.452533924470     0.510477053044     1.222945194299     1.007825032230
         H            2.276219924470    -1.248114946956     1.447544194299     1.007825032230
         H            3.659421924470    -0.599234946956     0.543626194299     1.007825032230
         H           -1.878756075530     2.099274053044     0.297670194299     1.007825032230
         H           -2.425227075530    -2.192261946956     0.151247194299     1.007825032230
         H           -3.380128075530     0.129764053044     0.470683194299     1.007825032230

  Basis Set: AUG-CC-PVTZ
    Blend: AUG-CC-PVTZ
  Basis Set: (AUG-CC-PVTZ AUX)
    Blend: AUG-CC-PVTZ-JKFIT
	 Reference Energy          =    -399.7667391628213522 [Eh]
	 Singles Energy            =      -0.0000000000000000 [Eh]
	 Same-Spin Energy          =      -0.4245569356768170 [Eh]
	 Opposite-Spin Energy      =      -1.3406795327793817 [Eh]
	 Correlation Energy        =      -1.7652364684561987 [Eh]
	 Total Energy              =    -401.5319756312775326 [Eh]

	 ================> DF-SCS-MP2 Energies <==================
	-----------------------------------------------------------
	 SCS Same-Spin Scale       =       0.3333333333333333 [-]
	 SCS Opposite-Spin Scale   =       1.2000000000000000 [-]
	 SCS Same-Spin Energy      =      -0.1415189785589390 [Eh]
	 SCS Opposite-Spin Energy  =      -1.6088154393352581 [Eh]
	 SCS Correlation Energy    =      -1.7503344178941971 [Eh]
	 SCS Total Energy          =    -401.5170735807155324 [Eh]
	-----------------------------------------------------------

  Dipole Moment: [D]
     X:    -0.7208      Y:    -3.9188      Z:     0.0226     Total:     3.9846

*** Psi4 exiting successfully. Buy a developer a beer!
