                               Psi4 1.4a3.dev225

  ==> Input File <==

--------------------------------------------------------------------------
#psi4
#
memory 32 gb

molecule  {
0 1
  O        0.6831730     1.9514370    -0.1851230
  N        0.3221270    -0.3206750    -0.2979720
  C        1.7580560    -0.4955670    -0.5492050
  C       -0.1148347     0.9902474    -0.1144412
  C       -0.4973450    -1.4105120    -0.1972350
  C        2.5603930    -0.4317450     0.7423750
  C       -1.5372540     1.1223260     0.1526570
  C       -1.8319680    -1.2780450     0.0712850
  C       -2.3551590     0.0280850     0.2487950
  H        1.8855710    -1.4559800    -1.0561060
  H        2.0595230     0.3051280    -1.2266110
  H       -0.0197130    -2.3738180    -0.3527730
  H        2.4186300     0.5432120     1.2108420
  H        2.2423160    -1.2153800     1.4354410
  H        3.6255180    -0.5665000     0.5315230
  H       -1.9126600     2.1320090     0.2855670
  H       -2.4591310    -2.1595270     0.1391440
  H       -3.4140320     0.1624990     0.4585800
units angstrom
no_reorient  #important for SAPT in psi4, default
symmetry c1  #important for SAPT in psi4, default
}

set PROPERTIES_ORIGIN ["COM"]
properties('MP2/aug-cc-pvtz', properties = ['dipole'])
--------------------------------------------------------------------------

    Molecular point group: c1
  Charge       = 0
  Multiplicity = 1
  Basis Set: AUG-CC-PVTZ
    Blend: AUG-CC-PVTZ
  Basis Set: (AUG-CC-PVTZ AUX)
    Blend: AUG-CC-PVTZ-JKFIT

    Orbital Energies [Eh]
    ---------------------

    Doubly Occupied:

       1A    -20.503269     2A    -15.627406     3A    -11.349073
       4A    -11.309036     5A    -11.274686     6A    -11.269729
       7A    -11.241756     8A    -11.238628     9A    -11.221578
      10A     -1.365683    11A     -1.278788    12A     -1.119756
      13A     -1.031333    14A     -1.020058    15A     -0.895700
      16A     -0.874678    17A     -0.824081    18A     -0.715935
      19A     -0.700066    20A     -0.667704    21A     -0.641324
      22A     -0.615241    23A     -0.608410    24A     -0.602717
      25A     -0.558990    26A     -0.539341    27A     -0.528855
      28A     -0.525627    29A     -0.506362    30A     -0.472106
      31A     -0.419108    32A     -0.408742    33A     -0.309362

  @DF-RHF Final Energy:  -399.77108489958880

   => Energetics <=

    Nuclear Repulsion Energy =            437.6012699741771712
    One-Electron Energy =               -1410.2144558280308502
    Two-Electron Energy =                 572.8421009542648790
    Total Energy =                       -399.7710848995888000
  Basis Set: (AUG-CC-PVTZ AUX)
    Blend: AUG-CC-PVTZ-RI
    Molecular point group: c1

    Geometry (in Angstrom), charge = 0, multiplicity = 1:

       Center              X                  Y                   Z               Mass
    ------------   -----------------  -----------------  -----------------  -----------------
         O            0.718264234807     1.916045862153    -0.173373287140    15.994914619570
         N            0.357218234807    -0.356066137847    -0.286222287140    14.003074004430
         C            1.793147234807    -0.530958137847    -0.537455287140    12.000000000000
         C           -0.079743465193     0.954856262153    -0.102691487140    12.000000000000
         C           -0.462253765193    -1.445903137847    -0.185485287140    12.000000000000
         C            2.595484234807    -0.467136137847     0.754124712860    12.000000000000
         C           -1.502162765193     1.086934862153     0.164406712860    12.000000000000
         C           -1.796876765193    -1.313436137847     0.083034712860    12.000000000000
         C           -2.320067765193    -0.007306137847     0.260544712860    12.000000000000
         H            1.920662234807    -1.491371137847    -1.044356287140     1.007825032230
         H            2.094614234807     0.269736862153    -1.214861287140     1.007825032230
         H            0.015378234807    -2.409209137847    -0.341023287140     1.007825032230
         H            2.453721234807     0.507820862153     1.222591712860     1.007825032230
         H            2.277407234807    -1.250771137847     1.447190712860     1.007825032230
         H            3.660609234807    -0.601891137847     0.543272712860     1.007825032230
         H           -1.877568765193     2.096617862153     0.297316712860     1.007825032230
         H           -2.424039765193    -2.194918137847     0.150893712860     1.007825032230
         H           -3.378940765193     0.127107862153     0.470329712860     1.007825032230

  Basis Set: AUG-CC-PVTZ
    Blend: AUG-CC-PVTZ
  Basis Set: (AUG-CC-PVTZ AUX)
    Blend: AUG-CC-PVTZ-JKFIT
	 Reference Energy          =    -399.7710848995888000 [Eh]
	 Singles Energy            =      -0.0000000000000000 [Eh]
	 Same-Spin Energy          =      -0.4234009030028287 [Eh]
	 Opposite-Spin Energy      =      -1.3399201864472210 [Eh]
	 Correlation Energy        =      -1.7633210894500497 [Eh]
	 Total Energy              =    -401.5344059890388735 [Eh]

	 ================> DF-SCS-MP2 Energies <==================
	-----------------------------------------------------------
	 SCS Same-Spin Scale       =       0.3333333333333333 [-]
	 SCS Opposite-Spin Scale   =       1.2000000000000000 [-]
	 SCS Same-Spin Energy      =      -0.1411336343342762 [Eh]
	 SCS Opposite-Spin Energy  =      -1.6079042237366652 [Eh]
	 SCS Correlation Energy    =      -1.7490378580709414 [Eh]
	 SCS Total Energy          =    -401.5201227576597489 [Eh]
	-----------------------------------------------------------

  Dipole Moment: [D]
     X:    -0.7872      Y:    -3.9132      Z:     0.0327     Total:     3.9917

*** Psi4 exiting successfully. Buy a developer a beer!
