                               Psi4 1.4a3.dev225

  ==> Input File <==

--------------------------------------------------------------------------
#psi4
#
memory 32 gb

molecule  {
0 1
  O        0.6831730     1.9514370    -0.1851230
  N        0.3221270    -0.3206750    -0.2979720
  C        1.7580560    -0.4955670    -0.5492050
  C       -0.1054307     0.9620346    -0.1183911
  C       -0.4973450    -1.4105120    -0.1972350
  C        2.5603930    -0.4317450     0.7423750
  C       -1.5372540     1.1223260     0.1526570
  C       -1.8319680    -1.2780450     0.0712850
  C       -2.3551590     0.0280850     0.2487950
  H        1.8855710    -1.4559800    -1.0561060
  H        2.0595230     0.3051280    -1.2266110
  H       -0.0197130    -2.3738180    -0.3527730
  H        2.4186300     0.5432120     1.2108420
  H        2.2423160    -1.2153800     1.4354410
  H        3.6255180    -0.5665000     0.5315230
  H       -1.9126600     2.1320090     0.2855670
  H       -2.4591310    -2.1595270     0.1391440
  H       -3.4140320     0.1624990     0.4585800
units angstrom
no_reorient  #important for SAPT in psi4, default
symmetry c1  #important for SAPT in psi4, default
}

set PROPERTIES_ORIGIN ["COM"]
properties('MP2/aug-cc-pvtz', properties = ['dipole'])
--------------------------------------------------------------------------

    Molecular point group: c1
  Charge       = 0
  Multiplicity = 1
  Basis Set: AUG-CC-PVTZ
    Blend: AUG-CC-PVTZ
  Basis Set: (AUG-CC-PVTZ AUX)
    Blend: AUG-CC-PVTZ-JKFIT

    Orbital Energies [Eh]
    ---------------------

    Doubly Occupied:

       1A    -20.498774     2A    -15.630113     3A    -11.347828
       4A    -11.309280     5A    -11.276020     6A    -11.268450
       7A    -11.244281     8A    -11.241089     9A    -11.222265
      10A     -1.362972    11A     -1.277694    12A     -1.120822
      13A     -1.031453    14A     -1.023328    15A     -0.895998
      16A     -0.881134    17A     -0.822821    18A     -0.718438
      19A     -0.699445    20A     -0.668287    21A     -0.643528
      22A     -0.617816    23A     -0.609942    24A     -0.598833
      25A     -0.556553    26A     -0.540637    27A     -0.527738
      28A     -0.525056    29A     -0.507551    30A     -0.467552
      31A     -0.415758    32A     -0.409936    33A     -0.310262

  @DF-RHF Final Energy:  -399.76875288575047

   => Energetics <=

    Nuclear Repulsion Energy =            437.8609957248376077
    One-Electron Energy =               -1410.7161907678803345
    Two-Electron Energy =                 573.0864421572922538
    Total Energy =                       -399.7687528857504731
  Basis Set: (AUG-CC-PVTZ AUX)
    Blend: AUG-CC-PVTZ-RI
    Molecular point group: c1

    Geometry (in Angstrom), charge = 0, multiplicity = 1:

       Center              X                  Y                   Z               Mass
    ------------   -----------------  -----------------  -----------------  -----------------
         O            0.717347281412     1.918796800345    -0.172988145262    15.994914619570
         N            0.356301281412    -0.353315199655    -0.285837145262    14.003074004430
         C            1.792230281412    -0.528207199655    -0.537070145262    12.000000000000
         C           -0.071256418588     0.929394400345    -0.106256245262    12.000000000000
         C           -0.463170718588    -1.443152199655    -0.185100145262    12.000000000000
         C            2.594567281412    -0.464385199655     0.754509854738    12.000000000000
         C           -1.503079718588     1.089685800345     0.164791854738    12.000000000000
         C           -1.797793718588    -1.310685199655     0.083419854738    12.000000000000
         C           -2.320984718588    -0.004555199655     0.260929854738    12.000000000000
         H            1.919745281412    -1.488620199655    -1.043971145262     1.007825032230
         H            2.093697281412     0.272487800345    -1.214476145262     1.007825032230
         H            0.014461281412    -2.406458199655    -0.340638145262     1.007825032230
         H            2.452804281412     0.510571800345     1.222976854738     1.007825032230
         H            2.276490281412    -1.248020199655     1.447575854738     1.007825032230
         H            3.659692281412    -0.599140199655     0.543657854738     1.007825032230
         H           -1.878485718588     2.099368800345     0.297701854738     1.007825032230
         H           -2.424956718588    -2.192167199655     0.151278854738     1.007825032230
         H           -3.379857718588     0.129858800345     0.470714854738     1.007825032230

  Basis Set: AUG-CC-PVTZ
    Blend: AUG-CC-PVTZ
  Basis Set: (AUG-CC-PVTZ AUX)
    Blend: AUG-CC-PVTZ-JKFIT
	 Reference Energy          =    -399.7687528857504731 [Eh]
	 Singles Energy            =      -0.0000000000000000 [Eh]
	 Same-Spin Energy          =      -0.4233548568358162 [Eh]
	 Opposite-Spin Energy      =      -1.3401151461478267 [Eh]
	 Correlation Energy        =      -1.7634700029836430 [Eh]
	 Total Energy              =    -401.5322228887341112 [Eh]

	 ================> DF-SCS-MP2 Energies <==================
	-----------------------------------------------------------
	 SCS Same-Spin Scale       =       0.3333333333333333 [-]
	 SCS Opposite-Spin Scale   =       1.2000000000000000 [-]
	 SCS Same-Spin Energy      =      -0.1411182856119387 [Eh]
	 SCS Opposite-Spin Energy  =      -1.6081381753773920 [Eh]
	 SCS Correlation Energy    =      -1.7492564609893306 [Eh]
	 SCS Total Energy          =    -401.5180093467398024 [Eh]
	-----------------------------------------------------------

  Dipole Moment: [D]
     X:    -0.8305      Y:    -4.0638      Z:     0.0342     Total:     4.1480

*** Psi4 exiting successfully. Buy a developer a beer!
