                               Psi4 1.3.2 release

  ==> Input File <==

--------------------------------------------------------------------------
#psi4
#
memory 32 gb

molecule  {
0 1
  O        0.6506293     1.9788486    -0.1769897
  N        0.3221270    -0.3206750    -0.2979720
  C        1.7580560    -0.4955670    -0.5492050
  C       -0.1211040     1.0090560    -0.1118080
  C       -0.4973450    -1.4105120    -0.1972350
  C        2.5603930    -0.4317450     0.7423750
  C       -1.5372540     1.1223260     0.1526570
  C       -1.8319680    -1.2780450     0.0712850
  C       -2.3551590     0.0280850     0.2487950
  H        1.8855710    -1.4559800    -1.0561060
  H        2.0595230     0.3051280    -1.2266110
  H       -0.0197130    -2.3738180    -0.3527730
  H        2.4186300     0.5432120     1.2108420
  H        2.2423160    -1.2153800     1.4354410
  H        3.6255180    -0.5665000     0.5315230
  H       -1.9126600     2.1320090     0.2855670
  H       -2.4591310    -2.1595270     0.1391440
  H       -3.4140320     0.1624990     0.4585800
units angstrom
no_reorient  #important for SAPT in psi4, default
symmetry c1  #important for SAPT in psi4, default
}

set PROPERTIES_ORIGIN ["COM"]
properties('MP2/aug-cc-pvtz', properties = ['dipole'])
--------------------------------------------------------------------------

    Molecular point group: c1
  Charge       = 0
  Multiplicity = 1
  Basis Set: AUG-CC-PVTZ
    Blend: AUG-CC-PVTZ
  Basis Set: (AUG-CC-PVTZ AUX)
    Blend: AUG-CC-PVTZ-JKFIT

    Orbital Energies [Eh]
    ---------------------

    Doubly Occupied:

       1A    -20.506849     2A    -15.626603     3A    -11.349873
       4A    -11.308757     5A    -11.274999     6A    -11.269254
       7A    -11.240278     8A    -11.236010     9A    -11.222081
      10A     -1.368212    11A     -1.280055    12A     -1.118801
      13A     -1.031456    14A     -1.018239    15A     -0.895676
      16A     -0.870941    17A     -0.824946    18A     -0.714403
      19A     -0.700166    20A     -0.667418    21A     -0.640102
      22A     -0.614115    23A     -0.608630    24A     -0.604930
      25A     -0.560492    26A     -0.538708    27A     -0.530206
      28A     -0.526288    29A     -0.506571    30A     -0.475347
      31A     -0.420830    32A     -0.407784    33A     -0.308413

  @DF-RHF Final Energy:  -399.77128457189116

   => Energetics <=

    Nuclear Repulsion Energy =            437.1116081169329277
    One-Electron Energy =               -1409.2309128917677299
    Two-Electron Energy =                 572.3480202029436441
    Total Energy =                       -399.7712845718911012
  Basis Set: (AUG-CC-PVTZ AUX)
    Blend: AUG-CC-PVTZ-RI
    Molecular point group: c1

    Geometry (in Angstrom), charge = 0, multiplicity = 1:

       Center              X                  Y                   Z               Mass
    ------------   -----------------  -----------------  -----------------  -----------------
         O            0.690561462580     1.938060875162    -0.166553807916    15.994914619570
         N            0.362059162580    -0.361462724838    -0.287536107916    14.003074004430
         C            1.797988162580    -0.536354724838    -0.538769107916    12.000000000000
         C           -0.081171837420     0.968268275162    -0.101372107916    12.000000000000
         C           -0.457412837420    -1.451299724838    -0.186799107916    12.000000000000
         C            2.600325162580    -0.472532724838     0.752810892084    12.000000000000
         C           -1.497321837420     1.081538275162     0.163092892084    12.000000000000
         C           -1.792035837420    -1.318832724838     0.081720892084    12.000000000000
         C           -2.315226837420    -0.012702724838     0.259230892084    12.000000000000
         H            1.925503162580    -1.496767724838    -1.045670107916     1.007825032230
         H            2.099455162580     0.264340275162    -1.216175107916     1.007825032230
         H            0.020219162580    -2.414605724838    -0.342337107916     1.007825032230
         H            2.458562162580     0.502424275162     1.221277892084     1.007825032230
         H            2.282248162580    -1.256167724838     1.445876892084     1.007825032230
         H            3.665450162580    -0.607287724838     0.541958892084     1.007825032230
         H           -1.872727837420     2.091221275162     0.296002892084     1.007825032230
         H           -2.419198837420    -2.200314724838     0.149579892084     1.007825032230
         H           -3.374099837420     0.121711275162     0.469015892084     1.007825032230

  Basis Set: AUG-CC-PVTZ
    Blend: AUG-CC-PVTZ
  Basis Set: (AUG-CC-PVTZ AUX)
    Blend: AUG-CC-PVTZ-JKFIT
	 Reference Energy          =    -399.7712845718911581 [Eh]
	 Singles Energy            =      -0.0000000000000000 [Eh]
	 Same-Spin Energy          =      -0.4233266659077117 [Eh]
	 Opposite-Spin Energy      =      -1.3398374606894394 [Eh]
	 Correlation Energy        =      -1.7631641265971512 [Eh]
	 Total Energy              =    -401.5344486984882906 [Eh]

	 ================> DF-SCS-MP2 Energies <==================
	-----------------------------------------------------------
	 SCS Same-Spin Scale       =       0.3333333333333333 [-]
	 SCS Opposite-Spin Scale   =       1.2000000000000000 [-]
	 SCS Same-Spin Energy      =      -0.1411088886359039 [Eh]
	 SCS Opposite-Spin Energy  =      -1.6078049528273273 [Eh]
	 SCS Correlation Energy    =      -1.7489138414632310 [Eh]
	 SCS Total Energy          =    -401.5201984133543647 [Eh]
	-----------------------------------------------------------

  Dipole Moment: [D]
     X:    -0.6807      Y:    -3.8621      Z:     0.0192     Total:     3.9217

*** Psi4 exiting successfully. Buy a developer a beer!
