                               Psi4 1.3.2 release

  ==> Input File <==

--------------------------------------------------------------------------
#psi4
#
memory 32 gb

molecule  {
0 1
  O        0.6831730     1.9514370    -0.1851230
  N        0.3221270    -0.3206750    -0.2979720
  C        1.7580560    -0.4955670    -0.5492050
  C       -0.1211040     1.0090560    -0.1118080
  C       -0.4973450    -1.4105120    -0.1972350
  C        2.5603930    -0.4317450     0.7423750
  C       -1.5372540     1.1223260     0.1526570
  C       -1.8319680    -1.2780450     0.0712850
  C       -2.3551590     0.0280850     0.2487950
  H        1.8855710    -1.4559800    -1.0561060
  H        2.0595230     0.3051280    -1.2266110
  H        0.0682156    -2.5511558    -0.3814064
  H        2.4186300     0.5432120     1.2108420
  H        2.2423160    -1.2153800     1.4354410
  H        3.6255180    -0.5665000     0.5315230
  H       -1.9126600     2.1320090     0.2855670
  H       -2.4591310    -2.1595270     0.1391440
  H       -3.4140320     0.1624990     0.4585800
units angstrom
no_reorient  #important for SAPT in psi4, default
symmetry c1  #important for SAPT in psi4, default
}

set PROPERTIES_ORIGIN ["COM"]
properties('MP2/aug-cc-pvtz', properties = ['dipole'])
--------------------------------------------------------------------------

    Molecular point group: c1
  Charge       = 0
  Multiplicity = 1
  Basis Set: AUG-CC-PVTZ
    Blend: AUG-CC-PVTZ
  Basis Set: (AUG-CC-PVTZ AUX)
    Blend: AUG-CC-PVTZ-JKFIT

    Orbital Energies [Eh]
    ---------------------

    Doubly Occupied:

       1A    -20.507217     2A    -15.627488     3A    -11.351343
       4A    -11.328888     5A    -11.273500     6A    -11.271902
       7A    -11.241587     8A    -11.237618     9A    -11.220859
      10A     -1.369996    11A     -1.278514    12A     -1.119947
      13A     -1.028740    14A     -1.016287    15A     -0.894592
      16A     -0.862934    17A     -0.825051    18A     -0.706380
      19A     -0.698954    20A     -0.655146    21A     -0.636326
      22A     -0.613064    23A     -0.606767    24A     -0.592522
      25A     -0.561151    26A     -0.535164    27A     -0.527128
      28A     -0.523908    29A     -0.505492    30A     -0.475734
      31A     -0.421041    32A     -0.408673    33A     -0.309533

  @DF-RHF Final Energy:  -399.74864711587281

   => Energetics <=

    Nuclear Repulsion Energy =            436.4969065770224574
    One-Electron Energy =               -1408.0242126779305636
    Two-Electron Energy =                 571.7786589850353494
    Total Energy =                       -399.7486471158728136
  Basis Set: (AUG-CC-PVTZ AUX)
    Blend: AUG-CC-PVTZ-RI
    Molecular point group: c1

    Geometry (in Angstrom), charge = 0, multiplicity = 1:

       Center              X                  Y                   Z               Mass
    ------------   -----------------  -----------------  -----------------  -----------------
         O            0.718155473804     1.915664141739    -0.173395558839    15.994914619570
         N            0.357109473804    -0.356447858261    -0.286244558839    14.003074004430
         C            1.793038473804    -0.531339858261    -0.537477558839    12.000000000000
         C           -0.086121526196     0.973283141739    -0.100080558839    12.000000000000
         C           -0.462362526196    -1.446284858261    -0.185507558839    12.000000000000
         C            2.595375473804    -0.467517858261     0.754102441161    12.000000000000
         C           -1.502271526196     1.086553141739     0.164384441161    12.000000000000
         C           -1.796985526196    -1.313817858261     0.083012441161    12.000000000000
         C           -2.320176526196    -0.007687858261     0.260522441161    12.000000000000
         H            1.920553473804    -1.491752858261    -1.044378558839     1.007825032230
         H            2.094505473804     0.269355141739    -1.214883558839     1.007825032230
         H            0.103198073804    -2.586928658261    -0.369678958839     1.007825032230
         H            2.453612473804     0.507439141739     1.222569441161     1.007825032230
         H            2.277298473804    -1.251152858261     1.447168441161     1.007825032230
         H            3.660500473804    -0.602272858261     0.543250441161     1.007825032230
         H           -1.877677526196     2.096236141739     0.297294441161     1.007825032230
         H           -2.424148526196    -2.195299858261     0.150871441161     1.007825032230
         H           -3.379049526196     0.126726141739     0.470307441161     1.007825032230

  Basis Set: AUG-CC-PVTZ
    Blend: AUG-CC-PVTZ
  Basis Set: (AUG-CC-PVTZ AUX)
    Blend: AUG-CC-PVTZ-JKFIT
	 Reference Energy          =    -399.7486471158728136 [Eh]
	 Singles Energy            =      -0.0000000000000000 [Eh]
	 Same-Spin Energy          =      -0.4242990832835858 [Eh]
	 Opposite-Spin Energy      =      -1.3423685081510093 [Eh]
	 Correlation Energy        =      -1.7666675914345951 [Eh]
	 Total Energy              =    -401.5153147073074251 [Eh]

	 ================> DF-SCS-MP2 Energies <==================
	-----------------------------------------------------------
	 SCS Same-Spin Scale       =       0.3333333333333333 [-]
	 SCS Opposite-Spin Scale   =       1.2000000000000000 [-]
	 SCS Same-Spin Energy      =      -0.1414330277611953 [Eh]
	 SCS Opposite-Spin Energy  =      -1.6108422097812112 [Eh]
	 SCS Correlation Energy    =      -1.7522752375424064 [Eh]
	 SCS Total Energy          =    -401.5009223534152056 [Eh]
	-----------------------------------------------------------

  Dipole Moment: [D]
     X:    -0.7752      Y:    -3.7500      Z:     0.0397     Total:     3.8295

*** Psi4 exiting successfully. Buy a developer a beer!
