                               Psi4 1.3.2 release

  ==> Input File <==

--------------------------------------------------------------------------
#psi4
#
memory 32 gb

molecule  {
0 1
  O        0.6831730     1.9514370    -0.1851230
  N        0.4287086    -0.4126067    -0.3238709
  C        1.7580560    -0.4955670    -0.5492050
  C       -0.1211040     1.0090560    -0.1118080
  C       -0.4973450    -1.4105120    -0.1972350
  C        2.5603930    -0.4317450     0.7423750
  C       -1.5372540     1.1223260     0.1526570
  C       -1.8319680    -1.2780450     0.0712850
  C       -2.3551590     0.0280850     0.2487950
  H        1.8855710    -1.4559800    -1.0561060
  H        2.0595230     0.3051280    -1.2266110
  H       -0.0197130    -2.3738180    -0.3527730
  H        2.4186300     0.5432120     1.2108420
  H        2.2423160    -1.2153800     1.4354410
  H        3.6255180    -0.5665000     0.5315230
  H       -1.9126600     2.1320090     0.2855670
  H       -2.4591310    -2.1595270     0.1391440
  H       -3.4140320     0.1624990     0.4585800
units angstrom
no_reorient  #important for SAPT in psi4, default
symmetry c1  #important for SAPT in psi4, default
}

set PROPERTIES_ORIGIN ["COM"]
properties('MP2/aug-cc-pvtz', properties = ['dipole'])
--------------------------------------------------------------------------

    Molecular point group: c1
  Charge       = 0
  Multiplicity = 1
  Basis Set: AUG-CC-PVTZ
    Blend: AUG-CC-PVTZ
  Basis Set: (AUG-CC-PVTZ AUX)
    Blend: AUG-CC-PVTZ-JKFIT

    Orbital Energies [Eh]
    ---------------------

    Doubly Occupied:

       1A    -20.521342     2A    -15.623359     3A    -11.363556
       4A    -11.312622     5A    -11.275799     6A    -11.263322
       7A    -11.238879     8A    -11.238421     9A    -11.217149
      10A     -1.370603    11A     -1.288922    12A     -1.128844
      13A     -1.035976    14A     -1.003121    15A     -0.907900
      16A     -0.851882    17A     -0.830134    18A     -0.713356
      19A     -0.703185    20A     -0.676360    21A     -0.644320
      22A     -0.617613    23A     -0.608961    24A     -0.595229
      25A     -0.566636    26A     -0.538058    27A     -0.533749
      28A     -0.529157    29A     -0.499365    30A     -0.478093
      31A     -0.423124    32A     -0.404425    33A     -0.305289

  @DF-RHF Final Energy:  -399.74455314945141

   => Energetics <=

    Nuclear Repulsion Energy =            436.5230341640134384
    One-Electron Energy =               -1407.9176743394987170
    Two-Electron Energy =                 571.6500870260338161
    Total Energy =                       -399.7445531494514626
  Basis Set: (AUG-CC-PVTZ AUX)
    Blend: AUG-CC-PVTZ-RI
    Molecular point group: c1

    Geometry (in Angstrom), charge = 0, multiplicity = 1:

       Center              X                  Y                   Z               Mass
    ------------   -----------------  -----------------  -----------------  -----------------
         O            0.706748376373     1.924672147036    -0.170683191422    15.994914619570
         N            0.452283976373    -0.439371552964    -0.309431091422    14.003074004430
         C            1.781631376373    -0.522331852964    -0.534765191422    12.000000000000
         C           -0.097528623627     0.982291147036    -0.097368191422    12.000000000000
         C           -0.473769623627    -1.437276852964    -0.182795191422    12.000000000000
         C            2.583968376373    -0.458509852964     0.756814808578    12.000000000000
         C           -1.513678623627     1.095561147036     0.167096808578    12.000000000000
         C           -1.808392623627    -1.304809852964     0.085724808578    12.000000000000
         C           -2.331583623627     0.001320147036     0.263234808578    12.000000000000
         H            1.909146376373    -1.482744852964    -1.041666191422     1.007825032230
         H            2.083098376373     0.278363147036    -1.212171191422     1.007825032230
         H            0.003862376373    -2.400582852964    -0.338333191422     1.007825032230
         H            2.442205376373     0.516447147036     1.225281808578     1.007825032230
         H            2.265891376373    -1.242144852964     1.449880808578     1.007825032230
         H            3.649093376373    -0.593264852964     0.545962808578     1.007825032230
         H           -1.889084623627     2.105244147036     0.300006808578     1.007825032230
         H           -2.435555623627    -2.186291852964     0.153583808578     1.007825032230
         H           -3.390456623627     0.135734147036     0.473019808578     1.007825032230

  Basis Set: AUG-CC-PVTZ
    Blend: AUG-CC-PVTZ
  Basis Set: (AUG-CC-PVTZ AUX)
    Blend: AUG-CC-PVTZ-JKFIT
	 Reference Energy          =    -399.7445531494514057 [Eh]
	 Singles Energy            =      -0.0000000000000000 [Eh]
	 Same-Spin Energy          =      -0.4255609286506566 [Eh]
	 Opposite-Spin Energy      =      -1.3434579467088050 [Eh]
	 Correlation Energy        =      -1.7690188753594618 [Eh]
	 Total Energy              =    -401.5135720248108555 [Eh]

	 ================> DF-SCS-MP2 Energies <==================
	-----------------------------------------------------------
	 SCS Same-Spin Scale       =       0.3333333333333333 [-]
	 SCS Opposite-Spin Scale   =       1.2000000000000000 [-]
	 SCS Same-Spin Energy      =      -0.1418536428835522 [Eh]
	 SCS Opposite-Spin Energy  =      -1.6121495360505660 [Eh]
	 SCS Correlation Energy    =      -1.7540031789341182 [Eh]
	 SCS Total Energy          =    -401.4985563283855186 [Eh]
	-----------------------------------------------------------

  Dipole Moment: [D]
     X:    -0.8131      Y:    -3.3416      Z:     0.0554     Total:     3.4396

*** Psi4 exiting successfully. Buy a developer a beer!
