                               Psi4 1.3.2 release

  ==> Input File <==

--------------------------------------------------------------------------
#psi4
#
memory 32 gb

molecule  {
0 1
  O        0.6831730     1.9514370    -0.1851230
  N        0.3221270    -0.3206750    -0.2979720
  C        1.7580560    -0.4955670    -0.5492050
  C       -0.1422283     0.8593899    -0.1175661
  C       -0.4973450    -1.4105120    -0.1972350
  C        2.5603930    -0.4317450     0.7423750
  C       -1.5372540     1.1223260     0.1526570
  C       -1.8319680    -1.2780450     0.0712850
  C       -2.3551590     0.0280850     0.2487950
  H        1.8855710    -1.4559800    -1.0561060
  H        2.0595230     0.3051280    -1.2266110
  H       -0.0197130    -2.3738180    -0.3527730
  H        2.4186300     0.5432120     1.2108420
  H        2.2423160    -1.2153800     1.4354410
  H        3.6255180    -0.5665000     0.5315230
  H       -1.9126600     2.1320090     0.2855670
  H       -2.4591310    -2.1595270     0.1391440
  H       -3.4140320     0.1624990     0.4585800
units angstrom
no_reorient  #important for SAPT in psi4, default
symmetry c1  #important for SAPT in psi4, default
}

set PROPERTIES_ORIGIN ["COM"]
properties('MP2/aug-cc-pvtz', properties = ['dipole'])
--------------------------------------------------------------------------

    Molecular point group: c1
  Charge       = 0
  Multiplicity = 1
  Basis Set: AUG-CC-PVTZ
    Blend: AUG-CC-PVTZ
  Basis Set: (AUG-CC-PVTZ AUX)
    Blend: AUG-CC-PVTZ-JKFIT

    Orbital Energies [Eh]
    ---------------------

    Doubly Occupied:

       1A    -20.473315     2A    -15.642228     3A    -11.339126
       4A    -11.313430     5A    -11.281119     6A    -11.271853
       7A    -11.255400     8A    -11.248373     9A    -11.223685
      10A     -1.368510    11A     -1.231668    12A     -1.131072
      13A     -1.038121    14A     -1.034926    15A     -0.902396
      16A     -0.900239    17A     -0.825791    18A     -0.729031
      19A     -0.702749    20A     -0.673041    21A     -0.652460
      22A     -0.630242    23A     -0.614488    24A     -0.588757
      25A     -0.552876    26A     -0.539328    27A     -0.526652
      28A     -0.511304    29A     -0.505006    30A     -0.442366
      31A     -0.416277    32A     -0.391847    33A     -0.314527

  @DF-RHF Final Energy:  -399.73901349359369

   => Energetics <=

    Nuclear Repulsion Energy =            438.6387038741220294
    One-Electron Energy =               -1412.2110315913523664
    Two-Electron Energy =                 573.8333142236366484
    Total Energy =                       -399.7390134935936885
  Basis Set: (AUG-CC-PVTZ AUX)
    Blend: AUG-CC-PVTZ-RI
    Molecular point group: c1

    Geometry (in Angstrom), charge = 0, multiplicity = 1:

       Center              X                  Y                   Z               Mass
    ------------   -----------------  -----------------  -----------------  -----------------
         O            0.720935295476     1.928805350555    -0.173068588324    15.994914619570
         N            0.359889295476    -0.343306649445    -0.285917588324    14.003074004430
         C            1.795818295476    -0.518198649445    -0.537150588324    12.000000000000
         C           -0.104466004524     0.836758250555    -0.105511688324    12.000000000000
         C           -0.459582704524    -1.433143649445    -0.185180588324    12.000000000000
         C            2.598155295476    -0.454376649445     0.754429411676    12.000000000000
         C           -1.499491704524     1.099694350555     0.164711411676    12.000000000000
         C           -1.794205704524    -1.300676649445     0.083339411676    12.000000000000
         C           -2.317396704524     0.005453350555     0.260849411676    12.000000000000
         H            1.923333295476    -1.478611649445    -1.044051588324     1.007825032230
         H            2.097285295476     0.282496350555    -1.214556588324     1.007825032230
         H            0.018049295476    -2.396449649445    -0.340718588324     1.007825032230
         H            2.456392295476     0.520580350555     1.222896411676     1.007825032230
         H            2.280078295476    -1.238011649445     1.447495411676     1.007825032230
         H            3.663280295476    -0.589131649445     0.543577411676     1.007825032230
         H           -1.874897704524     2.109377350555     0.297621411676     1.007825032230
         H           -2.421368704524    -2.182158649445     0.151198411676     1.007825032230
         H           -3.376269704524     0.139867350555     0.470634411676     1.007825032230

  Basis Set: AUG-CC-PVTZ
    Blend: AUG-CC-PVTZ
  Basis Set: (AUG-CC-PVTZ AUX)
    Blend: AUG-CC-PVTZ-JKFIT
	 Reference Energy          =    -399.7390134935936885 [Eh]
	 Singles Energy            =      -0.0000000000000000 [Eh]
	 Same-Spin Energy          =      -0.4247121861908082 [Eh]
	 Opposite-Spin Energy      =      -1.3426965728740283 [Eh]
	 Correlation Energy        =      -1.7674087590648364 [Eh]
	 Total Energy              =    -401.5064222526585240 [Eh]

	 ================> DF-SCS-MP2 Energies <==================
	-----------------------------------------------------------
	 SCS Same-Spin Scale       =       0.3333333333333333 [-]
	 SCS Opposite-Spin Scale   =       1.2000000000000000 [-]
	 SCS Same-Spin Energy      =      -0.1415707287302694 [Eh]
	 SCS Opposite-Spin Energy  =      -1.6112358874488339 [Eh]
	 SCS Correlation Energy    =      -1.7528066161791034 [Eh]
	 SCS Total Energy          =    -401.4918201097727888 [Eh]
	-----------------------------------------------------------

  Dipole Moment: [D]
     X:    -1.2567      Y:    -4.8107      Z:     0.0789     Total:     4.9728

*** Psi4 exiting successfully. Buy a developer a beer!
