                               Psi4 1.3.2 release

  ==> Input File <==

--------------------------------------------------------------------------
#psi4
#
memory 32 gb

molecule  {
0 1
  O        0.6831730     1.9514370    -0.1851230
  N        0.3019920    -0.3357236    -0.4495810
  C        1.7580560    -0.4955670    -0.5492050
  C       -0.1211040     1.0090560    -0.1118080
  C       -0.4973450    -1.4105120    -0.1972350
  C        2.5603930    -0.4317450     0.7423750
  C       -1.5372540     1.1223260     0.1526570
  C       -1.8319680    -1.2780450     0.0712850
  C       -2.3551590     0.0280850     0.2487950
  H        1.8855710    -1.4559800    -1.0561060
  H        2.0595230     0.3051280    -1.2266110
  H       -0.0197130    -2.3738180    -0.3527730
  H        2.4186300     0.5432120     1.2108420
  H        2.2423160    -1.2153800     1.4354410
  H        3.6255180    -0.5665000     0.5315230
  H       -1.9126600     2.1320090     0.2855670
  H       -2.4591310    -2.1595270     0.1391440
  H       -3.4140320     0.1624990     0.4585800
units angstrom
no_reorient  #important for SAPT in psi4, default
symmetry c1  #important for SAPT in psi4, default
}

set PROPERTIES_ORIGIN ["COM"]
properties('MP2/aug-cc-pvtz', properties = ['dipole'])
--------------------------------------------------------------------------

    Molecular point group: c1
  Charge       = 0
  Multiplicity = 1
  Basis Set: AUG-CC-PVTZ
    Blend: AUG-CC-PVTZ
  Basis Set: (AUG-CC-PVTZ AUX)
    Blend: AUG-CC-PVTZ-JKFIT

    Orbital Energies [Eh]
    ---------------------

    Doubly Occupied:

       1A    -20.512954     2A    -15.624330     3A    -11.354435
       4A    -11.307557     5A    -11.272207     6A    -11.272044
       7A    -11.238854     8A    -11.236967     9A    -11.223599
      10A     -1.368719    11A     -1.277421    12A     -1.118497
      13A     -1.031537    14A     -1.014191    15A     -0.898758
      16A     -0.863371    17A     -0.825524    18A     -0.709703
      19A     -0.699465    20A     -0.663163    21A     -0.640216
      22A     -0.614164    23A     -0.607663    24A     -0.603531
      25A     -0.561716    26A     -0.541006    27A     -0.535999
      28A     -0.520432    29A     -0.503182    30A     -0.477068
      31A     -0.424160    32A     -0.408546    33A     -0.308234

  @DF-RHF Final Energy:  -399.76353174786681

   => Energetics <=

    Nuclear Repulsion Energy =            436.4220859276087481
    One-Electron Energy =               -1407.8528119396928560
    Two-Electron Energy =                 571.6671942642173008
    Total Energy =                       -399.7635317478667503
  Basis Set: (AUG-CC-PVTZ AUX)
    Blend: AUG-CC-PVTZ-RI
    Molecular point group: c1

    Geometry (in Angstrom), charge = 0, multiplicity = 1:

       Center              X                  Y                   Z               Mass
    ------------   -----------------  -----------------  -----------------  -----------------
         O            0.721166551362     1.915924169348    -0.156379538864    15.994914619570
         N            0.339985551362    -0.371236430652    -0.420837538864    14.003074004430
         C            1.796049551362    -0.531079830652    -0.520461538864    12.000000000000
         C           -0.083110448638     0.973543169348    -0.083064538864    12.000000000000
         C           -0.459351448638    -1.446024830652    -0.168491538864    12.000000000000
         C            2.598386551362    -0.467257830652     0.771118461136    12.000000000000
         C           -1.499260448638     1.086813169348     0.181400461136    12.000000000000
         C           -1.793974448638    -1.313557830652     0.100028461136    12.000000000000
         C           -2.317165448638    -0.007427830652     0.277538461136    12.000000000000
         H            1.923564551362    -1.491492830652    -1.027362538864     1.007825032230
         H            2.097516551362     0.269615169348    -1.197867538864     1.007825032230
         H            0.018280551362    -2.409330830652    -0.324029538864     1.007825032230
         H            2.456623551362     0.507699169348     1.239585461136     1.007825032230
         H            2.280309551362    -1.250892830652     1.464184461136     1.007825032230
         H            3.663511551362    -0.602012830652     0.560266461136     1.007825032230
         H           -1.874666448638     2.096496169348     0.314310461136     1.007825032230
         H           -2.421137448638    -2.195039830652     0.167887461136     1.007825032230
         H           -3.376038448638     0.126986169348     0.487323461136     1.007825032230

  Basis Set: AUG-CC-PVTZ
    Blend: AUG-CC-PVTZ
  Basis Set: (AUG-CC-PVTZ AUX)
    Blend: AUG-CC-PVTZ-JKFIT
	 Reference Energy          =    -399.7635317478668071 [Eh]
	 Singles Energy            =      -0.0000000000000000 [Eh]
	 Same-Spin Energy          =      -0.4236311896214957 [Eh]
	 Opposite-Spin Energy      =      -1.3407599434185440 [Eh]
	 Correlation Energy        =      -1.7643911330400397 [Eh]
	 Total Energy              =    -401.5279228809068286 [Eh]

	 ================> DF-SCS-MP2 Energies <==================
	-----------------------------------------------------------
	 SCS Same-Spin Scale       =       0.3333333333333333 [-]
	 SCS Opposite-Spin Scale   =       1.2000000000000000 [-]
	 SCS Same-Spin Energy      =      -0.1412103965404986 [Eh]
	 SCS Opposite-Spin Energy  =      -1.6089119321022527 [Eh]
	 SCS Correlation Energy    =      -1.7501223286427512 [Eh]
	 SCS Total Energy          =    -401.5136540765095674 [Eh]
	-----------------------------------------------------------

  Dipole Moment: [D]
     X:    -0.7325      Y:    -3.6145      Z:     0.1590     Total:     3.6914

*** Psi4 exiting successfully. Buy a developer a beer!
