                               Psi4 1.4a3.dev225

  ==> Input File <==

--------------------------------------------------------------------------
#psi4
#
memory 32 gb

molecule  {
0 1
  O        0.6831730     1.9514370    -0.1851230
  N        0.3221270    -0.3206750    -0.2979720
  C        1.7580560    -0.4955670    -0.5492050
  C       -0.1081432     1.0242423    -0.1129895
  C       -0.4973450    -1.4105120    -0.1972350
  C        2.5603930    -0.4317450     0.7423750
  C       -1.5372540     1.1223260     0.1526570
  C       -1.8319680    -1.2780450     0.0712850
  C       -2.3551590     0.0280850     0.2487950
  H        1.8855710    -1.4559800    -1.0561060
  H        2.0595230     0.3051280    -1.2266110
  H       -0.0197130    -2.3738180    -0.3527730
  H        2.4186300     0.5432120     1.2108420
  H        2.2423160    -1.2153800     1.4354410
  H        3.6255180    -0.5665000     0.5315230
  H       -1.9126600     2.1320090     0.2855670
  H       -2.4591310    -2.1595270     0.1391440
  H       -3.4140320     0.1624990     0.4585800
units angstrom
no_reorient  #important for SAPT in psi4, default
symmetry c1  #important for SAPT in psi4, default
}

set PROPERTIES_ORIGIN ["COM"]
properties('MP2/aug-cc-pvtz', properties = ['dipole'])
--------------------------------------------------------------------------

    Molecular point group: c1
  Charge       = 0
  Multiplicity = 1
  Basis Set: AUG-CC-PVTZ
    Blend: AUG-CC-PVTZ
  Basis Set: (AUG-CC-PVTZ AUX)
    Blend: AUG-CC-PVTZ-JKFIT

    Orbital Energies [Eh]
    ---------------------

    Doubly Occupied:

       1A    -20.511416     2A    -15.622727     3A    -11.350904
       4A    -11.307492     5A    -11.272962     6A    -11.269090
       7A    -11.238133     8A    -11.236496     9A    -11.221067
      10A     -1.380086    11A     -1.279845    12A     -1.116848
      13A     -1.029942    14A     -1.015702    15A     -0.894016
      16A     -0.867789    17A     -0.823456    18A     -0.712897
      19A     -0.700129    20A     -0.667357    21A     -0.639306
      22A     -0.613333    23A     -0.609842    24A     -0.606189
      25A     -0.562054    26A     -0.538308    27A     -0.531498
      28A     -0.526537    29A     -0.505253    30A     -0.479430
      31A     -0.423192    32A     -0.406360    33A     -0.307509

  @DF-RHF Final Energy:  -399.77205020551747

   => Energetics <=

    Nuclear Repulsion Energy =            437.3968976354128699
    One-Electron Energy =               -1409.8035655070380017
    Two-Electron Energy =                 572.6346176661077152
    Total Energy =                       -399.7720502055174165
  Basis Set: (AUG-CC-PVTZ AUX)
    Blend: AUG-CC-PVTZ-RI
    Molecular point group: c1

    Geometry (in Angstrom), charge = 0, multiplicity = 1:

       Center              X                  Y                   Z               Mass
    ------------   -----------------  -----------------  -----------------  -----------------
         O            0.717611768447     1.912731130233    -0.173514837676    15.994914619570
         N            0.356565768447    -0.359380869767    -0.286363837676    14.003074004430
         C            1.792494768447    -0.534272869767    -0.537596837676    12.000000000000
         C           -0.073704431553     0.985536430233    -0.101381337676    12.000000000000
         C           -0.462906231553    -1.449217869767    -0.185626837676    12.000000000000
         C            2.594831768447    -0.470450869767     0.753983162324    12.000000000000
         C           -1.502815231553     1.083620130233     0.164265162324    12.000000000000
         C           -1.797529231553    -1.316750869767     0.082893162324    12.000000000000
         C           -2.320720231553    -0.010620869767     0.260403162324    12.000000000000
         H            1.920009768447    -1.494685869767    -1.044497837676     1.007825032230
         H            2.093961768447     0.266422130233    -1.215002837676     1.007825032230
         H            0.014725768447    -2.412523869767    -0.341164837676     1.007825032230
         H            2.453068768447     0.504506130233     1.222450162324     1.007825032230
         H            2.276754768447    -1.254085869767     1.447049162324     1.007825032230
         H            3.659956768447    -0.605205869767     0.543131162324     1.007825032230
         H           -1.878221231553     2.093303130233     0.297175162324     1.007825032230
         H           -2.424692231553    -2.198232869767     0.150752162324     1.007825032230
         H           -3.379593231553     0.123793130233     0.470188162324     1.007825032230

  Basis Set: AUG-CC-PVTZ
    Blend: AUG-CC-PVTZ
  Basis Set: (AUG-CC-PVTZ AUX)
    Blend: AUG-CC-PVTZ-JKFIT
	 Reference Energy          =    -399.7720502055174734 [Eh]
	 Singles Energy            =      -0.0000000000000000 [Eh]
	 Same-Spin Energy          =      -0.4230448531930813 [Eh]
	 Opposite-Spin Energy      =      -1.3392232509410034 [Eh]
	 Correlation Energy        =      -1.7622681041340846 [Eh]
	 Total Energy              =    -401.5343183096515531 [Eh]

	 ================> DF-SCS-MP2 Energies <==================
	-----------------------------------------------------------
	 SCS Same-Spin Scale       =       0.3333333333333333 [-]
	 SCS Opposite-Spin Scale   =       1.2000000000000000 [-]
	 SCS Same-Spin Energy      =      -0.1410149510643604 [Eh]
	 SCS Opposite-Spin Energy  =      -1.6070679011292039 [Eh]
	 SCS Correlation Energy    =      -1.7480828521935643 [Eh]
	 SCS Total Energy          =    -401.5201330577110639 [Eh]
	-----------------------------------------------------------

  Dipole Moment: [D]
     X:    -0.6580      Y:    -3.6603      Z:     0.0221     Total:     3.7190

*** Psi4 exiting successfully. Buy a developer a beer!
