                               Psi4 1.4a3.dev225

  ==> Input File <==

--------------------------------------------------------------------------
#psi4
#
memory 32 gb

molecule  {
0 1
  O        0.6831730     1.9514370    -0.1851230
  N        0.3221270    -0.3206750    -0.2979720
  C        1.7580560    -0.4955670    -0.5492050
  C       -0.1211040     1.0090560    -0.1118080
  C       -0.4973450    -1.4105120    -0.1972350
  C        2.5603930    -0.4317450     0.7423750
  C       -1.5372540     1.1223260     0.1526570
  C       -1.8514829    -1.2761081     0.0752113
  C       -2.3551590     0.0280850     0.2487950
  H        1.8855710    -1.4559800    -1.0561060
  H        2.0595230     0.3051280    -1.2266110
  H       -0.0197130    -2.3738180    -0.3527730
  H        2.4186300     0.5432120     1.2108420
  H        2.2423160    -1.2153800     1.4354410
  H        3.6255180    -0.5665000     0.5315230
  H       -1.9126600     2.1320090     0.2855670
  H       -2.4591310    -2.1595270     0.1391440
  H       -3.4140320     0.1624990     0.4585800
units angstrom
no_reorient  #important for SAPT in psi4, default
symmetry c1  #important for SAPT in psi4, default
}

set PROPERTIES_ORIGIN ["COM"]
properties('MP2/aug-cc-pvtz', properties = ['dipole'])
--------------------------------------------------------------------------

    Molecular point group: c1
  Charge       = 0
  Multiplicity = 1
  Basis Set: AUG-CC-PVTZ
    Blend: AUG-CC-PVTZ
  Basis Set: (AUG-CC-PVTZ AUX)
    Blend: AUG-CC-PVTZ-JKFIT

    Orbital Energies [Eh]
    ---------------------

    Doubly Occupied:

       1A    -20.505574     2A    -15.627699     3A    -11.349483
       4A    -11.312818     5A    -11.274593     6A    -11.269452
       7A    -11.240839     8A    -11.235929     9A    -11.221689
      10A     -1.368929    11A     -1.278612    12A     -1.119039
      13A     -1.030458    14A     -1.017572    15A     -0.896209
      16A     -0.871692    17A     -0.824354    18A     -0.714742
      19A     -0.700367    20A     -0.667823    21A     -0.641012
      22A     -0.613666    23A     -0.608561    24A     -0.604356
      25A     -0.559816    26A     -0.541343    27A     -0.529597
      28A     -0.525589    29A     -0.506037    30A     -0.473980
      31A     -0.420702    32A     -0.408774    33A     -0.306304

  @DF-RHF Final Energy:  -399.77021935174582

   => Energetics <=

    Nuclear Repulsion Energy =            437.1834693906969278
    One-Electron Energy =               -1409.3721542148182380
    Two-Electron Energy =                 572.4184654723754875
    Total Energy =                       -399.7702193517458227
  Basis Set: (AUG-CC-PVTZ AUX)
    Blend: AUG-CC-PVTZ-RI
    Molecular point group: c1

    Geometry (in Angstrom), charge = 0, multiplicity = 1:

       Center              X                  Y                   Z               Mass
    ------------   -----------------  -----------------  -----------------  -----------------
         O            0.720778368126     1.914023036051    -0.174012882610    15.994914619570
         N            0.359732368126    -0.358088963949    -0.286861882610    14.003074004430
         C            1.795661368126    -0.532980963949    -0.538094882610    12.000000000000
         C           -0.083498631874     0.971642036051    -0.100697882610    12.000000000000
         C           -0.459739631874    -1.447925963949    -0.186124882610    12.000000000000
         C            2.597998368126    -0.469158963949     0.753485117390    12.000000000000
         C           -1.499648631874     1.084912036051     0.163767117390    12.000000000000
         C           -1.813877531874    -1.313522063949     0.086321417390    12.000000000000
         C           -2.317553631874    -0.009328963949     0.259905117390    12.000000000000
         H            1.923176368126    -1.493393963949    -1.044995882610     1.007825032230
         H            2.097128368126     0.267714036051    -1.215500882610     1.007825032230
         H            0.017892368126    -2.411231963949    -0.341662882610     1.007825032230
         H            2.456235368126     0.505798036051     1.221952117390     1.007825032230
         H            2.279921368126    -1.252793963949     1.446551117390     1.007825032230
         H            3.663123368126    -0.603913963949     0.542633117390     1.007825032230
         H           -1.875054631874     2.094595036051     0.296677117390     1.007825032230
         H           -2.421525631874    -2.196940963949     0.150254117390     1.007825032230
         H           -3.376426631874     0.125085036051     0.469690117390     1.007825032230

  Basis Set: AUG-CC-PVTZ
    Blend: AUG-CC-PVTZ
  Basis Set: (AUG-CC-PVTZ AUX)
    Blend: AUG-CC-PVTZ-JKFIT
	 Reference Energy          =    -399.7702193517458227 [Eh]
	 Singles Energy            =      -0.0000000000000000 [Eh]
	 Same-Spin Energy          =      -0.4238273962168236 [Eh]
	 Opposite-Spin Energy      =      -1.3402385158443888 [Eh]
	 Correlation Energy        =      -1.7640659120612123 [Eh]
	 Total Energy              =    -401.5342852638070212 [Eh]

	 ================> DF-SCS-MP2 Energies <==================
	-----------------------------------------------------------
	 SCS Same-Spin Scale       =       0.3333333333333333 [-]
	 SCS Opposite-Spin Scale   =       1.2000000000000000 [-]
	 SCS Same-Spin Energy      =      -0.1412757987389412 [Eh]
	 SCS Opposite-Spin Energy  =      -1.6082862190132665 [Eh]
	 SCS Correlation Energy    =      -1.7495620177522078 [Eh]
	 SCS Total Energy          =    -401.5197813694980482 [Eh]
	-----------------------------------------------------------

  Dipole Moment: [D]
     X:    -0.7251      Y:    -3.8409      Z:     0.0269     Total:     3.9088

*** Psi4 exiting successfully. Buy a developer a beer!
