                               Psi4 1.3.2 release

  ==> Input File <==

--------------------------------------------------------------------------
#psi4
#
memory 32 gb

molecule  {
0 1
  O        0.6831730     1.9514370    -0.1851230
  N        0.3221270    -0.3206750    -0.2979720
  C        1.7580560    -0.4955670    -0.5492050
  C       -0.0751230     1.0246952    -0.1205830
  C       -0.4973450    -1.4105120    -0.1972350
  C        2.5603930    -0.4317450     0.7423750
  C       -1.5372540     1.1223260     0.1526570
  C       -1.8319680    -1.2780450     0.0712850
  C       -2.3551590     0.0280850     0.2487950
  H        1.8855710    -1.4559800    -1.0561060
  H        2.0595230     0.3051280    -1.2266110
  H       -0.0197130    -2.3738180    -0.3527730
  H        2.4186300     0.5432120     1.2108420
  H        2.2423160    -1.2153800     1.4354410
  H        3.6255180    -0.5665000     0.5315230
  H       -1.9126600     2.1320090     0.2855670
  H       -2.4591310    -2.1595270     0.1391440
  H       -3.4140320     0.1624990     0.4585800
units angstrom
no_reorient  #important for SAPT in psi4, default
symmetry c1  #important for SAPT in psi4, default
}

set PROPERTIES_ORIGIN ["COM"]
properties('MP2/aug-cc-pvtz', properties = ['dipole'])
--------------------------------------------------------------------------

    Molecular point group: c1
  Charge       = 0
  Multiplicity = 1
  Basis Set: AUG-CC-PVTZ
    Blend: AUG-CC-PVTZ
  Basis Set: (AUG-CC-PVTZ AUX)
    Blend: AUG-CC-PVTZ-JKFIT

    Orbital Energies [Eh]
    ---------------------

    Doubly Occupied:

       1A    -20.516500     2A    -15.620761     3A    -11.351558
       4A    -11.305498     5A    -11.272758     6A    -11.265086
       7A    -11.237258     8A    -11.236873     9A    -11.221616
      10A     -1.395046    11A     -1.283912    12A     -1.113871
      13A     -1.027758    14A     -1.014067    15A     -0.891330
      16A     -0.869353    17A     -0.819655    18A     -0.712521
      19A     -0.699202    20A     -0.667949    21A     -0.640636
      22A     -0.615243    23A     -0.613446    24A     -0.604831
      25A     -0.562951    26A     -0.539069    27A     -0.533586
      28A     -0.527880    29A     -0.505795    30A     -0.483512
      31A     -0.423038    32A     -0.405360    33A     -0.306007

  @DF-RHF Final Energy:  -399.77095372095101

   => Energetics <=

    Nuclear Repulsion Energy =            437.5762203168704900
    One-Electron Energy =               -1410.1264972844978729
    Two-Electron Energy =                 572.7793232466763129
    Total Energy =                       -399.7709537209510700
  Basis Set: (AUG-CC-PVTZ AUX)
    Blend: AUG-CC-PVTZ-RI
    Molecular point group: c1

    Geometry (in Angstrom), charge = 0, multiplicity = 1:

       Center              X                  Y                   Z               Mass
    ------------   -----------------  -----------------  -----------------  -----------------
         O            0.714392076348     1.912686969430    -0.172774420236    15.994914619570
         N            0.353346076348    -0.359425030570    -0.285623420236    14.003074004430
         C            1.789275076348    -0.534317030570    -0.536856420236    12.000000000000
         C           -0.043903923652     0.985945169430    -0.108234420236    12.000000000000
         C           -0.466125923652    -1.449262030570    -0.184886420236    12.000000000000
         C            2.591612076348    -0.470495030570     0.754723579764    12.000000000000
         C           -1.506034923652     1.083575969430     0.165005579764    12.000000000000
         C           -1.800748923652    -1.316795030570     0.083633579764    12.000000000000
         C           -2.323939923652    -0.010665030570     0.261143579764    12.000000000000
         H            1.916790076348    -1.494730030570    -1.043757420236     1.007825032230
         H            2.090742076348     0.266377969430    -1.214262420236     1.007825032230
         H            0.011506076348    -2.412568030570    -0.340424420236     1.007825032230
         H            2.449849076348     0.504461969430     1.223190579764     1.007825032230
         H            2.273535076348    -1.254130030570     1.447789579764     1.007825032230
         H            3.656737076348    -0.605250030570     0.543871579764     1.007825032230
         H           -1.881440923652     2.093258969430     0.297915579764     1.007825032230
         H           -2.427911923652    -2.198277030570     0.151492579764     1.007825032230
         H           -3.382812923652     0.123748969430     0.470928579764     1.007825032230

  Basis Set: AUG-CC-PVTZ
    Blend: AUG-CC-PVTZ
  Basis Set: (AUG-CC-PVTZ AUX)
    Blend: AUG-CC-PVTZ-JKFIT
	 Reference Energy          =    -399.7709537209510131 [Eh]
	 Singles Energy            =      -0.0000000000000000 [Eh]
	 Same-Spin Energy          =      -0.4222402893715098 [Eh]
	 Opposite-Spin Energy      =      -1.3382642355947492 [Eh]
	 Correlation Energy        =      -1.7605045249662590 [Eh]
	 Total Energy              =    -401.5314582459172925 [Eh]

	 ================> DF-SCS-MP2 Energies <==================
	-----------------------------------------------------------
	 SCS Same-Spin Scale       =       0.3333333333333333 [-]
	 SCS Opposite-Spin Scale   =       1.2000000000000000 [-]
	 SCS Same-Spin Energy      =      -0.1407467631238366 [Eh]
	 SCS Opposite-Spin Energy  =      -1.6059170827136990 [Eh]
	 SCS Correlation Energy    =      -1.7466638458375356 [Eh]
	 SCS Total Energy          =    -401.5176175667885445 [Eh]
	-----------------------------------------------------------

  Dipole Moment: [D]
     X:    -0.5098      Y:    -3.5294      Z:     0.0023     Total:     3.5660

*** Psi4 exiting successfully. Buy a developer a beer!
