                               Psi4 1.3.2 release

  ==> Input File <==

--------------------------------------------------------------------------
#psi4
#
memory 32 gb

molecule  {
0 1
  O        0.6831730     1.9514370    -0.1851230
  N        0.3221270    -0.3206750    -0.2979720
  C        1.7691267    -0.3423298    -0.5456013
  C       -0.1211040     1.0090560    -0.1118080
  C       -0.4973450    -1.4105120    -0.1972350
  C        2.5603930    -0.4317450     0.7423750
  C       -1.5372540     1.1223260     0.1526570
  C       -1.8319680    -1.2780450     0.0712850
  C       -2.3551590     0.0280850     0.2487950
  H        1.8855710    -1.4559800    -1.0561060
  H        2.0595230     0.3051280    -1.2266110
  H       -0.0197130    -2.3738180    -0.3527730
  H        2.4186300     0.5432120     1.2108420
  H        2.2423160    -1.2153800     1.4354410
  H        3.6255180    -0.5665000     0.5315230
  H       -1.9126600     2.1320090     0.2855670
  H       -2.4591310    -2.1595270     0.1391440
  H       -3.4140320     0.1624990     0.4585800
units angstrom
no_reorient  #important for SAPT in psi4, default
symmetry c1  #important for SAPT in psi4, default
}

set PROPERTIES_ORIGIN ["COM"]
properties('MP2/aug-cc-pvtz', properties = ['dipole'])
--------------------------------------------------------------------------

    Molecular point group: c1
  Charge       = 0
  Multiplicity = 1
  Basis Set: AUG-CC-PVTZ
    Blend: AUG-CC-PVTZ
  Basis Set: (AUG-CC-PVTZ AUX)
    Blend: AUG-CC-PVTZ-JKFIT

    Orbital Energies [Eh]
    ---------------------

    Doubly Occupied:

       1A    -20.507669     2A    -15.626606     3A    -11.349066
       4A    -11.311456     5A    -11.279222     6A    -11.271201
       7A    -11.241806     8A    -11.237025     9A    -11.222568
      10A     -1.372199    11A     -1.277920    12A     -1.120650
      13A     -1.034827    14A     -1.018630    15A     -0.900157
      16A     -0.865183    17A     -0.830259    18A     -0.720010
      19A     -0.702522    20A     -0.668966    21A     -0.645346
      22A     -0.619719    23A     -0.607561    24A     -0.593412
      25A     -0.561955    26A     -0.544883    27A     -0.539246
      28A     -0.527781    29A     -0.491463    30A     -0.463963
      31A     -0.422431    32A     -0.408437    33A     -0.310057

  @DF-RHF Final Energy:  -399.74352089728347

   => Energetics <=

    Nuclear Repulsion Energy =            438.0338335433134489
    One-Electron Energy =               -1410.9663217224738219
    Two-Electron Energy =                 573.1889672818768986
    Total Energy =                       -399.7435208972834744
  Basis Set: (AUG-CC-PVTZ AUX)
    Blend: AUG-CC-PVTZ-RI
    Molecular point group: c1

    Geometry (in Angstrom), charge = 0, multiplicity = 1:

       Center              X                  Y                   Z               Mass
    ------------   -----------------  -----------------  -----------------  -----------------
         O            0.717796065939     1.899270236838    -0.173981426935    15.994914619570
         N            0.356750065939    -0.372841763162    -0.286830426935    14.003074004430
         C            1.803749765939    -0.394496563162    -0.534459726935    12.000000000000
         C           -0.086480934061     0.956889236838    -0.100666426935    12.000000000000
         C           -0.462721934061    -1.462678763162    -0.186093426935    12.000000000000
         C            2.595016065939    -0.483911763162     0.753516573065    12.000000000000
         C           -1.502630934061     1.070159236838     0.163798573065    12.000000000000
         C           -1.797344934061    -1.330211763162     0.082426573065    12.000000000000
         C           -2.320535934061    -0.024081763162     0.259936573065    12.000000000000
         H            1.920194065939    -1.508146763162    -1.044964426935     1.007825032230
         H            2.094146065939     0.252961236838    -1.215469426935     1.007825032230
         H            0.014910065939    -2.425984763162    -0.341631426935     1.007825032230
         H            2.453253065939     0.491045236838     1.221983573065     1.007825032230
         H            2.276939065939    -1.267546763162     1.446582573065     1.007825032230
         H            3.660141065939    -0.618666763162     0.542664573065     1.007825032230
         H           -1.878036934061     2.079842236838     0.296708573065     1.007825032230
         H           -2.424507934061    -2.211693763162     0.150285573065     1.007825032230
         H           -3.379408934061     0.110332236838     0.469721573065     1.007825032230

  Basis Set: AUG-CC-PVTZ
    Blend: AUG-CC-PVTZ
  Basis Set: (AUG-CC-PVTZ AUX)
    Blend: AUG-CC-PVTZ-JKFIT
	 Reference Energy          =    -399.7435208972834744 [Eh]
	 Singles Energy            =      -0.0000000000000000 [Eh]
	 Same-Spin Energy          =      -0.4239580210069510 [Eh]
	 Opposite-Spin Energy      =      -1.3414517705804307 [Eh]
	 Correlation Energy        =      -1.7654097915873819 [Eh]
	 Total Energy              =    -401.5089306888708620 [Eh]

	 ================> DF-SCS-MP2 Energies <==================
	-----------------------------------------------------------
	 SCS Same-Spin Scale       =       0.3333333333333333 [-]
	 SCS Opposite-Spin Scale   =       1.2000000000000000 [-]
	 SCS Same-Spin Energy      =      -0.1413193403356503 [Eh]
	 SCS Opposite-Spin Energy  =      -1.6097421246965169 [Eh]
	 SCS Correlation Energy    =      -1.7510614650321672 [Eh]
	 SCS Total Energy          =    -401.4945823623156684 [Eh]
	-----------------------------------------------------------

  Dipole Moment: [D]
     X:    -0.8211      Y:    -3.6644      Z:     0.1045     Total:     3.7567

*** Psi4 exiting successfully. Buy a developer a beer!
