                               Psi4 1.3.2 release

  ==> Input File <==

--------------------------------------------------------------------------
#psi4
#
memory 32 gb

molecule  {
0 1
  O        0.6170888     2.0051027    -0.1690870
  N        0.3221270    -0.3206750    -0.2979720
  C        1.7580560    -0.4955670    -0.5492050
  C       -0.1211040     1.0090560    -0.1118080
  C       -0.4973450    -1.4105120    -0.1972350
  C        2.5603930    -0.4317450     0.7423750
  C       -1.5372540     1.1223260     0.1526570
  C       -1.8319680    -1.2780450     0.0712850
  C       -2.3551590     0.0280850     0.2487950
  H        1.8855710    -1.4559800    -1.0561060
  H        2.0595230     0.3051280    -1.2266110
  H       -0.0197130    -2.3738180    -0.3527730
  H        2.4186300     0.5432120     1.2108420
  H        2.2423160    -1.2153800     1.4354410
  H        3.6255180    -0.5665000     0.5315230
  H       -1.9126600     2.1320090     0.2855670
  H       -2.4591310    -2.1595270     0.1391440
  H       -3.4140320     0.1624990     0.4585800
units angstrom
no_reorient  #important for SAPT in psi4, default
symmetry c1  #important for SAPT in psi4, default
}

set PROPERTIES_ORIGIN ["COM"]
properties('MP2/aug-cc-pvtz', properties = ['dipole'])
--------------------------------------------------------------------------

    Molecular point group: c1
  Charge       = 0
  Multiplicity = 1
  Basis Set: AUG-CC-PVTZ
    Blend: AUG-CC-PVTZ
  Basis Set: (AUG-CC-PVTZ AUX)
    Blend: AUG-CC-PVTZ-JKFIT

    Orbital Energies [Eh]
    ---------------------

    Doubly Occupied:

       1A    -20.507422     2A    -15.627708     3A    -11.349930
       4A    -11.308630     5A    -11.276155     6A    -11.267851
       7A    -11.240394     8A    -11.234943     9A    -11.223024
      10A     -1.367569    11A     -1.281757    12A     -1.118466
      13A     -1.031547    14A     -1.018421    15A     -0.895743
      16A     -0.871489    17A     -0.824972    18A     -0.714431
      19A     -0.699885    20A     -0.667426    21A     -0.640266
      22A     -0.614361    23A     -0.610091    24A     -0.604270
      25A     -0.560507    26A     -0.538965    27A     -0.530692
      28A     -0.526543    29A     -0.507571    30A     -0.475751
      31A     -0.420312    32A     -0.407802    33A     -0.308001

  @DF-RHF Final Energy:  -399.77034297852543

   => Energetics <=

    Nuclear Repulsion Energy =            436.8171062511801779
    One-Electron Energy =               -1408.6291034669686724
    Two-Electron Energy =                 572.0416542372631739
    Total Energy =                       -399.7703429785253775
  Basis Set: (AUG-CC-PVTZ AUX)
    Blend: AUG-CC-PVTZ-RI
    Molecular point group: c1

    Geometry (in Angstrom), charge = 0, multiplicity = 1:

       Center              X                  Y                   Z               Mass
    ------------   -----------------  -----------------  -----------------  -----------------
         O            0.661380143110     1.960902791040    -0.159678203397    15.994914619570
         N            0.366418343110    -0.364874908960    -0.288563203397    14.003074004430
         C            1.802347343110    -0.539766908960    -0.539796203397    12.000000000000
         C           -0.076812656890     0.964856091040    -0.102399203397    12.000000000000
         C           -0.453053656890    -1.454711908960    -0.187826203397    12.000000000000
         C            2.604684343110    -0.475944908960     0.751783796603    12.000000000000
         C           -1.492962656890     1.078126091040     0.162065796603    12.000000000000
         C           -1.787676656890    -1.322244908960     0.080693796603    12.000000000000
         C           -2.310867656890    -0.016114908960     0.258203796603    12.000000000000
         H            1.929862343110    -1.500179908960    -1.046697203397     1.007825032230
         H            2.103814343110     0.260928091040    -1.217202203397     1.007825032230
         H            0.024578343110    -2.418017908960    -0.343364203397     1.007825032230
         H            2.462921343110     0.499012091040     1.220250796603     1.007825032230
         H            2.286607343110    -1.259579908960     1.444849796603     1.007825032230
         H            3.669809343110    -0.610699908960     0.540931796603     1.007825032230
         H           -1.868368656890     2.087809091040     0.294975796603     1.007825032230
         H           -2.414839656890    -2.203726908960     0.148552796603     1.007825032230
         H           -3.369740656890     0.118299091040     0.467988796603     1.007825032230

  Basis Set: AUG-CC-PVTZ
    Blend: AUG-CC-PVTZ
  Basis Set: (AUG-CC-PVTZ AUX)
    Blend: AUG-CC-PVTZ-JKFIT
	 Reference Energy          =    -399.7703429785254343 [Eh]
	 Singles Energy            =      -0.0000000000000000 [Eh]
	 Same-Spin Energy          =      -0.4232311376060593 [Eh]
	 Opposite-Spin Energy      =      -1.3398907067603154 [Eh]
	 Correlation Energy        =      -1.7631218443663748 [Eh]
	 Total Energy              =    -401.5334648228918013 [Eh]

	 ================> DF-SCS-MP2 Energies <==================
	-----------------------------------------------------------
	 SCS Same-Spin Scale       =       0.3333333333333333 [-]
	 SCS Opposite-Spin Scale   =       1.2000000000000000 [-]
	 SCS Same-Spin Energy      =      -0.1410770458686864 [Eh]
	 SCS Opposite-Spin Energy  =      -1.6078688481123784 [Eh]
	 SCS Correlation Energy    =      -1.7489458939810649 [Eh]
	 SCS Total Energy          =    -401.5192888725064790 [Eh]
	-----------------------------------------------------------

  Dipole Moment: [D]
     X:    -0.6005      Y:    -3.9074      Z:     0.0066     Total:     3.9533

*** Psi4 exiting successfully. Buy a developer a beer!
