                               Psi4 1.4a3.dev225

  ==> Input File <==

--------------------------------------------------------------------------
#psi4
#
memory 32 gb

molecule  {
0 1
  O        0.6831730     1.9514370    -0.1851230
  N        0.3221270    -0.3206750    -0.2979720
  C        1.7580560    -0.4955670    -0.5492050
  C       -0.0887021     1.0470217    -0.1147616
  C       -0.4973450    -1.4105120    -0.1972350
  C        2.5603930    -0.4317450     0.7423750
  C       -1.5372540     1.1223260     0.1526570
  C       -1.8319680    -1.2780450     0.0712850
  C       -2.3551590     0.0280850     0.2487950
  H        1.8855710    -1.4559800    -1.0561060
  H        2.0595230     0.3051280    -1.2266110
  H       -0.0197130    -2.3738180    -0.3527730
  H        2.4186300     0.5432120     1.2108420
  H        2.2423160    -1.2153800     1.4354410
  H        3.6255180    -0.5665000     0.5315230
  H       -1.9126600     2.1320090     0.2855670
  H       -2.4591310    -2.1595270     0.1391440
  H       -3.4140320     0.1624990     0.4585800
units angstrom
no_reorient  #important for SAPT in psi4, default
symmetry c1  #important for SAPT in psi4, default
}

set PROPERTIES_ORIGIN ["COM"]
properties('MP2/aug-cc-pvtz', properties = ['dipole'])
--------------------------------------------------------------------------

    Molecular point group: c1
  Charge       = 0
  Multiplicity = 1
  Basis Set: AUG-CC-PVTZ
    Blend: AUG-CC-PVTZ
  Basis Set: (AUG-CC-PVTZ AUX)
    Blend: AUG-CC-PVTZ-JKFIT

    Orbital Energies [Eh]
    ---------------------

    Doubly Occupied:

       1A    -20.519270     2A    -15.618478     3A    -11.352225
       4A    -11.305443     5A    -11.271697     6A    -11.266828
       7A    -11.235583     8A    -11.235097     9A    -11.220980
      10A     -1.400156    11A     -1.279747    12A     -1.113534
      13A     -1.027884    14A     -1.012043    15A     -0.891599
      16A     -0.863955    17A     -0.821305    18A     -0.710864
      19A     -0.700158    20A     -0.668310    21A     -0.639126
      22A     -0.617161    23A     -0.612010    24A     -0.604260
      25A     -0.564033    26A     -0.539030    27A     -0.534359
      28A     -0.528065    29A     -0.504810    30A     -0.484991
      31A     -0.424792    32A     -0.404181    33A     -0.305435

  @DF-RHF Final Energy:  -399.77031349543023

   => Energetics <=

    Nuclear Repulsion Energy =            437.3620483477571383
    One-Electron Energy =               -1409.7099010163565254
    Two-Electron Energy =                 572.5775391731692707
    Total Energy =                       -399.7703134954301731
  Basis Set: (AUG-CC-PVTZ AUX)
    Blend: AUG-CC-PVTZ-RI
    Molecular point group: c1

    Geometry (in Angstrom), charge = 0, multiplicity = 1:

       Center              X                  Y                   Z               Mass
    ------------   -----------------  -----------------  -----------------  -----------------
         O            0.715716130139     1.910509985170    -0.173342045980    15.994914619570
         N            0.354670130139    -0.361602014830    -0.286191045980    14.003074004430
         C            1.790599130139    -0.536494014830    -0.537424045980    12.000000000000
         C           -0.056158969861     1.006094685170    -0.102980645980    12.000000000000
         C           -0.464801869861    -1.451439014830    -0.185454045980    12.000000000000
         C            2.592936130139    -0.472672014830     0.754155954020    12.000000000000
         C           -1.504710869861     1.081398985170     0.164437954020    12.000000000000
         C           -1.799424869861    -1.318972014830     0.083065954020    12.000000000000
         C           -2.322615869861    -0.012842014830     0.260575954020    12.000000000000
         H            1.918114130139    -1.496907014830    -1.044325045980     1.007825032230
         H            2.092066130139     0.264200985170    -1.214830045980     1.007825032230
         H            0.012830130139    -2.414745014830    -0.340992045980     1.007825032230
         H            2.451173130139     0.502284985170     1.222622954020     1.007825032230
         H            2.274859130139    -1.256307014830     1.447221954020     1.007825032230
         H            3.658061130139    -0.607427014830     0.543303954020     1.007825032230
         H           -1.880116869861     2.091081985170     0.297347954020     1.007825032230
         H           -2.426587869861    -2.200454014830     0.150924954020     1.007825032230
         H           -3.381488869861     0.121571985170     0.470360954020     1.007825032230

  Basis Set: AUG-CC-PVTZ
    Blend: AUG-CC-PVTZ
  Basis Set: (AUG-CC-PVTZ AUX)
    Blend: AUG-CC-PVTZ-JKFIT
	 Reference Energy          =    -399.7703134954302300 [Eh]
	 Singles Energy            =      -0.0000000000000000 [Eh]
	 Same-Spin Energy          =      -0.4224338862653526 [Eh]
	 Opposite-Spin Energy      =      -1.3383068882815143 [Eh]
	 Correlation Energy        =      -1.7607407745468668 [Eh]
	 Total Energy              =    -401.5310542699771190 [Eh]

	 ================> DF-SCS-MP2 Energies <==================
	-----------------------------------------------------------
	 SCS Same-Spin Scale       =       0.3333333333333333 [-]
	 SCS Opposite-Spin Scale   =       1.2000000000000000 [-]
	 SCS Same-Spin Energy      =      -0.1408112954217842 [Eh]
	 SCS Opposite-Spin Energy  =      -1.6059682659378172 [Eh]
	 SCS Correlation Energy    =      -1.7467795613596013 [Eh]
	 SCS Total Energy          =    -401.5170930567898040 [Eh]
	-----------------------------------------------------------

  Dipole Moment: [D]
     X:    -0.5013      Y:    -3.4221      Z:     0.0068     Total:     3.4587

*** Psi4 exiting successfully. Buy a developer a beer!
