                               Psi4 1.3.2 release

  ==> Input File <==

--------------------------------------------------------------------------
#psi4
#
memory 32 gb

molecule  {
0 1
  O        0.6831730     1.9514370    -0.1851230
  N        0.3221270    -0.3206750    -0.2979720
  C        1.7671956    -0.3935184    -0.5471065
  C       -0.1211040     1.0090560    -0.1118080
  C       -0.4973450    -1.4105120    -0.1972350
  C        2.5603930    -0.4317450     0.7423750
  C       -1.5372540     1.1223260     0.1526570
  C       -1.8319680    -1.2780450     0.0712850
  C       -2.3551590     0.0280850     0.2487950
  H        1.8855710    -1.4559800    -1.0561060
  H        2.0595230     0.3051280    -1.2266110
  H       -0.0197130    -2.3738180    -0.3527730
  H        2.4186300     0.5432120     1.2108420
  H        2.2423160    -1.2153800     1.4354410
  H        3.6255180    -0.5665000     0.5315230
  H       -1.9126600     2.1320090     0.2855670
  H       -2.4591310    -2.1595270     0.1391440
  H       -3.4140320     0.1624990     0.4585800
units angstrom
no_reorient  #important for SAPT in psi4, default
symmetry c1  #important for SAPT in psi4, default
}

set PROPERTIES_ORIGIN ["COM"]
properties('MP2/aug-cc-pvtz', properties = ['dipole'])
--------------------------------------------------------------------------

    Molecular point group: c1
  Charge       = 0
  Multiplicity = 1
  Basis Set: AUG-CC-PVTZ
    Blend: AUG-CC-PVTZ
  Basis Set: (AUG-CC-PVTZ AUX)
    Blend: AUG-CC-PVTZ-JKFIT

    Orbital Energies [Eh]
    ---------------------

    Doubly Occupied:

       1A    -20.506937     2A    -15.625869     3A    -11.349104
       4A    -11.310475     5A    -11.276647     6A    -11.270890
       7A    -11.241146     8A    -11.236910     9A    -11.221600
      10A     -1.370821    11A     -1.277803    12A     -1.119998
      13A     -1.033635    14A     -1.018319    15A     -0.898224
      16A     -0.866586    17A     -0.827661    18A     -0.716339
      19A     -0.702459    20A     -0.667108    21A     -0.643996
      22A     -0.617740    23A     -0.606941    24A     -0.598239
      25A     -0.561331    26A     -0.540879    27A     -0.534394
      28A     -0.528153    29A     -0.497620    30A     -0.470254
      31A     -0.421758    32A     -0.408692    33A     -0.309505

  @DF-RHF Final Energy:  -399.75882941855383

   => Energetics <=

    Nuclear Repulsion Energy =            437.8266905416080590
    One-Electron Energy =               -1410.6149762763102444
    Two-Electron Energy =                 573.0294563161484120
    Total Energy =                       -399.7588294185537734
  Basis Set: (AUG-CC-PVTZ AUX)
    Blend: AUG-CC-PVTZ-RI
    Molecular point group: c1

    Geometry (in Angstrom), charge = 0, multiplicity = 1:

       Center              X                  Y                   Z               Mass
    ------------   -----------------  -----------------  -----------------  -----------------
         O            0.717984361207     1.904261470416    -0.173834659788    15.994914619570
         N            0.356938361207    -0.367850529584    -0.286683659788    14.003074004430
         C            1.802006961207    -0.440693929584    -0.535818159788    12.000000000000
         C           -0.086292638793     0.961880470416    -0.100519659788    12.000000000000
         C           -0.462533638793    -1.457687529584    -0.185946659788    12.000000000000
         C            2.595204361207    -0.478920529584     0.753663340212    12.000000000000
         C           -1.502442638793     1.075150470416     0.163945340212    12.000000000000
         C           -1.797156638793    -1.325220529584     0.082573340212    12.000000000000
         C           -2.320347638793    -0.019090529584     0.260083340212    12.000000000000
         H            1.920382361207    -1.503155529584    -1.044817659788     1.007825032230
         H            2.094334361207     0.257952470416    -1.215322659788     1.007825032230
         H            0.015098361207    -2.420993529584    -0.341484659788     1.007825032230
         H            2.453441361207     0.496036470416     1.222130340212     1.007825032230
         H            2.277127361207    -1.262555529584     1.446729340212     1.007825032230
         H            3.660329361207    -0.613675529584     0.542811340212     1.007825032230
         H           -1.877848638793     2.084833470416     0.296855340212     1.007825032230
         H           -2.424319638793    -2.206702529584     0.150432340212     1.007825032230
         H           -3.379220638793     0.115323470416     0.469868340212     1.007825032230

  Basis Set: AUG-CC-PVTZ
    Blend: AUG-CC-PVTZ
  Basis Set: (AUG-CC-PVTZ AUX)
    Blend: AUG-CC-PVTZ-JKFIT
	 Reference Energy          =    -399.7588294185538302 [Eh]
	 Singles Energy            =      -0.0000000000000000 [Eh]
	 Same-Spin Energy          =      -0.4236584181793457 [Eh]
	 Opposite-Spin Energy      =      -1.3405484784057462 [Eh]
	 Correlation Energy        =      -1.7642068965850919 [Eh]
	 Total Energy              =    -401.5230363151389383 [Eh]

	 ================> DF-SCS-MP2 Energies <==================
	-----------------------------------------------------------
	 SCS Same-Spin Scale       =       0.3333333333333333 [-]
	 SCS Opposite-Spin Scale   =       1.2000000000000000 [-]
	 SCS Same-Spin Energy      =      -0.1412194727264486 [Eh]
	 SCS Opposite-Spin Energy  =      -1.6086581740868955 [Eh]
	 SCS Correlation Energy    =      -1.7498776468133441 [Eh]
	 SCS Total Energy          =    -401.5087070653671617 [Eh]
	-----------------------------------------------------------

  Dipole Moment: [D]
     X:    -0.7887      Y:    -3.7223      Z:     0.0710     Total:     3.8056

*** Psi4 exiting successfully. Buy a developer a beer!
