                               Psi4 1.3.2 release

  ==> Input File <==

--------------------------------------------------------------------------
#psi4
#
memory 32 gb

molecule  {
0 1
  O        0.6831730     1.9514370    -0.1851230
  N        0.3069384    -0.3305043    -0.3988410
  C        1.7580560    -0.4955670    -0.5492050
  C       -0.1211040     1.0090560    -0.1118080
  C       -0.4973450    -1.4105120    -0.1972350
  C        2.5603930    -0.4317450     0.7423750
  C       -1.5372540     1.1223260     0.1526570
  C       -1.8319680    -1.2780450     0.0712850
  C       -2.3551590     0.0280850     0.2487950
  H        1.8855710    -1.4559800    -1.0561060
  H        2.0595230     0.3051280    -1.2266110
  H       -0.0197130    -2.3738180    -0.3527730
  H        2.4186300     0.5432120     1.2108420
  H        2.2423160    -1.2153800     1.4354410
  H        3.6255180    -0.5665000     0.5315230
  H       -1.9126600     2.1320090     0.2855670
  H       -2.4591310    -2.1595270     0.1391440
  H       -3.4140320     0.1624990     0.4585800
units angstrom
no_reorient  #important for SAPT in psi4, default
symmetry c1  #important for SAPT in psi4, default
}

set PROPERTIES_ORIGIN ["COM"]
properties('MP2/aug-cc-pvtz', properties = ['dipole'])
--------------------------------------------------------------------------

    Molecular point group: c1
  Charge       = 0
  Multiplicity = 1
  Basis Set: AUG-CC-PVTZ
    Blend: AUG-CC-PVTZ
  Basis Set: (AUG-CC-PVTZ AUX)
    Blend: AUG-CC-PVTZ-JKFIT

    Orbital Energies [Eh]
    ---------------------

    Doubly Occupied:

       1A    -20.510153     2A    -15.625037     3A    -11.352621
       4A    -11.307966     5A    -11.273070     6A    -11.271304
       7A    -11.239030     8A    -11.236740     9A    -11.222959
      10A     -1.368769    11A     -1.278589    12A     -1.118580
      13A     -1.031765    14A     -1.015686    15A     -0.897877
      16A     -0.866581    17A     -0.825497    18A     -0.711582
      19A     -0.699798    20A     -0.664249    21A     -0.640683
      22A     -0.614337    23A     -0.607430    24A     -0.604401
      25A     -0.561304    26A     -0.539845    27A     -0.534285
      28A     -0.522601    29A     -0.504242    30A     -0.476638
      31A     -0.422916    32A     -0.408207    33A     -0.308126

  @DF-RHF Final Energy:  -399.76780488342251

   => Energetics <=

    Nuclear Repulsion Energy =            436.8463820712899519
    One-Electron Energy =               -1408.7026360647948877
    Two-Electron Energy =                 572.0884491100823652
    Total Energy =                       -399.7678048834225137
  Basis Set: (AUG-CC-PVTZ AUX)
    Blend: AUG-CC-PVTZ-RI
    Molecular point group: c1

    Geometry (in Angstrom), charge = 0, multiplicity = 1:

       Center              X                  Y                   Z               Mass
    ------------   -----------------  -----------------  -----------------  -----------------
         O            0.720603735908     1.915330302556    -0.162152880312    15.994914619570
         N            0.344369135908    -0.366610997444    -0.375870880312    14.003074004430
         C            1.795486735908    -0.531673697444    -0.526234880312    12.000000000000
         C           -0.083673264092     0.972949302556    -0.088837880312    12.000000000000
         C           -0.459914264092    -1.446618697444    -0.174264880312    12.000000000000
         C            2.597823735908    -0.467851697444     0.765345119688    12.000000000000
         C           -1.499823264092     1.086219302556     0.175627119688    12.000000000000
         C           -1.794537264092    -1.314151697444     0.094255119688    12.000000000000
         C           -2.317728264092    -0.008021697444     0.271765119688    12.000000000000
         H            1.923001735908    -1.492086697444    -1.033135880312     1.007825032230
         H            2.096953735908     0.269021302556    -1.203640880312     1.007825032230
         H            0.017717735908    -2.409924697444    -0.329802880312     1.007825032230
         H            2.456060735908     0.507105302556     1.233812119688     1.007825032230
         H            2.279746735908    -1.251486697444     1.458411119688     1.007825032230
         H            3.662948735908    -0.602606697444     0.554493119688     1.007825032230
         H           -1.875229264092     2.095902302556     0.308537119688     1.007825032230
         H           -2.421700264092    -2.195633697444     0.162114119688     1.007825032230
         H           -3.376601264092     0.126392302556     0.481550119688     1.007825032230

  Basis Set: AUG-CC-PVTZ
    Blend: AUG-CC-PVTZ
  Basis Set: (AUG-CC-PVTZ AUX)
    Blend: AUG-CC-PVTZ-JKFIT
	 Reference Energy          =    -399.7678048834225137 [Eh]
	 Singles Energy            =      -0.0000000000000000 [Eh]
	 Same-Spin Energy          =      -0.4235623836734849 [Eh]
	 Opposite-Spin Energy      =      -1.3402410941199161 [Eh]
	 Correlation Energy        =      -1.7638034777934011 [Eh]
	 Total Energy              =    -401.5316083612158877 [Eh]

	 ================> DF-SCS-MP2 Energies <==================
	-----------------------------------------------------------
	 SCS Same-Spin Scale       =       0.3333333333333333 [-]
	 SCS Opposite-Spin Scale   =       1.2000000000000000 [-]
	 SCS Same-Spin Energy      =      -0.1411874612244949 [Eh]
	 SCS Opposite-Spin Energy  =      -1.6082893129438993 [Eh]
	 SCS Correlation Energy    =      -1.7494767741683943 [Eh]
	 SCS Total Energy          =    -401.5172816575908996 [Eh]
	-----------------------------------------------------------

  Dipole Moment: [D]
     X:    -0.7237      Y:    -3.6989      Z:     0.1110     Total:     3.7707

*** Psi4 exiting successfully. Buy a developer a beer!
