                               Psi4 1.4a3.dev225

  ==> Input File <==

--------------------------------------------------------------------------
#psi4
#
memory 32 gb

molecule  {
0 1
  O        0.6831730     1.9514370    -0.1851230
  N        0.3221270    -0.3206750    -0.2979720
  C        1.7580560    -0.4955670    -0.5492050
  C       -0.1211040     1.0090560    -0.1118080
  C       -0.4973450    -1.4105120    -0.1972350
  C        2.5603930    -0.4317450     0.7423750
  C       -1.5372540     1.1223260     0.1526570
  C       -1.7831807    -1.2828873     0.0614692
  C       -2.3551590     0.0280850     0.2487950
  H        1.8855710    -1.4559800    -1.0561060
  H        2.0595230     0.3051280    -1.2266110
  H       -0.0197130    -2.3738180    -0.3527730
  H        2.4186300     0.5432120     1.2108420
  H        2.2423160    -1.2153800     1.4354410
  H        3.6255180    -0.5665000     0.5315230
  H       -1.9126600     2.1320090     0.2855670
  H       -2.4591310    -2.1595270     0.1391440
  H       -3.4140320     0.1624990     0.4585800
units angstrom
no_reorient  #important for SAPT in psi4, default
symmetry c1  #important for SAPT in psi4, default
}

set PROPERTIES_ORIGIN ["COM"]
properties('MP2/aug-cc-pvtz', properties = ['dipole'])
--------------------------------------------------------------------------

    Molecular point group: c1
  Charge       = 0
  Multiplicity = 1
  Basis Set: AUG-CC-PVTZ
    Blend: AUG-CC-PVTZ
  Basis Set: (AUG-CC-PVTZ AUX)
    Blend: AUG-CC-PVTZ-JKFIT

    Orbital Energies [Eh]
    ---------------------

    Doubly Occupied:

       1A    -20.507810     2A    -15.620031     3A    -11.350708
       4A    -11.298466     5A    -11.273365     6A    -11.271846
       7A    -11.239682     8A    -11.238258     9A    -11.219766
      10A     -1.369280    11A     -1.277704    12A     -1.119483
      13A     -1.035650    14A     -1.017687    15A     -0.894404
      16A     -0.866607    17A     -0.826097    18A     -0.713683
      19A     -0.700643    20A     -0.666379    21A     -0.637667
      22A     -0.615767    23A     -0.607848    24A     -0.603295
      25A     -0.562642    26A     -0.531315    27A     -0.528607
      28A     -0.525491    29A     -0.504351    30A     -0.477584
      31A     -0.422137    32A     -0.405202    33A     -0.315253

  @DF-RHF Final Energy:  -399.76989514960206

   => Energetics <=

    Nuclear Repulsion Energy =            438.0897924191677362
    One-Electron Energy =               -1411.2299617390965523
    Two-Electron Energy =                 573.3702741703267520
    Total Energy =                       -399.7698951496021209
  Basis Set: (AUG-CC-PVTZ AUX)
    Blend: AUG-CC-PVTZ-RI
    Molecular point group: c1

    Geometry (in Angstrom), charge = 0, multiplicity = 1:

       Center              X                  Y                   Z               Mass
    ------------   -----------------  -----------------  -----------------  -----------------
         O            0.714118443180     1.914684053752    -0.172672935220    15.994914619570
         N            0.353072443180    -0.357427946248    -0.285521935220    14.003074004430
         C            1.789001443180    -0.532319946248    -0.536754935220    12.000000000000
         C           -0.090158556820     0.972303053752    -0.099357935220    12.000000000000
         C           -0.466399556820    -1.447264946248    -0.184784935220    12.000000000000
         C            2.591338443180    -0.468497946248     0.754825064780    12.000000000000
         C           -1.506308556820     1.085573053752     0.165107064780    12.000000000000
         C           -1.752235256820    -1.319640246248     0.073919264780    12.000000000000
         C           -2.324213556820    -0.008667946248     0.261245064780    12.000000000000
         H            1.916516443180    -1.492732946248    -1.043655935220     1.007825032230
         H            2.090468443180     0.268375053752    -1.214160935220     1.007825032230
         H            0.011232443180    -2.410570946248    -0.340322935220     1.007825032230
         H            2.449575443180     0.506459053752     1.223292064780     1.007825032230
         H            2.273261443180    -1.252132946248     1.447891064780     1.007825032230
         H            3.656463443180    -0.603252946248     0.543973064780     1.007825032230
         H           -1.881714556820     2.095256053752     0.298017064780     1.007825032230
         H           -2.428185556820    -2.196279946248     0.151594064780     1.007825032230
         H           -3.383086556820     0.125746053752     0.471030064780     1.007825032230

  Basis Set: AUG-CC-PVTZ
    Blend: AUG-CC-PVTZ
  Basis Set: (AUG-CC-PVTZ AUX)
    Blend: AUG-CC-PVTZ-JKFIT
	 Reference Energy          =    -399.7698951496020641 [Eh]
	 Singles Energy            =      -0.0000000000000000 [Eh]
	 Same-Spin Energy          =      -0.4225447130727926 [Eh]
	 Opposite-Spin Energy      =      -1.3389614208178973 [Eh]
	 Correlation Energy        =      -1.7615061338906899 [Eh]
	 Total Energy              =    -401.5314012834927553 [Eh]

	 ================> DF-SCS-MP2 Energies <==================
	-----------------------------------------------------------
	 SCS Same-Spin Scale       =       0.3333333333333333 [-]
	 SCS Opposite-Spin Scale   =       1.2000000000000000 [-]
	 SCS Same-Spin Energy      =      -0.1408482376909309 [Eh]
	 SCS Opposite-Spin Energy  =      -1.6067537049814766 [Eh]
	 SCS Correlation Energy    =      -1.7476019426724074 [Eh]
	 SCS Total Energy          =    -401.5174970922744819 [Eh]
	-----------------------------------------------------------

  Dipole Moment: [D]
     X:    -0.8471      Y:    -3.7394      Z:     0.0459     Total:     3.8344

*** Psi4 exiting successfully. Buy a developer a beer!
