                               Psi4 1.3.2 release

  ==> Input File <==

--------------------------------------------------------------------------
#psi4
#
memory 32 gb

molecule  {
0 1
  O        0.6831730     1.9514370    -0.1851230
  N        0.3221270    -0.3206750    -0.2979720
  C        1.7580560    -0.4955670    -0.5492050
  C       -0.1837974     1.1971415    -0.0854758
  C       -0.4973450    -1.4105120    -0.1972350
  C        2.5603930    -0.4317450     0.7423750
  C       -1.5372540     1.1223260     0.1526570
  C       -1.8319680    -1.2780450     0.0712850
  C       -2.3551590     0.0280850     0.2487950
  H        1.8855710    -1.4559800    -1.0561060
  H        2.0595230     0.3051280    -1.2266110
  H       -0.0197130    -2.3738180    -0.3527730
  H        2.4186300     0.5432120     1.2108420
  H        2.2423160    -1.2153800     1.4354410
  H        3.6255180    -0.5665000     0.5315230
  H       -1.9126600     2.1320090     0.2855670
  H       -2.4591310    -2.1595270     0.1391440
  H       -3.4140320     0.1624990     0.4585800
units angstrom
no_reorient  #important for SAPT in psi4, default
symmetry c1  #important for SAPT in psi4, default
}

set PROPERTIES_ORIGIN ["COM"]
properties('MP2/aug-cc-pvtz', properties = ['dipole'])
--------------------------------------------------------------------------

    Molecular point group: c1
  Charge       = 0
  Multiplicity = 1
  Basis Set: AUG-CC-PVTZ
    Blend: AUG-CC-PVTZ
  Basis Set: (AUG-CC-PVTZ AUX)
    Blend: AUG-CC-PVTZ-JKFIT

    Orbital Energies [Eh]
    ---------------------

    Doubly Occupied:

       1A    -20.536328     2A    -15.599180     3A    -11.358791
       4A    -11.303918     5A    -11.279151     6A    -11.264192
       7A    -11.226496     8A    -11.225884     9A    -11.216695
      10A     -1.431319    11A     -1.252558    12A     -1.114514
      13A     -1.033452    14A     -1.003218    15A     -0.897935
      16A     -0.831615    17A     -0.827896    18A     -0.709780
      19A     -0.696712    20A     -0.675008    21A     -0.634781
      22A     -0.626887    23A     -0.607985    24A     -0.594110
      25A     -0.570794    26A     -0.546914    27A     -0.532221
      28A     -0.525863    29A     -0.499076    30A     -0.487690
      31A     -0.420440    32A     -0.396618    33A     -0.302848

  @DF-RHF Final Energy:  -399.73904315687957

   => Energetics <=

    Nuclear Repulsion Energy =            435.9362287641647526
    One-Electron Energy =               -1406.8888072247093532
    Two-Electron Energy =                 571.2135353036650258
    Total Energy =                       -399.7390431568795748
  Basis Set: (AUG-CC-PVTZ AUX)
    Blend: AUG-CC-PVTZ-RI
    Molecular point group: c1

    Geometry (in Angstrom), charge = 0, multiplicity = 1:

       Center              X                  Y                   Z               Mass
    ------------   -----------------  -----------------  -----------------  -----------------
         O            0.724988562956     1.895872292664    -0.176197608905    15.994914619570
         N            0.363942562956    -0.376239707336    -0.289046608905    14.003074004430
         C            1.799871562956    -0.551131707336    -0.540279608905    12.000000000000
         C           -0.141981837044     1.141576792664    -0.076550408905    12.000000000000
         C           -0.455529437044    -1.466076707336    -0.188309608905    12.000000000000
         C            2.602208562956    -0.487309707336     0.751300391095    12.000000000000
         C           -1.495438437044     1.066761292664     0.161582391095    12.000000000000
         C           -1.790152437044    -1.333609707336     0.080210391095    12.000000000000
         C           -2.313343437044    -0.027479707336     0.257720391095    12.000000000000
         H            1.927386562956    -1.511544707336    -1.047180608905     1.007825032230
         H            2.101338562956     0.249563292664    -1.217685608905     1.007825032230
         H            0.022102562956    -2.429382707336    -0.343847608905     1.007825032230
         H            2.460445562956     0.487647292664     1.219767391095     1.007825032230
         H            2.284131562956    -1.270944707336     1.444366391095     1.007825032230
         H            3.667333562956    -0.622064707336     0.540448391095     1.007825032230
         H           -1.870844437044     2.076444292664     0.294492391095     1.007825032230
         H           -2.417315437044    -2.215091707336     0.148069391095     1.007825032230
         H           -3.372216437044     0.106934292664     0.467505391095     1.007825032230

  Basis Set: AUG-CC-PVTZ
    Blend: AUG-CC-PVTZ
  Basis Set: (AUG-CC-PVTZ AUX)
    Blend: AUG-CC-PVTZ-JKFIT
	 Reference Energy          =    -399.7390431568795748 [Eh]
	 Singles Energy            =      -0.0000000000000000 [Eh]
	 Same-Spin Energy          =      -0.4253109356552331 [Eh]
	 Opposite-Spin Energy      =      -1.3413891247176006 [Eh]
	 Correlation Energy        =      -1.7667000603728338 [Eh]
	 Total Energy              =    -401.5057432172524159 [Eh]

	 ================> DF-SCS-MP2 Energies <==================
	-----------------------------------------------------------
	 SCS Same-Spin Scale       =       0.3333333333333333 [-]
	 SCS Opposite-Spin Scale   =       1.2000000000000000 [-]
	 SCS Same-Spin Energy      =      -0.1417703118850777 [Eh]
	 SCS Opposite-Spin Energy  =      -1.6096669496611207 [Eh]
	 SCS Correlation Energy    =      -1.7514372615461984 [Eh]
	 SCS Total Energy          =    -401.4904804184257614 [Eh]
	-----------------------------------------------------------

  Dipole Moment: [D]
     X:    -0.4576      Y:    -2.7639      Z:     0.0352     Total:     2.8018

*** Psi4 exiting successfully. Buy a developer a beer!
