                               Psi4 1.3.2 release

  ==> Input File <==

--------------------------------------------------------------------------
#psi4
#
memory 32 gb

molecule  {
0 1
  O        0.6831730     1.9514370    -0.1851230
  N        0.3270209    -0.3183490    -0.2729269
  C        1.7580560    -0.4955670    -0.5492050
  C       -0.1211040     1.0090560    -0.1118080
  C       -0.4973450    -1.4105120    -0.1972350
  C        2.5603930    -0.4317450     0.7423750
  C       -1.5372540     1.1223260     0.1526570
  C       -1.8319680    -1.2780450     0.0712850
  C       -2.3551590     0.0280850     0.2487950
  H        1.8855710    -1.4559800    -1.0561060
  H        2.0595230     0.3051280    -1.2266110
  H       -0.0197130    -2.3738180    -0.3527730
  H        2.4186300     0.5432120     1.2108420
  H        2.2423160    -1.2153800     1.4354410
  H        3.6255180    -0.5665000     0.5315230
  H       -1.9126600     2.1320090     0.2855670
  H       -2.4591310    -2.1595270     0.1391440
  H       -3.4140320     0.1624990     0.4585800
units angstrom
no_reorient  #important for SAPT in psi4, default
symmetry c1  #important for SAPT in psi4, default
}

set PROPERTIES_ORIGIN ["COM"]
properties('MP2/aug-cc-pvtz', properties = ['dipole'])
--------------------------------------------------------------------------

    Molecular point group: c1
  Charge       = 0
  Multiplicity = 1
  Basis Set: AUG-CC-PVTZ
    Blend: AUG-CC-PVTZ
  Basis Set: (AUG-CC-PVTZ AUX)
    Blend: AUG-CC-PVTZ-JKFIT

    Orbital Energies [Eh]
    ---------------------

    Doubly Occupied:

       1A    -20.505619     2A    -15.625356     3A    -11.349372
       4A    -11.309047     5A    -11.273770     6A    -11.270580
       7A    -11.240543     8A    -11.237290     9A    -11.220556
      10A     -1.369069    11A     -1.277719    12A     -1.119293
      13A     -1.031077    14A     -1.018370    15A     -0.894947
      16A     -0.870710    17A     -0.824568    18A     -0.714786
      19A     -0.700637    20A     -0.668305    21A     -0.639522
      22A     -0.613649    23A     -0.607373    24A     -0.605403
      25A     -0.560263    26A     -0.538397    27A     -0.528822
      28A     -0.525956    29A     -0.505709    30A     -0.474339
      31A     -0.420883    32A     -0.407648    33A     -0.309100

  @DF-RHF Final Energy:  -399.77143663974914

   => Energetics <=

    Nuclear Repulsion Energy =            437.5264903926784541
    One-Electron Energy =               -1410.0784981652325314
    Two-Electron Energy =                 572.7805711328049938
    Total Energy =                       -399.7714366397491403
  Basis Set: (AUG-CC-PVTZ AUX)
    Blend: AUG-CC-PVTZ-RI
    Molecular point group: c1

    Geometry (in Angstrom), charge = 0, multiplicity = 1:

       Center              X                  Y                   Z               Mass
    ------------   -----------------  -----------------  -----------------  -----------------
         O            0.718318691966     1.913947237966    -0.176479744569    15.994914619570
         N            0.362166591966    -0.355838762034    -0.264283644569    14.003074004430
         C            1.793201691966    -0.533056762034    -0.540561744569    12.000000000000
         C           -0.085958308034     0.971566237966    -0.103164744569    12.000000000000
         C           -0.462199308034    -1.448001762034    -0.188591744569    12.000000000000
         C            2.595538691966    -0.469234762034     0.751018255431    12.000000000000
         C           -1.502108308034     1.084836237966     0.161300255431    12.000000000000
         C           -1.796822308034    -1.315534762034     0.079928255431    12.000000000000
         C           -2.320013308034    -0.009404762034     0.257438255431    12.000000000000
         H            1.920716691966    -1.493469762034    -1.047462744569     1.007825032230
         H            2.094668691966     0.267638237966    -1.217967744569     1.007825032230
         H            0.015432691966    -2.411307762034    -0.344129744569     1.007825032230
         H            2.453775691966     0.505722237966     1.219485255431     1.007825032230
         H            2.277461691966    -1.252869762034     1.444084255431     1.007825032230
         H            3.660663691966    -0.603989762034     0.540166255431     1.007825032230
         H           -1.877514308034     2.094519237966     0.294210255431     1.007825032230
         H           -2.423985308034    -2.197016762034     0.147787255431     1.007825032230
         H           -3.378886308034     0.125009237966     0.467223255431     1.007825032230

  Basis Set: AUG-CC-PVTZ
    Blend: AUG-CC-PVTZ
  Basis Set: (AUG-CC-PVTZ AUX)
    Blend: AUG-CC-PVTZ-JKFIT
	 Reference Energy          =    -399.7714366397491403 [Eh]
	 Singles Energy            =      -0.0000000000000000 [Eh]
	 Same-Spin Energy          =      -0.4234331546937015 [Eh]
	 Opposite-Spin Energy      =      -1.3398600773589742 [Eh]
	 Correlation Energy        =      -1.7632932320526757 [Eh]
	 Total Energy              =    -401.5347298718018010 [Eh]

	 ================> DF-SCS-MP2 Energies <==================
	-----------------------------------------------------------
	 SCS Same-Spin Scale       =       0.3333333333333333 [-]
	 SCS Opposite-Spin Scale   =       1.2000000000000000 [-]
	 SCS Same-Spin Energy      =      -0.1411443848979005 [Eh]
	 SCS Opposite-Spin Energy  =      -1.6078320928307690 [Eh]
	 SCS Correlation Energy    =      -1.7489764777286694 [Eh]
	 SCS Total Energy          =    -401.5204131174778013 [Eh]
	-----------------------------------------------------------

  Dipole Moment: [D]
     X:    -0.7774      Y:    -3.8291      Z:     0.0149     Total:     3.9073

*** Psi4 exiting successfully. Buy a developer a beer!
