                               Psi4 1.4a3.dev225

  ==> Input File <==

--------------------------------------------------------------------------
#psi4
#
memory 32 gb

molecule  {
0 1
  O        0.6831730     1.9514370    -0.1851230
  N        0.3221270    -0.3206750    -0.2979720
  C        1.7580560    -0.4955670    -0.5492050
  C       -0.1535059     0.9710903    -0.1088544
  C       -0.4973450    -1.4105120    -0.1972350
  C        2.5603930    -0.4317450     0.7423750
  C       -1.5372540     1.1223260     0.1526570
  C       -1.8319680    -1.2780450     0.0712850
  C       -2.3551590     0.0280850     0.2487950
  H        1.8855710    -1.4559800    -1.0561060
  H        2.0595230     0.3051280    -1.2266110
  H       -0.0197130    -2.3738180    -0.3527730
  H        2.4186300     0.5432120     1.2108420
  H        2.2423160    -1.2153800     1.4354410
  H        3.6255180    -0.5665000     0.5315230
  H       -1.9126600     2.1320090     0.2855670
  H       -2.4591310    -2.1595270     0.1391440
  H       -3.4140320     0.1624990     0.4585800
units angstrom
no_reorient  #important for SAPT in psi4, default
symmetry c1  #important for SAPT in psi4, default
}

set PROPERTIES_ORIGIN ["COM"]
properties('MP2/aug-cc-pvtz', properties = ['dipole'])
--------------------------------------------------------------------------

    Molecular point group: c1
  Charge       = 0
  Multiplicity = 1
  Basis Set: AUG-CC-PVTZ
    Blend: AUG-CC-PVTZ
  Basis Set: (AUG-CC-PVTZ AUX)
    Blend: AUG-CC-PVTZ-JKFIT

    Orbital Energies [Eh]
    ---------------------

    Doubly Occupied:

       1A    -20.493421     2A    -15.632052     3A    -11.346612
       4A    -11.312050     5A    -11.275853     6A    -11.274312
       7A    -11.245025     8A    -11.238308     9A    -11.221291
      10A     -1.351605    11A     -1.266620    12A     -1.124870
      13A     -1.034978    14A     -1.023149    15A     -0.899510
      16A     -0.876711    17A     -0.828222    18A     -0.718180
      19A     -0.702185    20A     -0.668866    21A     -0.642687
      22A     -0.617159    23A     -0.609823    24A     -0.595338
      25A     -0.555147    26A     -0.537922    27A     -0.527691
      28A     -0.524689    29A     -0.506221    30A     -0.462171
      31A     -0.414351    32A     -0.409713    33A     -0.311435

  @DF-RHF Final Energy:  -399.76507877176778

   => Energetics <=

    Nuclear Repulsion Energy =            437.5766786893290714
    One-Electron Energy =               -1410.1871797023716226
    Two-Electron Energy =                 572.8454222412747185
    Total Energy =                       -399.7650787717677758
  Basis Set: (AUG-CC-PVTZ AUX)
    Blend: AUG-CC-PVTZ-RI
    Molecular point group: c1

    Geometry (in Angstrom), charge = 0, multiplicity = 1:

       Center              X                  Y                   Z               Mass
    ------------   -----------------  -----------------  -----------------  -----------------
         O            0.722034937502     1.917913808547    -0.173918037802    15.994914619570
         N            0.360988937502    -0.354198191453    -0.286767037802    14.003074004430
         C            1.796917937502    -0.529090191453    -0.538000037802    12.000000000000
         C           -0.114643962498     0.937567108547    -0.097649437802    12.000000000000
         C           -0.458483062498    -1.444035191453    -0.186030037802    12.000000000000
         C            2.599254937502    -0.465268191453     0.753579962198    12.000000000000
         C           -1.498392062498     1.088802808547     0.163861962198    12.000000000000
         C           -1.793106062498    -1.311568191453     0.082489962198    12.000000000000
         C           -2.316297062498    -0.005438191453     0.259999962198    12.000000000000
         H            1.924432937502    -1.489503191453    -1.044901037802     1.007825032230
         H            2.098384937502     0.271604808547    -1.215406037802     1.007825032230
         H            0.019148937502    -2.407341191453    -0.341568037802     1.007825032230
         H            2.457491937502     0.509688808547     1.222046962198     1.007825032230
         H            2.281177937502    -1.248903191453     1.446645962198     1.007825032230
         H            3.664379937502    -0.600023191453     0.542727962198     1.007825032230
         H           -1.873798062498     2.098485808547     0.296771962198     1.007825032230
         H           -2.420269062498    -2.193050191453     0.150348962198     1.007825032230
         H           -3.375170062498     0.128975808547     0.469784962198     1.007825032230

  Basis Set: AUG-CC-PVTZ
    Blend: AUG-CC-PVTZ
  Basis Set: (AUG-CC-PVTZ AUX)
    Blend: AUG-CC-PVTZ-JKFIT
	 Reference Energy          =    -399.7650787717677758 [Eh]
	 Singles Energy            =      -0.0000000000000000 [Eh]
	 Same-Spin Energy          =      -0.4244734928555622 [Eh]
	 Opposite-Spin Energy      =      -1.3413829363906284 [Eh]
	 Correlation Energy        =      -1.7658564292461907 [Eh]
	 Total Energy              =    -401.5309352010139605 [Eh]

	 ================> DF-SCS-MP2 Energies <==================
	-----------------------------------------------------------
	 SCS Same-Spin Scale       =       0.3333333333333333 [-]
	 SCS Opposite-Spin Scale   =       1.2000000000000000 [-]
	 SCS Same-Spin Energy      =      -0.1414911642851874 [Eh]
	 SCS Opposite-Spin Energy  =      -1.6096595236687541 [Eh]
	 SCS Correlation Energy    =      -1.7511506879539416 [Eh]
	 SCS Total Energy          =    -401.5162294597217283 [Eh]
	-----------------------------------------------------------

  Dipole Moment: [D]
     X:    -0.9955      Y:    -4.1748      Z:     0.0563     Total:     4.2922

*** Psi4 exiting successfully. Buy a developer a beer!
