                               Psi4 1.3.2 release

  ==> Input File <==

--------------------------------------------------------------------------
#psi4
#
memory 32 gb

molecule  {
0 1
  O        0.6831730     1.9514370    -0.1851230
  N        0.3221270    -0.3206750    -0.2979720
  C        1.7580560    -0.4955670    -0.5492050
  C       -0.1262935     0.9589059    -0.1133071
  C       -0.4973450    -1.4105120    -0.1972350
  C        2.5603930    -0.4317450     0.7423750
  C       -1.5372540     1.1223260     0.1526570
  C       -1.8319680    -1.2780450     0.0712850
  C       -2.3551590     0.0280850     0.2487950
  H        1.8855710    -1.4559800    -1.0561060
  H        2.0595230     0.3051280    -1.2266110
  H       -0.0197130    -2.3738180    -0.3527730
  H        2.4186300     0.5432120     1.2108420
  H        2.2423160    -1.2153800     1.4354410
  H        3.6255180    -0.5665000     0.5315230
  H       -1.9126600     2.1320090     0.2855670
  H       -2.4591310    -2.1595270     0.1391440
  H       -3.4140320     0.1624990     0.4585800
units angstrom
no_reorient  #important for SAPT in psi4, default
symmetry c1  #important for SAPT in psi4, default
}

set PROPERTIES_ORIGIN ["COM"]
properties('MP2/aug-cc-pvtz', properties = ['dipole'])
--------------------------------------------------------------------------

    Molecular point group: c1
  Charge       = 0
  Multiplicity = 1
  Basis Set: AUG-CC-PVTZ
    Blend: AUG-CC-PVTZ
  Basis Set: (AUG-CC-PVTZ AUX)
    Blend: AUG-CC-PVTZ-JKFIT

    Orbital Energies [Eh]
    ---------------------

    Doubly Occupied:

       1A    -20.495095     2A    -15.631710     3A    -11.346955
       4A    -11.310635     5A    -11.276279     6A    -11.270942
       7A    -11.245246     8A    -11.240543     9A    -11.221976
      10A     -1.357350    11A     -1.271495    12A     -1.122957
      13A     -1.032931    14A     -1.024223    15A     -0.897667
      16A     -0.880729    17A     -0.825196    18A     -0.718974
      19A     -0.700645    20A     -0.668732    21A     -0.643606
      22A     -0.618161    23A     -0.610123    24A     -0.596430
      25A     -0.555151    26A     -0.539841    27A     -0.527342
      28A     -0.524764    29A     -0.507252    30A     -0.463679
      31A     -0.414540    32A     -0.410052    33A     -0.311051

  @DF-RHF Final Energy:  -399.76699623410457

   => Energetics <=

    Nuclear Repulsion Energy =            437.7908457272921510
    One-Electron Energy =               -1410.5911393853373283
    Two-Electron Energy =                 573.0332974239405530
    Total Energy =                       -399.7669962341045675
  Basis Set: (AUG-CC-PVTZ AUX)
    Blend: AUG-CC-PVTZ-RI
    Molecular point group: c1

    Geometry (in Angstrom), charge = 0, multiplicity = 1:

       Center              X                  Y                   Z               Mass
    ------------   -----------------  -----------------  -----------------  -----------------
         O            0.719381545054     1.919101869686    -0.173483869535    15.994914619570
         N            0.358335545054    -0.353010130314    -0.286332869535    14.003074004430
         C            1.794264545054    -0.527902130314    -0.537565869535    12.000000000000
         C           -0.090084954946     0.926570769686    -0.101667969535    12.000000000000
         C           -0.461136454946    -1.442847130314    -0.185595869535    12.000000000000
         C            2.596601545054    -0.464080130314     0.754014130465    12.000000000000
         C           -1.501045454946     1.089990869686     0.164296130465    12.000000000000
         C           -1.795759454946    -1.310380130314     0.082924130465    12.000000000000
         C           -2.318950454946    -0.004250130314     0.260434130465    12.000000000000
         H            1.921779545054    -1.488315130314    -1.044466869535     1.007825032230
         H            2.095731545054     0.272792869686    -1.214971869535     1.007825032230
         H            0.016495545054    -2.406153130314    -0.341133869535     1.007825032230
         H            2.454838545054     0.510876869686     1.222481130465     1.007825032230
         H            2.278524545054    -1.247715130314     1.447080130465     1.007825032230
         H            3.661726545054    -0.598835130314     0.543162130465     1.007825032230
         H           -1.876451454946     2.099673869686     0.297206130465     1.007825032230
         H           -2.422922454946    -2.191862130314     0.150783130465     1.007825032230
         H           -3.377823454946     0.130163869686     0.470219130465     1.007825032230

  Basis Set: AUG-CC-PVTZ
    Blend: AUG-CC-PVTZ
  Basis Set: (AUG-CC-PVTZ AUX)
    Blend: AUG-CC-PVTZ-JKFIT
	 Reference Energy          =    -399.7669962341045675 [Eh]
	 Singles Energy            =      -0.0000000000000000 [Eh]
	 Same-Spin Energy          =      -0.4238651181866777 [Eh]
	 Opposite-Spin Energy      =      -1.3407341215221638 [Eh]
	 Correlation Energy        =      -1.7645992397088415 [Eh]
	 Total Energy              =    -401.5315954738134110 [Eh]

	 ================> DF-SCS-MP2 Energies <==================
	-----------------------------------------------------------
	 SCS Same-Spin Scale       =       0.3333333333333333 [-]
	 SCS Opposite-Spin Scale   =       1.2000000000000000 [-]
	 SCS Same-Spin Energy      =      -0.1412883727288926 [Eh]
	 SCS Opposite-Spin Energy  =      -1.6088809458265965 [Eh]
	 SCS Correlation Energy    =      -1.7501693185554890 [Eh]
	 SCS Total Energy          =    -401.5171655526600603 [Eh]
	-----------------------------------------------------------

  Dipole Moment: [D]
     X:    -0.9234      Y:    -4.1545      Z:     0.0466     Total:     4.2561

*** Psi4 exiting successfully. Buy a developer a beer!
