                               Psi4 1.3.2 release

  ==> Input File <==

--------------------------------------------------------------------------
#psi4
#
memory 32 gb

molecule  {
0 1
  O        0.6831730     1.9514370    -0.1851230
  N        0.3221270    -0.3206750    -0.2979720
  C        1.7580560    -0.4955670    -0.5492050
  C       -0.1211040     1.0090560    -0.1118080
  C       -0.4973450    -1.4105120    -0.1972350
  C        2.5603930    -0.4317450     0.7423750
  C       -1.5372540     1.1223260     0.1526570
  C       -1.8319680    -1.2780450     0.0712850
  C       -2.4746034    -0.1317146     0.2628347
  H        1.8855710    -1.4559800    -1.0561060
  H        2.0595230     0.3051280    -1.2266110
  H       -0.0197130    -2.3738180    -0.3527730
  H        2.4186300     0.5432120     1.2108420
  H        2.2423160    -1.2153800     1.4354410
  H        3.6255180    -0.5665000     0.5315230
  H       -1.9126600     2.1320090     0.2855670
  H       -2.4591310    -2.1595270     0.1391440
  H       -3.4140320     0.1624990     0.4585800
units angstrom
no_reorient  #important for SAPT in psi4, default
symmetry c1  #important for SAPT in psi4, default
}

set PROPERTIES_ORIGIN ["COM"]
properties('MP2/aug-cc-pvtz', properties = ['dipole'])
--------------------------------------------------------------------------

    Molecular point group: c1
  Charge       = 0
  Multiplicity = 1
  Basis Set: AUG-CC-PVTZ
    Blend: AUG-CC-PVTZ
  Basis Set: (AUG-CC-PVTZ AUX)
    Blend: AUG-CC-PVTZ-JKFIT

    Orbital Energies [Eh]
    ---------------------

    Doubly Occupied:

       1A    -20.492606     2A    -15.638753     3A    -11.341499
       4A    -11.321838     5A    -11.280577     6A    -11.277294
       7A    -11.246226     8A    -11.241289     9A    -11.223432
      10A     -1.363034    11A     -1.279622    12A     -1.121980
      13A     -1.030327    14A     -1.009755    15A     -0.910520
      16A     -0.866514    17A     -0.832217    18A     -0.726584
      19A     -0.702519    20A     -0.673267    21A     -0.638310
      22A     -0.625115    23A     -0.608426    24A     -0.597158
      25A     -0.569782    26A     -0.534492    27A     -0.527400
      28A     -0.512797    29A     -0.500463    30A     -0.478129
      31A     -0.411785    32A     -0.401141    33A     -0.291802

  @DF-RHF Final Energy:  -399.71841689911622

   => Energetics <=

    Nuclear Repulsion Energy =            435.3969876540426185
    One-Electron Energy =               -1405.6775060738164029
    Two-Electron Energy =                 570.5621015206576203
    Total Energy =                       -399.7184168991161641
  Basis Set: (AUG-CC-PVTZ AUX)
    Blend: AUG-CC-PVTZ-RI
    Molecular point group: c1

    Geometry (in Angstrom), charge = 0, multiplicity = 1:

       Center              X                  Y                   Z               Mass
    ------------   -----------------  -----------------  -----------------  -----------------
         O            0.730522168033     1.929793435119    -0.174999007287    15.994914619570
         N            0.369476168033    -0.342318564881    -0.287848007287    14.003074004430
         C            1.805405168033    -0.517210564881    -0.539081007287    12.000000000000
         C           -0.073754831967     0.987412435119    -0.101684007287    12.000000000000
         C           -0.449995831967    -1.432155564881    -0.187111007287    12.000000000000
         C            2.607742168033    -0.453388564881     0.752498992713    12.000000000000
         C           -1.489904831967     1.100682435119     0.162780992713    12.000000000000
         C           -1.784618831967    -1.299688564881     0.081408992713    12.000000000000
         C           -2.427254231967    -0.153358164881     0.272958692713    12.000000000000
         H            1.932920168033    -1.477623564881    -1.045982007287     1.007825032230
         H            2.106872168033     0.283484435119    -1.216487007287     1.007825032230
         H            0.027636168033    -2.395461564881    -0.342649007287     1.007825032230
         H            2.465979168033     0.521568435119     1.220965992713     1.007825032230
         H            2.289665168033    -1.237023564881     1.445564992713     1.007825032230
         H            3.672867168033    -0.588143564881     0.541646992713     1.007825032230
         H           -1.865310831967     2.110365435119     0.295690992713     1.007825032230
         H           -2.411781831967    -2.181170564881     0.149267992713     1.007825032230
         H           -3.366682831967     0.140855435119     0.468703992713     1.007825032230

  Basis Set: AUG-CC-PVTZ
    Blend: AUG-CC-PVTZ
  Basis Set: (AUG-CC-PVTZ AUX)
    Blend: AUG-CC-PVTZ-JKFIT
	 Reference Energy          =    -399.7184168991162210 [Eh]
	 Singles Energy            =      -0.0000000000000000 [Eh]
	 Same-Spin Energy          =      -0.4284011379108198 [Eh]
	 Opposite-Spin Energy      =      -1.3469808915080173 [Eh]
	 Correlation Energy        =      -1.7753820294188372 [Eh]
	 Total Energy              =    -401.4937989285350568 [Eh]

	 ================> DF-SCS-MP2 Energies <==================
	-----------------------------------------------------------
	 SCS Same-Spin Scale       =       0.3333333333333333 [-]
	 SCS Opposite-Spin Scale   =       1.2000000000000000 [-]
	 SCS Same-Spin Energy      =      -0.1428003793036066 [Eh]
	 SCS Opposite-Spin Energy  =      -1.6163770698096207 [Eh]
	 SCS Correlation Energy    =      -1.7591774491132273 [Eh]
	 SCS Total Energy          =    -401.4775943482294451 [Eh]
	-----------------------------------------------------------

  Dipole Moment: [D]
     X:    -0.7359      Y:    -3.9986      Z:     0.0357     Total:     4.0659

*** Psi4 exiting successfully. Buy a developer a beer!
