                               Psi4 1.4a3.dev225

  ==> Input File <==

--------------------------------------------------------------------------
#psi4
#
memory 32 gb

molecule  {
0 1
  O        0.6831730     1.9514370    -0.1851230
  N        0.3221270    -0.3206750    -0.2979720
  C        1.7580560    -0.4955670    -0.5492050
  C       -0.1211040     1.0090560    -0.1118080
  C       -0.5093320    -1.4264538    -0.1957615
  C        2.5603930    -0.4317450     0.7423750
  C       -1.5372540     1.1223260     0.1526570
  C       -1.8319680    -1.2780450     0.0712850
  C       -2.3551590     0.0280850     0.2487950
  H        1.8855710    -1.4559800    -1.0561060
  H        2.0595230     0.3051280    -1.2266110
  H       -0.0197130    -2.3738180    -0.3527730
  H        2.4186300     0.5432120     1.2108420
  H        2.2423160    -1.2153800     1.4354410
  H        3.6255180    -0.5665000     0.5315230
  H       -1.9126600     2.1320090     0.2855670
  H       -2.4591310    -2.1595270     0.1391440
  H       -3.4140320     0.1624990     0.4585800
units angstrom
no_reorient  #important for SAPT in psi4, default
symmetry c1  #important for SAPT in psi4, default
}

set PROPERTIES_ORIGIN ["COM"]
properties('MP2/aug-cc-pvtz', properties = ['dipole'])
--------------------------------------------------------------------------

    Molecular point group: c1
  Charge       = 0
  Multiplicity = 1
  Basis Set: AUG-CC-PVTZ
    Blend: AUG-CC-PVTZ
  Basis Set: (AUG-CC-PVTZ AUX)
    Blend: AUG-CC-PVTZ-JKFIT

    Orbital Energies [Eh]
    ---------------------

    Doubly Occupied:

       1A    -20.506243     2A    -15.623192     3A    -11.349660
       4A    -11.307661     5A    -11.272452     6A    -11.271266
       7A    -11.240695     8A    -11.238711     9A    -11.220092
      10A     -1.367570    11A     -1.272828    12A     -1.119915
      13A     -1.031250    14A     -1.018154    15A     -0.895248
      16A     -0.868664    17A     -0.823463    18A     -0.714036
      19A     -0.699912    20A     -0.669012    21A     -0.638031
      22A     -0.612631    23A     -0.607434    24A     -0.605567
      25A     -0.559907    26A     -0.538528    27A     -0.529637
      28A     -0.525259    29A     -0.504372    30A     -0.474553
      31A     -0.421129    32A     -0.406213    33A     -0.311467

  @DF-RHF Final Energy:  -399.77097214047114

   => Energetics <=

    Nuclear Repulsion Energy =            437.1218228435158153
    One-Electron Energy =               -1409.2960885717579913
    Two-Electron Energy =                 572.4032935877710315
    Total Energy =                       -399.7709721404711445
  Basis Set: (AUG-CC-PVTZ AUX)
    Blend: AUG-CC-PVTZ-RI
    Molecular point group: c1

    Geometry (in Angstrom), charge = 0, multiplicity = 1:

       Center              X                  Y                   Z               Mass
    ------------   -----------------  -----------------  -----------------  -----------------
         O            0.720044347128     1.915766329827    -0.173773718074    15.994914619570
         N            0.358998347128    -0.356345670173    -0.286622718074    14.003074004430
         C            1.794927347128    -0.531237670173    -0.537855718074    12.000000000000
         C           -0.084232652872     0.973385329827    -0.100458718074    12.000000000000
         C           -0.472460652872    -1.462124470173    -0.184412218074    12.000000000000
         C            2.597264347128    -0.467415670173     0.753724281926    12.000000000000
         C           -1.500382652872     1.086655329827     0.164006281926    12.000000000000
         C           -1.795096652872    -1.313715670173     0.082634281926    12.000000000000
         C           -2.318287652872    -0.007585670173     0.260144281926    12.000000000000
         H            1.922442347128    -1.491650670173    -1.044756718074     1.007825032230
         H            2.096394347128     0.269457329827    -1.215261718074     1.007825032230
         H            0.017158347128    -2.409488670173    -0.341423718074     1.007825032230
         H            2.455501347128     0.507541329827     1.222191281926     1.007825032230
         H            2.279187347128    -1.251050670173     1.446790281926     1.007825032230
         H            3.662389347128    -0.602170670173     0.542872281926     1.007825032230
         H           -1.875788652872     2.096338329827     0.296916281926     1.007825032230
         H           -2.422259652872    -2.195197670173     0.150493281926     1.007825032230
         H           -3.377160652872     0.126828329827     0.469929281926     1.007825032230

  Basis Set: AUG-CC-PVTZ
    Blend: AUG-CC-PVTZ
  Basis Set: (AUG-CC-PVTZ AUX)
    Blend: AUG-CC-PVTZ-JKFIT
	 Reference Energy          =    -399.7709721404711445 [Eh]
	 Singles Energy            =      -0.0000000000000000 [Eh]
	 Same-Spin Energy          =      -0.4232242312482309 [Eh]
	 Opposite-Spin Energy      =      -1.3399316398172574 [Eh]
	 Correlation Energy        =      -1.7631558710654884 [Eh]
	 Total Energy              =    -401.5341280115366089 [Eh]

	 ================> DF-SCS-MP2 Energies <==================
	-----------------------------------------------------------
	 SCS Same-Spin Scale       =       0.3333333333333333 [-]
	 SCS Opposite-Spin Scale   =       1.2000000000000000 [-]
	 SCS Same-Spin Energy      =      -0.1410747437494103 [Eh]
	 SCS Opposite-Spin Energy  =      -1.6079179677807087 [Eh]
	 SCS Correlation Energy    =      -1.7489927115301189 [Eh]
	 SCS Total Energy          =    -401.5199648520012374 [Eh]
	-----------------------------------------------------------

  Dipole Moment: [D]
     X:    -0.8301      Y:    -3.8180      Z:     0.0404     Total:     3.9074

*** Psi4 exiting successfully. Buy a developer a beer!
