                               Psi4 1.4a3.dev225

  ==> Input File <==

--------------------------------------------------------------------------
#psi4
#
memory 32 gb

molecule  {
0 1
  O        0.6831730     1.9514370    -0.1851230
  N        0.3221270    -0.3206750    -0.2979720
  C        1.7580560    -0.4955670    -0.5492050
  C       -0.1211040     1.0090560    -0.1118080
  C       -0.4973450    -1.4105120    -0.1972350
  C        2.5603930    -0.4317450     0.7423750
  C       -1.5372540     1.1223260     0.1526570
  C       -1.8807553    -1.2732027     0.0811008
  C       -2.3551590     0.0280850     0.2487950
  H        1.8855710    -1.4559800    -1.0561060
  H        2.0595230     0.3051280    -1.2266110
  H       -0.0197130    -2.3738180    -0.3527730
  H        2.4186300     0.5432120     1.2108420
  H        2.2423160    -1.2153800     1.4354410
  H        3.6255180    -0.5665000     0.5315230
  H       -1.9126600     2.1320090     0.2855670
  H       -2.4591310    -2.1595270     0.1391440
  H       -3.4140320     0.1624990     0.4585800
units angstrom
no_reorient  #important for SAPT in psi4, default
symmetry c1  #important for SAPT in psi4, default
}

set PROPERTIES_ORIGIN ["COM"]
properties('MP2/aug-cc-pvtz', properties = ['dipole'])
--------------------------------------------------------------------------

    Molecular point group: c1
  Charge       = 0
  Multiplicity = 1
  Basis Set: AUG-CC-PVTZ
    Blend: AUG-CC-PVTZ
  Basis Set: (AUG-CC-PVTZ AUX)
    Blend: AUG-CC-PVTZ-JKFIT

    Orbital Energies [Eh]
    ---------------------

    Doubly Occupied:

       1A    -20.504605     2A    -15.631062     3A    -11.348907
       4A    -11.318609     5A    -11.275791     6A    -11.267718
       7A    -11.241862     8A    -11.234145     9A    -11.222542
      10A     -1.368819    11A     -1.279167    12A     -1.119016
      13A     -1.030010    14A     -1.016347    15A     -0.897242
      16A     -0.873532    17A     -0.823613    18A     -0.715438
      19A     -0.700231    20A     -0.668459    21A     -0.642744
      22A     -0.613715    23A     -0.610706    24A     -0.602278
      25A     -0.559332    26A     -0.544650    27A     -0.529599
      28A     -0.524475    29A     -0.506729    30A     -0.472709
      31A     -0.420032    32A     -0.410374    33A     -0.302765

  @DF-RHF Final Energy:  -399.76643261965455

   => Energetics <=

    Nuclear Repulsion Energy =            436.8162748300732119
    One-Electron Energy =               -1408.6109702146184190
    Two-Electron Energy =                 572.0282627648906555
    Total Energy =                       -399.7664326196545517
  Basis Set: (AUG-CC-PVTZ AUX)
    Blend: AUG-CC-PVTZ-RI
    Molecular point group: c1

    Geometry (in Angstrom), charge = 0, multiplicity = 1:

       Center              X                  Y                   Z               Mass
    ------------   -----------------  -----------------  -----------------  -----------------
         O            0.723632624461     1.913739739965    -0.174587148563    15.994914619570
         N            0.362586624461    -0.358372260035    -0.287436148563    14.003074004430
         C            1.798515624461    -0.533264260035    -0.538669148563    12.000000000000
         C           -0.080644375539     0.971358739965    -0.101272148563    12.000000000000
         C           -0.456885375539    -1.448209260035    -0.186699148563    12.000000000000
         C            2.600852624461    -0.469442260035     0.752910851437    12.000000000000
         C           -1.496794375539     1.084628739965     0.163192851437    12.000000000000
         C           -1.840295675539    -1.310899960035     0.091636651437    12.000000000000
         C           -2.314699375539    -0.009612260035     0.259330851437    12.000000000000
         H            1.926030624461    -1.493677260035    -1.045570148563     1.007825032230
         H            2.099982624461     0.267430739965    -1.216075148563     1.007825032230
         H            0.020746624461    -2.411515260035    -0.342237148563     1.007825032230
         H            2.459089624461     0.505514739965     1.221377851437     1.007825032230
         H            2.282775624461    -1.253077260035     1.445976851437     1.007825032230
         H            3.665977624461    -0.604197260035     0.542058851437     1.007825032230
         H           -1.872200375539     2.094311739965     0.296102851437     1.007825032230
         H           -2.418671375539    -2.197224260035     0.149679851437     1.007825032230
         H           -3.373572375539     0.124801739965     0.469115851437     1.007825032230

  Basis Set: AUG-CC-PVTZ
    Blend: AUG-CC-PVTZ
  Basis Set: (AUG-CC-PVTZ AUX)
    Blend: AUG-CC-PVTZ-JKFIT
	 Reference Energy          =    -399.7664326196545517 [Eh]
	 Singles Energy            =      -0.0000000000000000 [Eh]
	 Same-Spin Energy          =      -0.4243813148990384 [Eh]
	 Opposite-Spin Energy      =      -1.3408718452561641 [Eh]
	 Correlation Energy        =      -1.7652531601552024 [Eh]
	 Total Energy              =    -401.5316857798097772 [Eh]

	 ================> DF-SCS-MP2 Energies <==================
	-----------------------------------------------------------
	 SCS Same-Spin Scale       =       0.3333333333333333 [-]
	 SCS Opposite-Spin Scale   =       1.2000000000000000 [-]
	 SCS Same-Spin Energy      =      -0.1414604382996795 [Eh]
	 SCS Opposite-Spin Energy  =      -1.6090462143073969 [Eh]
	 SCS Correlation Energy    =      -1.7505066526070763 [Eh]
	 SCS Total Energy          =    -401.5169392722616521 [Eh]
	-----------------------------------------------------------

  Dipole Moment: [D]
     X:    -0.6783      Y:    -3.8809      Z:     0.0198     Total:     3.9398

*** Psi4 exiting successfully. Buy a developer a beer!
