                               Psi4 1.3.2 release

  ==> Input File <==

--------------------------------------------------------------------------
#psi4
#
memory 32 gb

molecule  {
0 1
  O        0.6831730     1.9514370    -0.1851230
  N        0.3221270    -0.3206750    -0.2979720
  C        1.7580560    -0.4955670    -0.5492050
  C       -0.1211040     1.0090560    -0.1118080
  C       -0.4973450    -1.4105120    -0.1972350
  C        2.5603930    -0.4317450     0.7423750
  C       -1.5372540     1.1223260     0.1526570
  C       -1.8319680    -1.2780450     0.0712850
  C       -2.4621559     0.1197674     0.2751614
  H        1.8855710    -1.4559800    -1.0561060
  H        2.0595230     0.3051280    -1.2266110
  H       -0.0197130    -2.3738180    -0.3527730
  H        2.4186300     0.5432120     1.2108420
  H        2.2423160    -1.2153800     1.4354410
  H        3.6255180    -0.5665000     0.5315230
  H       -1.9126600     2.1320090     0.2855670
  H       -2.4591310    -2.1595270     0.1391440
  H       -3.4140320     0.1624990     0.4585800
units angstrom
no_reorient  #important for SAPT in psi4, default
symmetry c1  #important for SAPT in psi4, default
}

set PROPERTIES_ORIGIN ["COM"]
properties('MP2/aug-cc-pvtz', properties = ['dipole'])
--------------------------------------------------------------------------

    Molecular point group: c1
  Charge       = 0
  Multiplicity = 1
  Basis Set: AUG-CC-PVTZ
    Blend: AUG-CC-PVTZ
  Basis Set: (AUG-CC-PVTZ AUX)
    Blend: AUG-CC-PVTZ-JKFIT

    Orbital Energies [Eh]
    ---------------------

    Doubly Occupied:

       1A    -20.513641     2A    -15.620041     3A    -11.357068
       4A    -11.302453     5A    -11.274782     6A    -11.272100
       7A    -11.247237     8A    -11.244666     9A    -11.220034
      10A     -1.372441    11A     -1.275840    12A     -1.106711
      13A     -1.033152    14A     -1.011242    15A     -0.901087
      16A     -0.863250    17A     -0.833701    18A     -0.712400
      19A     -0.698474    20A     -0.681839    21A     -0.638324
      22A     -0.621603    23A     -0.608103    24A     -0.602055
      25A     -0.574663    26A     -0.532100    27A     -0.526774
      28A     -0.508977    29A     -0.499829    30A     -0.471186
      31A     -0.428412    32A     -0.402600    33A     -0.311178

  @DF-RHF Final Energy:  -399.74619733551583

   => Energetics <=

    Nuclear Repulsion Energy =            435.2528284436714898
    One-Electron Energy =               -1405.4621339584803081
    Two-Electron Energy =                 570.4631081792930445
    Total Energy =                       -399.7461973355158307
  Basis Set: (AUG-CC-PVTZ AUX)
    Blend: AUG-CC-PVTZ-RI
    Molecular point group: c1

    Geometry (in Angstrom), charge = 0, multiplicity = 1:

       Center              X                  Y                   Z               Mass
    ------------   -----------------  -----------------  -----------------  -----------------
         O            0.729308452870     1.905272244798    -0.176200943635    15.994914619570
         N            0.368262452870    -0.366839755202    -0.289049943635    14.003074004430
         C            1.804191452870    -0.541731755202    -0.540282943635    12.000000000000
         C           -0.074968547130     0.962891244798    -0.102885943635    12.000000000000
         C           -0.451209547130    -1.456676755202    -0.188312943635    12.000000000000
         C            2.606528452870    -0.477909755202     0.751297056365    12.000000000000
         C           -1.491118547130     1.076161244798     0.161579056365    12.000000000000
         C           -1.785832547130    -1.324209755202     0.080207056365    12.000000000000
         C           -2.416020447130     0.073602644798     0.284083456365    12.000000000000
         H            1.931706452870    -1.502144755202    -1.047183943635     1.007825032230
         H            2.105658452870     0.258963244798    -1.217688943635     1.007825032230
         H            0.026422452870    -2.419982755202    -0.343850943635     1.007825032230
         H            2.464765452870     0.497047244798     1.219764056365     1.007825032230
         H            2.288451452870    -1.261544755202     1.444363056365     1.007825032230
         H            3.671653452870    -0.612664755202     0.540445056365     1.007825032230
         H           -1.866524547130     2.085844244798     0.294489056365     1.007825032230
         H           -2.412995547130    -2.205691755202     0.148066056365     1.007825032230
         H           -3.367896547130     0.116334244798     0.467502056365     1.007825032230

  Basis Set: AUG-CC-PVTZ
    Blend: AUG-CC-PVTZ
  Basis Set: (AUG-CC-PVTZ AUX)
    Blend: AUG-CC-PVTZ-JKFIT
	 Reference Energy          =    -399.7461973355158307 [Eh]
	 Singles Energy            =      -0.0000000000000000 [Eh]
	 Same-Spin Energy          =      -0.4222739978572202 [Eh]
	 Opposite-Spin Energy      =      -1.3410773906119251 [Eh]
	 Correlation Energy        =      -1.7633513884691454 [Eh]
	 Total Energy              =    -401.5095487239849490 [Eh]

	 ================> DF-SCS-MP2 Energies <==================
	-----------------------------------------------------------
	 SCS Same-Spin Scale       =       0.3333333333333333 [-]
	 SCS Opposite-Spin Scale   =       1.2000000000000000 [-]
	 SCS Same-Spin Energy      =      -0.1407579992857401 [Eh]
	 SCS Opposite-Spin Energy  =      -1.6092928687343100 [Eh]
	 SCS Correlation Energy    =      -1.7500508680200499 [Eh]
	 SCS Total Energy          =    -401.4962482035358562 [Eh]
	-----------------------------------------------------------

  Dipole Moment: [D]
     X:    -0.8358      Y:    -3.5771      Z:     0.0567     Total:     3.6739

*** Psi4 exiting successfully. Buy a developer a beer!
