                               Psi4 1.3.2 release

  ==> Input File <==

--------------------------------------------------------------------------
#psi4
#
memory 32 gb

molecule  {
0 1
  O        0.6831730     1.9514370    -0.1851230
  N        0.3221270    -0.3206750    -0.2979720
  C        1.7580560    -0.4955670    -0.5492050
  C       -0.1211040     1.0090560    -0.1118080
  C       -0.4973450    -1.4105120    -0.1972350
  C        2.5603930    -0.4317450     0.7423750
  C       -1.5372540     1.1223260     0.1526570
  C       -1.8319680    -1.2780450     0.0712850
  C       -2.3174412     0.0001424     0.2397575
  H        1.8855710    -1.4559800    -1.0561060
  H        2.0595230     0.3051280    -1.2266110
  H       -0.0197130    -2.3738180    -0.3527730
  H        2.4186300     0.5432120     1.2108420
  H        2.2423160    -1.2153800     1.4354410
  H        3.6255180    -0.5665000     0.5315230
  H       -1.9126600     2.1320090     0.2855670
  H       -2.4591310    -2.1595270     0.1391440
  H       -3.4140320     0.1624990     0.4585800
units angstrom
no_reorient  #important for SAPT in psi4, default
symmetry c1  #important for SAPT in psi4, default
}

set PROPERTIES_ORIGIN ["COM"]
properties('MP2/aug-cc-pvtz', properties = ['dipole'])
--------------------------------------------------------------------------

    Molecular point group: c1
  Charge       = 0
  Multiplicity = 1
  Basis Set: AUG-CC-PVTZ
    Blend: AUG-CC-PVTZ
  Basis Set: (AUG-CC-PVTZ AUX)
    Blend: AUG-CC-PVTZ-JKFIT

    Orbital Energies [Eh]
    ---------------------

    Doubly Occupied:

       1A    -20.503838     2A    -15.627604     3A    -11.347554
       4A    -11.311374     5A    -11.274544     6A    -11.269432
       7A    -11.237457     8A    -11.235040     9A    -11.221625
      10A     -1.368147    11A     -1.279436    12A     -1.124762
      13A     -1.030936    14A     -1.020674    15A     -0.896016
      16A     -0.872266    17A     -0.822225    18A     -0.716438
      19A     -0.702789    20A     -0.663675    21A     -0.640682
      22A     -0.611049    23A     -0.609116    24A     -0.605040
      25A     -0.554188    26A     -0.545174    27A     -0.529172
      28A     -0.525090    29A     -0.506647    30A     -0.476583
      31A     -0.418432    32A     -0.409953    33A     -0.307954

  @DF-RHF Final Energy:  -399.76823387120402

   => Energetics <=

    Nuclear Repulsion Energy =            438.2363863337871521
    One-Electron Energy =               -1411.4794172602209983
    Two-Electron Energy =                 573.4747970552299421
    Total Energy =                       -399.7682338712039609
  Basis Set: (AUG-CC-PVTZ AUX)
    Blend: AUG-CC-PVTZ-RI
    Molecular point group: c1

    Geometry (in Angstrom), charge = 0, multiplicity = 1:

       Center              X                  Y                   Z               Mass
    ------------   -----------------  -----------------  -----------------  -----------------
         O            0.715197794053     1.916936488729    -0.172748824716    15.994914619570
         N            0.354151794053    -0.355175511271    -0.285597824716    14.003074004430
         C            1.790080794053    -0.530067511271    -0.536830824716    12.000000000000
         C           -0.089079205947     0.974555488729    -0.099433824716    12.000000000000
         C           -0.465320205947    -1.445012511271    -0.184860824716    12.000000000000
         C            2.592417794053    -0.466245511271     0.754749175284    12.000000000000
         C           -1.505229205947     1.087825488729     0.165031175284    12.000000000000
         C           -1.799943205947    -1.312545511271     0.083659175284    12.000000000000
         C           -2.285416405947    -0.034358111271     0.252131675284    12.000000000000
         H            1.917595794053    -1.490480511271    -1.043731824716     1.007825032230
         H            2.091547794053     0.270627488729    -1.214236824716     1.007825032230
         H            0.012311794053    -2.408318511271    -0.340398824716     1.007825032230
         H            2.450654794053     0.508711488729     1.223216175284     1.007825032230
         H            2.274340794053    -1.249880511271     1.447815175284     1.007825032230
         H            3.657542794053    -0.601000511271     0.543897175284     1.007825032230
         H           -1.880635205947     2.097508488729     0.297941175284     1.007825032230
         H           -2.427106205947    -2.194027511271     0.151518175284     1.007825032230
         H           -3.382007205947     0.127998488729     0.470954175284     1.007825032230

  Basis Set: AUG-CC-PVTZ
    Blend: AUG-CC-PVTZ
  Basis Set: (AUG-CC-PVTZ AUX)
    Blend: AUG-CC-PVTZ-JKFIT
	 Reference Energy          =    -399.7682338712040178 [Eh]
	 Singles Energy            =      -0.0000000000000000 [Eh]
	 Same-Spin Energy          =      -0.4240548068185207 [Eh]
	 Opposite-Spin Energy      =      -1.3400698627236345 [Eh]
	 Correlation Energy        =      -1.7641246695421553 [Eh]
	 Total Energy              =    -401.5323585407461451 [Eh]

	 ================> DF-SCS-MP2 Energies <==================
	-----------------------------------------------------------
	 SCS Same-Spin Scale       =       0.3333333333333333 [-]
	 SCS Opposite-Spin Scale   =       1.2000000000000000 [-]
	 SCS Same-Spin Energy      =      -0.1413516022728402 [Eh]
	 SCS Opposite-Spin Energy  =      -1.6080838352683613 [Eh]
	 SCS Correlation Energy    =      -1.7494354375412016 [Eh]
	 SCS Total Energy          =    -401.5176693087452122 [Eh]
	-----------------------------------------------------------

  Dipole Moment: [D]
     X:    -0.7112      Y:    -3.8891      Z:     0.0203     Total:     3.9537

*** Psi4 exiting successfully. Buy a developer a beer!
