                               Psi4 1.3.2 release

  ==> Input File <==

--------------------------------------------------------------------------
#psi4
#
memory 32 gb

molecule  {
0 1
  O        0.6831730     1.9514370    -0.1851230
  N        0.2846306    -0.2926635    -0.2886454
  C        1.7580560    -0.4955670    -0.5492050
  C       -0.1211040     1.0090560    -0.1118080
  C       -0.4973450    -1.4105120    -0.1972350
  C        2.5603930    -0.4317450     0.7423750
  C       -1.5372540     1.1223260     0.1526570
  C       -1.8319680    -1.2780450     0.0712850
  C       -2.3551590     0.0280850     0.2487950
  H        1.8855710    -1.4559800    -1.0561060
  H        2.0595230     0.3051280    -1.2266110
  H       -0.0197130    -2.3738180    -0.3527730
  H        2.4186300     0.5432120     1.2108420
  H        2.2423160    -1.2153800     1.4354410
  H        3.6255180    -0.5665000     0.5315230
  H       -1.9126600     2.1320090     0.2855670
  H       -2.4591310    -2.1595270     0.1391440
  H       -3.4140320     0.1624990     0.4585800
units angstrom
no_reorient  #important for SAPT in psi4, default
symmetry c1  #important for SAPT in psi4, default
}

set PROPERTIES_ORIGIN ["COM"]
properties('MP2/aug-cc-pvtz', properties = ['dipole'])
--------------------------------------------------------------------------

    Molecular point group: c1
  Charge       = 0
  Multiplicity = 1
  Basis Set: AUG-CC-PVTZ
    Blend: AUG-CC-PVTZ
  Basis Set: (AUG-CC-PVTZ AUX)
    Blend: AUG-CC-PVTZ-JKFIT

    Orbital Energies [Eh]
    ---------------------

    Doubly Occupied:

       1A    -20.501159     2A    -15.625589     3A    -11.344622
       4A    -11.308001     5A    -11.277546     6A    -11.268665
       7A    -11.241014     8A    -11.236528     9A    -11.222531
      10A     -1.369501    11A     -1.276885    12A     -1.115804
      13A     -1.030864    14A     -1.023823    15A     -0.891761
      16A     -0.875757    17A     -0.823671    18A     -0.716952
      19A     -0.698795    20A     -0.665351    21A     -0.638642
      22A     -0.613007    23A     -0.609724    24A     -0.604897
      25A     -0.559694    26A     -0.539707    27A     -0.529068
      28A     -0.520400    29A     -0.507179    30A     -0.473478
      31A     -0.418713    32A     -0.408021    33A     -0.310048

  @DF-RHF Final Energy:  -399.76983057951907

   => Energetics <=

    Nuclear Repulsion Energy =            437.7943516107185360
    One-Electron Energy =               -1410.6335703382337670
    Two-Electron Energy =                 573.0693881479961647
    Total Energy =                       -399.7698305795190663
  Basis Set: (AUG-CC-PVTZ AUX)
    Blend: AUG-CC-PVTZ-RI
    Molecular point group: c1

    Geometry (in Angstrom), charge = 0, multiplicity = 1:

       Center              X                  Y                   Z               Mass
    ------------   -----------------  -----------------  -----------------  -----------------
         O            0.723141980810     1.911024668755    -0.174691248954    15.994914619570
         N            0.324599580810    -0.333075831245    -0.278213648954    14.003074004430
         C            1.798024980810    -0.535979331245    -0.538773248954    12.000000000000
         C           -0.081135019190     0.968643668755    -0.101376248954    12.000000000000
         C           -0.457376019190    -1.450924331245    -0.186803248954    12.000000000000
         C            2.600361980810    -0.472157331245     0.752806751046    12.000000000000
         C           -1.497285019190     1.081913668755     0.163088751046    12.000000000000
         C           -1.791999019190    -1.318457331245     0.081716751046    12.000000000000
         C           -2.315190019190    -0.012327331245     0.259226751046    12.000000000000
         H            1.925539980810    -1.496392331245    -1.045674248954     1.007825032230
         H            2.099491980810     0.264715668755    -1.216179248954     1.007825032230
         H            0.020255980810    -2.414230331245    -0.342341248954     1.007825032230
         H            2.458598980810     0.502799668755     1.221273751046     1.007825032230
         H            2.282284980810    -1.255792331245     1.445872751046     1.007825032230
         H            3.665486980810    -0.606912331245     0.541954751046     1.007825032230
         H           -1.872691019190     2.091596668755     0.295998751046     1.007825032230
         H           -2.419162019190    -2.199939331245     0.149575751046     1.007825032230
         H           -3.374063019190     0.122086668755     0.469011751046     1.007825032230

  Basis Set: AUG-CC-PVTZ
    Blend: AUG-CC-PVTZ
  Basis Set: (AUG-CC-PVTZ AUX)
    Blend: AUG-CC-PVTZ-JKFIT
	 Reference Energy          =    -399.7698305795190663 [Eh]
	 Singles Energy            =      -0.0000000000000000 [Eh]
	 Same-Spin Energy          =      -0.4232569858727215 [Eh]
	 Opposite-Spin Energy      =      -1.3396187012091354 [Eh]
	 Correlation Energy        =      -1.7628756870818569 [Eh]
	 Total Energy              =    -401.5327062666009397 [Eh]

	 ================> DF-SCS-MP2 Energies <==================
	-----------------------------------------------------------
	 SCS Same-Spin Scale       =       0.3333333333333333 [-]
	 SCS Opposite-Spin Scale   =       1.2000000000000000 [-]
	 SCS Same-Spin Energy      =      -0.1410856619575738 [Eh]
	 SCS Opposite-Spin Energy  =      -1.6075424414509625 [Eh]
	 SCS Correlation Energy    =      -1.7486281034085362 [Eh]
	 SCS Total Energy          =    -401.5184586829275872 [Eh]
	-----------------------------------------------------------

  Dipole Moment: [D]
     X:    -0.7318      Y:    -3.9675      Z:     0.0253     Total:     4.0345

*** Psi4 exiting successfully. Buy a developer a beer!
