                               Psi4 1.3.2 release

  ==> Input File <==

--------------------------------------------------------------------------
#psi4
#
memory 32 gb

molecule  {
0 1
  O        0.6831730     1.9514370    -0.1851230
  N        0.3221270    -0.3206750    -0.2979720
  C        1.9536606    -0.5193911    -0.5834284
  C       -0.1211040     1.0090560    -0.1118080
  C       -0.4973450    -1.4105120    -0.1972350
  C        2.5603930    -0.4317450     0.7423750
  C       -1.5372540     1.1223260     0.1526570
  C       -1.8319680    -1.2780450     0.0712850
  C       -2.3551590     0.0280850     0.2487950
  H        1.8855710    -1.4559800    -1.0561060
  H        2.0595230     0.3051280    -1.2266110
  H       -0.0197130    -2.3738180    -0.3527730
  H        2.4186300     0.5432120     1.2108420
  H        2.2423160    -1.2153800     1.4354410
  H        3.6255180    -0.5665000     0.5315230
  H       -1.9126600     2.1320090     0.2855670
  H       -2.4591310    -2.1595270     0.1391440
  H       -3.4140320     0.1624990     0.4585800
units angstrom
no_reorient  #important for SAPT in psi4, default
symmetry c1  #important for SAPT in psi4, default
}

set PROPERTIES_ORIGIN ["COM"]
properties('MP2/aug-cc-pvtz', properties = ['dipole'])
--------------------------------------------------------------------------

    Molecular point group: c1
  Charge       = 0
  Multiplicity = 1
  Basis Set: AUG-CC-PVTZ
    Blend: AUG-CC-PVTZ
  Basis Set: (AUG-CC-PVTZ AUX)
    Blend: AUG-CC-PVTZ-JKFIT

    Orbital Energies [Eh]
    ---------------------

    Doubly Occupied:

       1A    -20.498058     2A    -15.611847     3A    -11.341407
       4A    -11.301745     5A    -11.289886     6A    -11.263973
       7A    -11.232553     8A    -11.229914     9A    -11.228399
      10A     -1.355912    11A     -1.252500    12A     -1.107245
      13A     -1.046844    14A     -1.014981    15A     -0.885675
      16A     -0.860339    17A     -0.827074    18A     -0.704983
      19A     -0.694004    20A     -0.655247    21A     -0.639486
      22A     -0.619702    23A     -0.604847    24A     -0.595647
      25A     -0.564509    26A     -0.555094    27A     -0.532423
      28A     -0.525710    29A     -0.492409    30A     -0.470721
      31A     -0.410480    32A     -0.403725    33A     -0.301428

  @DF-RHF Final Energy:  -399.74359191917210

   => Energetics <=

    Nuclear Repulsion Energy =            434.2672173304706007
    One-Electron Energy =               -1403.7840827871509646
    Two-Electron Energy =                 569.7732735375082029
    Total Energy =                       -399.7435919191721041
  Basis Set: (AUG-CC-PVTZ AUX)
    Blend: AUG-CC-PVTZ-RI
    Molecular point group: c1

    Geometry (in Angstrom), charge = 0, multiplicity = 1:

       Center              X                  Y                   Z               Mass
    ------------   -----------------  -----------------  -----------------  -----------------
         O            0.699802766687     1.916534907214    -0.170293029680    15.994914619570
         N            0.338756766687    -0.355577092786    -0.283142029680    14.003074004430
         C            1.970290366687    -0.554293192786    -0.568598429680    12.000000000000
         C           -0.104474233313     0.974153907214    -0.096978029680    12.000000000000
         C           -0.480715233313    -1.445414092786    -0.182405029680    12.000000000000
         C            2.577022766687    -0.466647092786     0.757204970320    12.000000000000
         C           -1.520624233313     1.087423907214     0.167486970320    12.000000000000
         C           -1.815338233313    -1.312947092786     0.086114970320    12.000000000000
         C           -2.338529233313    -0.006817092786     0.263624970320    12.000000000000
         H            1.902200766687    -1.490882092786    -1.041276029680     1.007825032230
         H            2.076152766687     0.270225907214    -1.211781029680     1.007825032230
         H           -0.003083233313    -2.408720092786    -0.337943029680     1.007825032230
         H            2.435259766687     0.508309907214     1.225671970320     1.007825032230
         H            2.258945766687    -1.250282092786     1.450270970320     1.007825032230
         H            3.642147766687    -0.601402092786     0.546352970320     1.007825032230
         H           -1.896030233313     2.097106907214     0.300396970320     1.007825032230
         H           -2.442501233313    -2.194429092786     0.153973970320     1.007825032230
         H           -3.397402233313     0.127596907214     0.473409970320     1.007825032230

  Basis Set: AUG-CC-PVTZ
    Blend: AUG-CC-PVTZ
  Basis Set: (AUG-CC-PVTZ AUX)
    Blend: AUG-CC-PVTZ-JKFIT
	 Reference Energy          =    -399.7435919191721041 [Eh]
	 Singles Energy            =      -0.0000000000000000 [Eh]
	 Same-Spin Energy          =      -0.4242423601163312 [Eh]
	 Opposite-Spin Energy      =      -1.3418068396818159 [Eh]
	 Correlation Energy        =      -1.7660491997981471 [Eh]
	 Total Energy              =    -401.5096411189702508 [Eh]

	 ================> DF-SCS-MP2 Energies <==================
	-----------------------------------------------------------
	 SCS Same-Spin Scale       =       0.3333333333333333 [-]
	 SCS Opposite-Spin Scale   =       1.2000000000000000 [-]
	 SCS Same-Spin Energy      =      -0.1414141200387771 [Eh]
	 SCS Opposite-Spin Energy  =      -1.6101682076181791 [Eh]
	 SCS Correlation Energy    =      -1.7515823276569562 [Eh]
	 SCS Total Energy          =    -401.4951742468290377 [Eh]
	-----------------------------------------------------------

  Dipole Moment: [D]
     X:    -0.0874      Y:    -3.9783      Z:     0.0250     Total:     3.9793

*** Psi4 exiting successfully. Buy a developer a beer!
