                               Psi4 1.3.2 release

  ==> Input File <==

--------------------------------------------------------------------------
#psi4
#
memory 32 gb

molecule  {
0 1
  O        0.6831730     1.9514370    -0.1851230
  N        0.3221270    -0.3206750    -0.2979720
  C        1.7580560    -0.4955670    -0.5492050
  C       -0.1211040     1.0090560    -0.1118080
  C       -0.4973450    -1.4105120    -0.1972350
  C        2.5603930    -0.4317450     0.7423750
  C       -1.4302178     1.0306318     0.1264917
  C       -1.8319680    -1.2780450     0.0712850
  C       -2.3551590     0.0280850     0.2487950
  H        1.8855710    -1.4559800    -1.0561060
  H        2.0595230     0.3051280    -1.2266110
  H       -0.0197130    -2.3738180    -0.3527730
  H        2.4186300     0.5432120     1.2108420
  H        2.2423160    -1.2153800     1.4354410
  H        3.6255180    -0.5665000     0.5315230
  H       -1.9126600     2.1320090     0.2855670
  H       -2.4591310    -2.1595270     0.1391440
  H       -3.4140320     0.1624990     0.4585800
units angstrom
no_reorient  #important for SAPT in psi4, default
symmetry c1  #important for SAPT in psi4, default
}

set PROPERTIES_ORIGIN ["COM"]
properties('MP2/aug-cc-pvtz', properties = ['dipole'])
--------------------------------------------------------------------------

    Molecular point group: c1
  Charge       = 0
  Multiplicity = 1
  Basis Set: AUG-CC-PVTZ
    Blend: AUG-CC-PVTZ
  Basis Set: (AUG-CC-PVTZ AUX)
    Blend: AUG-CC-PVTZ-JKFIT

    Orbital Energies [Eh]
    ---------------------

    Doubly Occupied:

       1A    -20.497718     2A    -15.627689     3A    -11.336631
       4A    -11.311073     5A    -11.279047     6A    -11.273254
       7A    -11.242246     8A    -11.234859     9A    -11.221070
      10A     -1.368220    11A     -1.279142    12A     -1.127328
      13A     -1.037827    14A     -1.024962    15A     -0.907643
      16A     -0.863420    17A     -0.834322    18A     -0.715242
      19A     -0.709476    20A     -0.665786    21A     -0.632280
      22A     -0.616631    23A     -0.606906    24A     -0.604736
      25A     -0.569747    26A     -0.535634    27A     -0.528490
      28A     -0.508909    29A     -0.490331    30A     -0.474828
      31A     -0.421870    32A     -0.406983    33A     -0.312979

  @DF-RHF Final Energy:  -399.74267166850683

   => Energetics <=

    Nuclear Repulsion Energy =            440.1768311273611971
    One-Electron Energy =               -1415.3044497429289095
    Two-Electron Energy =                 575.3849469470608256
    Total Energy =                       -399.7426716685068868
  Basis Set: (AUG-CC-PVTZ AUX)
    Blend: AUG-CC-PVTZ-RI
    Molecular point group: c1

    Geometry (in Angstrom), charge = 0, multiplicity = 1:

       Center              X                  Y                   Z               Mass
    ------------   -----------------  -----------------  -----------------  -----------------
         O            0.708438782755     1.923152699498    -0.171078748752    15.994914619570
         N            0.347392782755    -0.348959300502    -0.283927748752    14.003074004430
         C            1.783321782755    -0.523851300502    -0.535160748752    12.000000000000
         C           -0.095838217245     0.980771699498    -0.097763748752    12.000000000000
         C           -0.472079217245    -1.438796300502    -0.183190748752    12.000000000000
         C            2.585658782755    -0.460029300502     0.756419251248    12.000000000000
         C           -1.404952017245     1.002347499498     0.140535951248    12.000000000000
         C           -1.806702217245    -1.306329300502     0.085329251248    12.000000000000
         C           -2.329893217245    -0.000199300502     0.262839251248    12.000000000000
         H            1.910836782755    -1.484264300502    -1.042061748752     1.007825032230
         H            2.084788782755     0.276843699498    -1.212566748752     1.007825032230
         H            0.005552782755    -2.402102300502    -0.338728748752     1.007825032230
         H            2.443895782755     0.514927699498     1.224886251248     1.007825032230
         H            2.267581782755    -1.243664300502     1.449485251248     1.007825032230
         H            3.650783782755    -0.594784300502     0.545567251248     1.007825032230
         H           -1.887394217245     2.103724699498     0.299611251248     1.007825032230
         H           -2.433865217245    -2.187811300502     0.153188251248     1.007825032230
         H           -3.388766217245     0.134214699498     0.472624251248     1.007825032230

  Basis Set: AUG-CC-PVTZ
    Blend: AUG-CC-PVTZ
  Basis Set: (AUG-CC-PVTZ AUX)
    Blend: AUG-CC-PVTZ-JKFIT
	 Reference Energy          =    -399.7426716685068300 [Eh]
	 Singles Energy            =      -0.0000000000000000 [Eh]
	 Same-Spin Energy          =      -0.4264849196746736 [Eh]
	 Opposite-Spin Energy      =      -1.3431316749895570 [Eh]
	 Correlation Energy        =      -1.7696165946642306 [Eh]
	 Total Energy              =    -401.5122882631710581 [Eh]

	 ================> DF-SCS-MP2 Energies <==================
	-----------------------------------------------------------
	 SCS Same-Spin Scale       =       0.3333333333333333 [-]
	 SCS Opposite-Spin Scale   =       1.2000000000000000 [-]
	 SCS Same-Spin Energy      =      -0.1421616398915579 [Eh]
	 SCS Opposite-Spin Energy  =      -1.6117580099874684 [Eh]
	 SCS Correlation Energy    =      -1.7539196498790264 [Eh]
	 SCS Total Energy          =    -401.4965913183858675 [Eh]
	-----------------------------------------------------------

  Dipole Moment: [D]
     X:    -0.9120      Y:    -4.1113      Z:     0.0487     Total:     4.2115

*** Psi4 exiting successfully. Buy a developer a beer!
