                               Psi4 1.3.2 release

  ==> Input File <==

--------------------------------------------------------------------------
#psi4
#
memory 32 gb

molecule  {
0 1
  O        0.6831730     1.9514370    -0.1851230
  N        0.2461815    -0.2660139    -0.2792075
  C        1.7580560    -0.4955670    -0.5492050
  C       -0.1211040     1.0090560    -0.1118080
  C       -0.4973450    -1.4105120    -0.1972350
  C        2.5603930    -0.4317450     0.7423750
  C       -1.5372540     1.1223260     0.1526570
  C       -1.8319680    -1.2780450     0.0712850
  C       -2.3551590     0.0280850     0.2487950
  H        1.8855710    -1.4559800    -1.0561060
  H        2.0595230     0.3051280    -1.2266110
  H       -0.0197130    -2.3738180    -0.3527730
  H        2.4186300     0.5432120     1.2108420
  H        2.2423160    -1.2153800     1.4354410
  H        3.6255180    -0.5665000     0.5315230
  H       -1.9126600     2.1320090     0.2855670
  H       -2.4591310    -2.1595270     0.1391440
  H       -3.4140320     0.1624990     0.4585800
units angstrom
no_reorient  #important for SAPT in psi4, default
symmetry c1  #important for SAPT in psi4, default
}

set PROPERTIES_ORIGIN ["COM"]
properties('MP2/aug-cc-pvtz', properties = ['dipole'])
--------------------------------------------------------------------------

    Molecular point group: c1
  Charge       = 0
  Multiplicity = 1
  Basis Set: AUG-CC-PVTZ
    Blend: AUG-CC-PVTZ
  Basis Set: (AUG-CC-PVTZ AUX)
    Blend: AUG-CC-PVTZ-JKFIT

    Orbital Energies [Eh]
    ---------------------

    Doubly Occupied:

       1A    -20.496154     2A    -15.625373     3A    -11.339228
       4A    -11.307407     5A    -11.281273     6A    -11.266660
       7A    -11.242027     8A    -11.236058     9A    -11.223946
      10A     -1.370651    11A     -1.276307    12A     -1.112647
      13A     -1.033333    14A     -1.027525    15A     -0.888210
      16A     -0.880397    17A     -0.822856    18A     -0.720249
      19A     -0.696956    20A     -0.663908    21A     -0.637858
      22A     -0.613435    23A     -0.610263    24A     -0.604282
      25A     -0.559637    26A     -0.540708    27A     -0.529451
      28A     -0.513286    29A     -0.507702    30A     -0.471956
      31A     -0.415790    32A     -0.407873    33A     -0.311411

  @DF-RHF Final Energy:  -399.76273109456622

   => Energetics <=

    Nuclear Repulsion Energy =            438.1801538559591336
    One-Electron Energy =               -1411.4161373735687448
    Two-Electron Energy =                 573.4732524230433910
    Total Energy =                       -399.7627310945662202
  Basis Set: (AUG-CC-PVTZ AUX)
    Blend: AUG-CC-PVTZ-RI
    Molecular point group: c1

    Geometry (in Angstrom), charge = 0, multiplicity = 1:

       Center              X                  Y                   Z               Mass
    ------------   -----------------  -----------------  -----------------  -----------------
         O            0.727516828715     1.907992401505    -0.175765120046    15.994914619570
         N            0.290525328715    -0.309458498495    -0.269849620046    14.003074004430
         C            1.802399828715    -0.539011598495    -0.539847120046    12.000000000000
         C           -0.076760171285     0.965611401505    -0.102450120046    12.000000000000
         C           -0.453001171285    -1.453956598495    -0.187877120046    12.000000000000
         C            2.604736828715    -0.475189598495     0.751732879954    12.000000000000
         C           -1.492910171285     1.078881401505     0.162014879954    12.000000000000
         C           -1.787624171285    -1.321489598495     0.080642879954    12.000000000000
         C           -2.310815171285    -0.015359598495     0.258152879954    12.000000000000
         H            1.929914828715    -1.499424598495    -1.046748120046     1.007825032230
         H            2.103866828715     0.261683401505    -1.217253120046     1.007825032230
         H            0.024630828715    -2.417262598495    -0.343415120046     1.007825032230
         H            2.462973828715     0.499767401505     1.220199879954     1.007825032230
         H            2.286659828715    -1.258824598495     1.444798879954     1.007825032230
         H            3.669861828715    -0.609944598495     0.540880879954     1.007825032230
         H           -1.868316171285     2.088564401505     0.294924879954     1.007825032230
         H           -2.414787171285    -2.202971598495     0.148501879954     1.007825032230
         H           -3.369688171285     0.119054401505     0.467937879954     1.007825032230

  Basis Set: AUG-CC-PVTZ
    Blend: AUG-CC-PVTZ
  Basis Set: (AUG-CC-PVTZ AUX)
    Blend: AUG-CC-PVTZ-JKFIT
	 Reference Energy          =    -399.7627310945662202 [Eh]
	 Singles Energy            =      -0.0000000000000000 [Eh]
	 Same-Spin Energy          =      -0.4232906367068109 [Eh]
	 Opposite-Spin Energy      =      -1.3398594311745922 [Eh]
	 Correlation Energy        =      -1.7631500678814032 [Eh]
	 Total Energy              =    -401.5258811624476039 [Eh]

	 ================> DF-SCS-MP2 Energies <==================
	-----------------------------------------------------------
	 SCS Same-Spin Scale       =       0.3333333333333333 [-]
	 SCS Opposite-Spin Scale   =       1.2000000000000000 [-]
	 SCS Same-Spin Energy      =      -0.1410968789022703 [Eh]
	 SCS Opposite-Spin Energy  =      -1.6078313174095105 [Eh]
	 SCS Correlation Energy    =      -1.7489281963117809 [Eh]
	 SCS Total Energy          =    -401.5116592908780149 [Eh]
	-----------------------------------------------------------

  Dipole Moment: [D]
     X:    -0.7042      Y:    -4.1188      Z:     0.0193     Total:     4.1786

*** Psi4 exiting successfully. Buy a developer a beer!
