                               Psi4 1.3.2 release

  ==> Input File <==

--------------------------------------------------------------------------
#psi4
#
memory 32 gb

molecule  {
0 1
  O        0.6831730     1.9514370    -0.1851230
  N        0.3221270    -0.3206750    -0.2979720
  C        1.7635038    -0.4446182    -0.5483083
  C       -0.1211040     1.0090560    -0.1118080
  C       -0.4973450    -1.4105120    -0.1972350
  C        2.5603930    -0.4317450     0.7423750
  C       -1.5372540     1.1223260     0.1526570
  C       -1.8319680    -1.2780450     0.0712850
  C       -2.3551590     0.0280850     0.2487950
  H        1.8855710    -1.4559800    -1.0561060
  H        2.0595230     0.3051280    -1.2266110
  H       -0.0197130    -2.3738180    -0.3527730
  H        2.4186300     0.5432120     1.2108420
  H        2.2423160    -1.2153800     1.4354410
  H        3.6255180    -0.5665000     0.5315230
  H       -1.9126600     2.1320090     0.2855670
  H       -2.4591310    -2.1595270     0.1391440
  H       -3.4140320     0.1624990     0.4585800
units angstrom
no_reorient  #important for SAPT in psi4, default
symmetry c1  #important for SAPT in psi4, default
}

set PROPERTIES_ORIGIN ["COM"]
properties('MP2/aug-cc-pvtz', properties = ['dipole'])
--------------------------------------------------------------------------

    Molecular point group: c1
  Charge       = 0
  Multiplicity = 1
  Basis Set: AUG-CC-PVTZ
    Blend: AUG-CC-PVTZ
  Basis Set: (AUG-CC-PVTZ AUX)
    Blend: AUG-CC-PVTZ-JKFIT

    Orbital Energies [Eh]
    ---------------------

    Doubly Occupied:

       1A    -20.506464     2A    -15.625491     3A    -11.349372
       4A    -11.309596     5A    -11.274849     6A    -11.270689
       7A    -11.240587     8A    -11.236922     9A    -11.221117
      10A     -1.369770    11A     -1.277929    12A     -1.119481
      13A     -1.032472    14A     -1.018103    15A     -0.896689
      16A     -0.868327    17A     -0.825841    18A     -0.714392
      19A     -0.701796    20A     -0.666494    21A     -0.642093
      22A     -0.615720    23A     -0.606498    24A     -0.602831
      25A     -0.560829    26A     -0.539386    27A     -0.529384
      28A     -0.526986    29A     -0.504662    30A     -0.473405
      31A     -0.421335    32A     -0.408419    33A     -0.309078

  @DF-RHF Final Energy:  -399.76828367232565

   => Energetics <=

    Nuclear Repulsion Energy =            437.6266657796178379
    One-Electron Energy =               -1410.2558887307093300
    Two-Electron Energy =                 572.8609392787658408
    Total Energy =                       -399.7682836723256514
  Basis Set: (AUG-CC-PVTZ AUX)
    Blend: AUG-CC-PVTZ-RI
    Molecular point group: c1

    Geometry (in Angstrom), charge = 0, multiplicity = 1:

       Center              X                  Y                   Z               Mass
    ------------   -----------------  -----------------  -----------------  -----------------
         O            0.718344336595     1.909244045396    -0.173717476186    15.994914619570
         N            0.357298336595    -0.362867954604    -0.286566476186    14.003074004430
         C            1.798675136595    -0.486811154604    -0.536902776186    12.000000000000
         C           -0.085932663405     0.966863045396    -0.100402476186    12.000000000000
         C           -0.462173663405    -1.452704954604    -0.185829476186    12.000000000000
         C            2.595564336595    -0.473937954604     0.753780523814    12.000000000000
         C           -1.502082663405     1.080133045396     0.164062523814    12.000000000000
         C           -1.796796663405    -1.320237954604     0.082690523814    12.000000000000
         C           -2.319987663405    -0.014107954604     0.260200523814    12.000000000000
         H            1.920742336595    -1.498172954604    -1.044700476186     1.007825032230
         H            2.094694336595     0.262935045396    -1.215205476186     1.007825032230
         H            0.015458336595    -2.416010954604    -0.341367476186     1.007825032230
         H            2.453801336595     0.501019045396     1.222247523814     1.007825032230
         H            2.277487336595    -1.257572954604     1.446846523814     1.007825032230
         H            3.660689336595    -0.608692954604     0.542928523814     1.007825032230
         H           -1.877488663405     2.089816045396     0.296972523814     1.007825032230
         H           -2.423959663405    -2.201719954604     0.150549523814     1.007825032230
         H           -3.378860663405     0.120306045396     0.469985523814     1.007825032230

  Basis Set: AUG-CC-PVTZ
    Blend: AUG-CC-PVTZ
  Basis Set: (AUG-CC-PVTZ AUX)
    Blend: AUG-CC-PVTZ-JKFIT
	 Reference Energy          =    -399.7682836723256514 [Eh]
	 Singles Energy            =      -0.0000000000000000 [Eh]
	 Same-Spin Energy          =      -0.4234911800503271 [Eh]
	 Opposite-Spin Energy      =      -1.3400069440713518 [Eh]
	 Correlation Energy        =      -1.7634981241216789 [Eh]
	 Total Energy              =    -401.5317817964473193 [Eh]

	 ================> DF-SCS-MP2 Energies <==================
	-----------------------------------------------------------
	 SCS Same-Spin Scale       =       0.3333333333333333 [-]
	 SCS Opposite-Spin Scale   =       1.2000000000000000 [-]
	 SCS Same-Spin Energy      =      -0.1411637266834423 [Eh]
	 SCS Opposite-Spin Energy  =      -1.6080083328856221 [Eh]
	 SCS Correlation Energy    =      -1.7491720595690645 [Eh]
	 SCS Total Energy          =    -401.5174557318946995 [Eh]
	-----------------------------------------------------------

  Dipole Moment: [D]
     X:    -0.7679      Y:    -3.7717      Z:     0.0467     Total:     3.8493

*** Psi4 exiting successfully. Buy a developer a beer!
