                               Psi4 1.3.2 release

  ==> Input File <==

--------------------------------------------------------------------------
#psi4
#
memory 32 gb

molecule  {
0 1
  O        0.6831730     1.9514370    -0.1851230
  N        0.3221270    -0.3206750    -0.2979720
  C        1.7580560    -0.4955670    -0.5492050
  C       -0.0981775     1.0170793    -0.1161678
  C       -0.4973450    -1.4105120    -0.1972350
  C        2.5603930    -0.4317450     0.7423750
  C       -1.5372540     1.1223260     0.1526570
  C       -1.8319680    -1.2780450     0.0712850
  C       -2.3551590     0.0280850     0.2487950
  H        1.8855710    -1.4559800    -1.0561060
  H        2.0595230     0.3051280    -1.2266110
  H       -0.0197130    -2.3738180    -0.3527730
  H        2.4186300     0.5432120     1.2108420
  H        2.2423160    -1.2153800     1.4354410
  H        3.6255180    -0.5665000     0.5315230
  H       -1.9126600     2.1320090     0.2855670
  H       -2.4591310    -2.1595270     0.1391440
  H       -3.4140320     0.1624990     0.4585800
units angstrom
no_reorient  #important for SAPT in psi4, default
symmetry c1  #important for SAPT in psi4, default
}

set PROPERTIES_ORIGIN ["COM"]
properties('MP2/aug-cc-pvtz', properties = ['dipole'])
--------------------------------------------------------------------------

    Molecular point group: c1
  Charge       = 0
  Multiplicity = 1
  Basis Set: AUG-CC-PVTZ
    Blend: AUG-CC-PVTZ
  Basis Set: (AUG-CC-PVTZ AUX)
    Blend: AUG-CC-PVTZ-JKFIT

    Orbital Energies [Eh]
    ---------------------

    Doubly Occupied:

       1A    -20.511429     2A    -15.623069     3A    -11.350796
       4A    -11.307133     5A    -11.273262     6A    -11.267836
       7A    -11.238473     8A    -11.237275     9A    -11.221362
      10A     -1.381327    11A     -1.281650    12A     -1.116403
      13A     -1.029418    14A     -1.016141    15A     -0.893424
      16A     -0.869827    17A     -0.822296    18A     -0.713386
      19A     -0.699678    20A     -0.667431    21A     -0.640006
      22A     -0.613587    23A     -0.610388    24A     -0.606170
      25A     -0.561814    26A     -0.538709    27A     -0.531466
      28A     -0.526700    29A     -0.505680    30A     -0.479521
      31A     -0.422673    32A     -0.406563    33A     -0.307427

  @DF-RHF Final Energy:  -399.77221152963097

   => Energetics <=

    Nuclear Repulsion Energy =            437.4975198958739497
    One-Electron Energy =               -1409.9948210828167703
    Two-Electron Energy =                 572.7250896573118553
    Total Energy =                       -399.7722115296310221
  Basis Set: (AUG-CC-PVTZ AUX)
    Blend: AUG-CC-PVTZ-RI
    Molecular point group: c1

    Geometry (in Angstrom), charge = 0, multiplicity = 1:

       Center              X                  Y                   Z               Mass
    ------------   -----------------  -----------------  -----------------  -----------------
         O            0.716640045515     1.913429571021    -0.173204932000    15.994914619570
         N            0.355594045515    -0.358682428979    -0.286053932000    14.003074004430
         C            1.791523045515    -0.533574428979    -0.537286932000    12.000000000000
         C           -0.064710454485     0.979071871021    -0.104249732000    12.000000000000
         C           -0.463877954485    -1.448519428979    -0.185316932000    12.000000000000
         C            2.593860045515    -0.469752428979     0.754293068000    12.000000000000
         C           -1.503786954485     1.084318571021     0.164575068000    12.000000000000
         C           -1.798500954485    -1.316052428979     0.083203068000    12.000000000000
         C           -2.321691954485    -0.009922428979     0.260713068000    12.000000000000
         H            1.919038045515    -1.493987428979    -1.044187932000     1.007825032230
         H            2.092990045515     0.267120571021    -1.214692932000     1.007825032230
         H            0.013754045515    -2.411825428979    -0.340854932000     1.007825032230
         H            2.452097045515     0.505204571021     1.222760068000     1.007825032230
         H            2.275783045515    -1.253387428979     1.447359068000     1.007825032230
         H            3.658985045515    -0.604507428979     0.543441068000     1.007825032230
         H           -1.879192954485     2.094001571021     0.297485068000     1.007825032230
         H           -2.425663954485    -2.197534428979     0.151062068000     1.007825032230
         H           -3.380564954485     0.124491571021     0.470498068000     1.007825032230

  Basis Set: AUG-CC-PVTZ
    Blend: AUG-CC-PVTZ
  Basis Set: (AUG-CC-PVTZ AUX)
    Blend: AUG-CC-PVTZ-JKFIT
	 Reference Energy          =    -399.7722115296309653 [Eh]
	 Singles Energy            =      -0.0000000000000000 [Eh]
	 Same-Spin Energy          =      -0.4228333006791711 [Eh]
	 Opposite-Spin Energy      =      -1.3390234109485872 [Eh]
	 Correlation Energy        =      -1.7618567116277584 [Eh]
	 Total Energy              =    -401.5340682412587512 [Eh]

	 ================> DF-SCS-MP2 Energies <==================
	-----------------------------------------------------------
	 SCS Same-Spin Scale       =       0.3333333333333333 [-]
	 SCS Opposite-Spin Scale   =       1.2000000000000000 [-]
	 SCS Same-Spin Energy      =      -0.1409444335597237 [Eh]
	 SCS Opposite-Spin Energy  =      -1.6068280931383045 [Eh]
	 SCS Correlation Energy    =      -1.7477725266980282 [Eh]
	 SCS Total Energy          =    -401.5199840563290081 [Eh]
	-----------------------------------------------------------

  Dipole Moment: [D]
     X:    -0.6364      Y:    -3.6708      Z:     0.0175     Total:     3.7256

*** Psi4 exiting successfully. Buy a developer a beer!
