                               Psi4 1.3.2 release

  ==> Input File <==

--------------------------------------------------------------------------
#psi4
#
memory 32 gb

molecule  {
0 1
  O        0.6831730     1.9514370    -0.1851230
  N        0.3221270    -0.3206750    -0.2979720
  C        1.7580560    -0.4955670    -0.5492050
  C       -0.1211040     1.0090560    -0.1118080
  C       -0.4973450    -1.4105120    -0.1972350
  C        2.5603930    -0.4317450     0.7423750
  C       -1.4392559     1.1144877     0.1343559
  C       -1.8319680    -1.2780450     0.0712850
  C       -2.3551590     0.0280850     0.2487950
  H        1.8855710    -1.4559800    -1.0561060
  H        2.0595230     0.3051280    -1.2266110
  H       -0.0197130    -2.3738180    -0.3527730
  H        2.4186300     0.5432120     1.2108420
  H        2.2423160    -1.2153800     1.4354410
  H        3.6255180    -0.5665000     0.5315230
  H       -1.9126600     2.1320090     0.2855670
  H       -2.4591310    -2.1595270     0.1391440
  H       -3.4140320     0.1624990     0.4585800
units angstrom
no_reorient  #important for SAPT in psi4, default
symmetry c1  #important for SAPT in psi4, default
}

set PROPERTIES_ORIGIN ["COM"]
properties('MP2/aug-cc-pvtz', properties = ['dipole'])
--------------------------------------------------------------------------

    Molecular point group: c1
  Charge       = 0
  Multiplicity = 1
  Basis Set: AUG-CC-PVTZ
    Blend: AUG-CC-PVTZ
  Basis Set: (AUG-CC-PVTZ AUX)
    Blend: AUG-CC-PVTZ-JKFIT

    Orbital Energies [Eh]
    ---------------------

    Doubly Occupied:

       1A    -20.493011     2A    -15.629164     3A    -11.334709
       4A    -11.313762     5A    -11.284165     6A    -11.274004
       7A    -11.243355     8A    -11.234025     9A    -11.221039
      10A     -1.365767    11A     -1.277508    12A     -1.119010
      13A     -1.034031    14A     -1.022936    15A     -0.904650
      16A     -0.865720    17A     -0.831751    18A     -0.714187
      19A     -0.704234    20A     -0.668003    21A     -0.635624
      22A     -0.613432    23A     -0.608923    24A     -0.603309
      25A     -0.565022    26A     -0.533393    27A     -0.528405
      28A     -0.517831    29A     -0.503456    30A     -0.473627
      31A     -0.417922    32A     -0.400887    33A     -0.309227

  @DF-RHF Final Energy:  -399.75518563398828

   => Energetics <=

    Nuclear Repulsion Energy =            438.8349606383945343
    One-Electron Energy =               -1412.6881142849276785
    Two-Electron Energy =                 574.0979680125449249
    Total Energy =                       -399.7551856339882761
  Basis Set: (AUG-CC-PVTZ AUX)
    Blend: AUG-CC-PVTZ-RI
    Molecular point group: c1

    Geometry (in Angstrom), charge = 0, multiplicity = 1:

       Center              X                  Y                   Z               Mass
    ------------   -----------------  -----------------  -----------------  -----------------
         O            0.709320058434     1.914976183949    -0.171845561268    15.994914619570
         N            0.348274058434    -0.357135816051    -0.284694561268    14.003074004430
         C            1.784203058434    -0.532027816051    -0.535927561268    12.000000000000
         C           -0.094956941566     0.972595183949    -0.098530561268    12.000000000000
         C           -0.471197941566    -1.446972816051    -0.183957561268    12.000000000000
         C            2.586540058434    -0.468205816051     0.755652438732    12.000000000000
         C           -1.413108841566     1.078026883949     0.147633338732    12.000000000000
         C           -1.805820941566    -1.314505816051     0.084562438732    12.000000000000
         C           -2.329011941566    -0.008375816051     0.262072438732    12.000000000000
         H            1.911718058434    -1.492440816051    -1.042828561268     1.007825032230
         H            2.085670058434     0.268667183949    -1.213333561268     1.007825032230
         H            0.006434058434    -2.410278816051    -0.339495561268     1.007825032230
         H            2.444777058434     0.506751183949     1.224119438732     1.007825032230
         H            2.268463058434    -1.251840816051     1.448718438732     1.007825032230
         H            3.651665058434    -0.602960816051     0.544800438732     1.007825032230
         H           -1.886512941566     2.095548183949     0.298844438732     1.007825032230
         H           -2.432983941566    -2.195987816051     0.152421438732     1.007825032230
         H           -3.387884941566     0.126038183949     0.471857438732     1.007825032230

  Basis Set: AUG-CC-PVTZ
    Blend: AUG-CC-PVTZ
  Basis Set: (AUG-CC-PVTZ AUX)
    Blend: AUG-CC-PVTZ-JKFIT
	 Reference Energy          =    -399.7551856339882761 [Eh]
	 Singles Energy            =      -0.0000000000000000 [Eh]
	 Same-Spin Energy          =      -0.4257949259165980 [Eh]
	 Opposite-Spin Energy      =      -1.3421280646909430 [Eh]
	 Correlation Energy        =      -1.7679229906075409 [Eh]
	 Total Energy              =    -401.5231086245958068 [Eh]

	 ================> DF-SCS-MP2 Energies <==================
	-----------------------------------------------------------
	 SCS Same-Spin Scale       =       0.3333333333333333 [-]
	 SCS Opposite-Spin Scale   =       1.2000000000000000 [-]
	 SCS Same-Spin Energy      =      -0.1419316419721993 [Eh]
	 SCS Opposite-Spin Energy  =      -1.6105536776291316 [Eh]
	 SCS Correlation Energy    =      -1.7524853196013308 [Eh]
	 SCS Total Energy          =    -401.5076709535895816 [Eh]
	-----------------------------------------------------------

  Dipole Moment: [D]
     X:    -0.9065      Y:    -4.0619      Z:     0.0491     Total:     4.1621

*** Psi4 exiting successfully. Buy a developer a beer!
