                               Psi4 1.4a3.dev225

  ==> Input File <==

--------------------------------------------------------------------------
#psi4
#
memory 32 gb

molecule  {
0 1
  O        0.6831730     1.9514370    -0.1851230
  N        0.3221270    -0.3206750    -0.2979720
  C        1.7580560    -0.4955670    -0.5492050
  C       -0.1211040     1.0090560    -0.1118080
  C       -0.4973450    -1.4105120    -0.1972350
  C        2.5603930    -0.4317450     0.7423750
  C       -1.5372540     1.1223260     0.1526570
  C       -1.8319680    -1.2780450     0.0712850
  C       -2.3850201    -0.0118649     0.2523049
  H        1.8855710    -1.4559800    -1.0561060
  H        2.0595230     0.3051280    -1.2266110
  H       -0.0197130    -2.3738180    -0.3527730
  H        2.4186300     0.5432120     1.2108420
  H        2.2423160    -1.2153800     1.4354410
  H        3.6255180    -0.5665000     0.5315230
  H       -1.9126600     2.1320090     0.2855670
  H       -2.4591310    -2.1595270     0.1391440
  H       -3.4140320     0.1624990     0.4585800
units angstrom
no_reorient  #important for SAPT in psi4, default
symmetry c1  #important for SAPT in psi4, default
}

set PROPERTIES_ORIGIN ["COM"]
properties('MP2/aug-cc-pvtz', properties = ['dipole'])
--------------------------------------------------------------------------

    Molecular point group: c1
  Charge       = 0
  Multiplicity = 1
  Basis Set: AUG-CC-PVTZ
    Blend: AUG-CC-PVTZ
  Basis Set: (AUG-CC-PVTZ AUX)
    Blend: AUG-CC-PVTZ-JKFIT

    Orbital Energies [Eh]
    ---------------------

    Doubly Occupied:

       1A    -20.502819     2A    -15.628487     3A    -11.347848
       4A    -11.311896     5A    -11.274555     6A    -11.273556
       7A    -11.240506     8A    -11.240050     9A    -11.221615
      10A     -1.367366    11A     -1.278580    12A     -1.118103
      13A     -1.027779    14A     -1.018770    15A     -0.899464
      16A     -0.869377    17A     -0.826466    18A     -0.716142
      19A     -0.699209    20A     -0.670104    21A     -0.639441
      22A     -0.615250    23A     -0.607651    24A     -0.603726
      25A     -0.560984    26A     -0.536846    27A     -0.530735
      28A     -0.526829    29A     -0.505807    30A     -0.475624
      31A     -0.419299    32A     -0.404260    33A     -0.304893

  @DF-RHF Final Energy:  -399.76591446716418

   => Energetics <=

    Nuclear Repulsion Energy =            436.8881296072304394
    One-Electron Energy =               -1408.7800115571692459
    Two-Electron Energy =                 572.1259674827746267
    Total Energy =                       -399.7659144671641798
  Basis Set: (AUG-CC-PVTZ AUX)
    Blend: AUG-CC-PVTZ-RI
    Molecular point group: c1

    Geometry (in Angstrom), charge = 0, multiplicity = 1:

       Center              X                  Y                   Z               Mass
    ------------   -----------------  -----------------  -----------------  -----------------
         O            0.721787192373     1.918107281424    -0.173972280802    15.994914619570
         N            0.360741192373    -0.354004718576    -0.286821280802    14.003074004430
         C            1.796670192373    -0.528896718576    -0.538054280802    12.000000000000
         C           -0.082489807627     0.975726281424    -0.100657280802    12.000000000000
         C           -0.458730807627    -1.443841718576    -0.186084280802    12.000000000000
         C            2.599007192373    -0.465074718576     0.753525719198    12.000000000000
         C           -1.498639807627     1.088996281424     0.163807719198    12.000000000000
         C           -1.793353807627    -1.311374718576     0.082435719198    12.000000000000
         C           -2.346405907627    -0.045194618576     0.263455619198    12.000000000000
         H            1.924185192373    -1.489309718576    -1.044955280802     1.007825032230
         H            2.098137192373     0.271798281424    -1.215460280802     1.007825032230
         H            0.018901192373    -2.407147718576    -0.341622280802     1.007825032230
         H            2.457244192373     0.509882281424     1.221992719198     1.007825032230
         H            2.280930192373    -1.248709718576     1.446591719198     1.007825032230
         H            3.664132192373    -0.599829718576     0.542673719198     1.007825032230
         H           -1.874045807627     2.098679281424     0.296717719198     1.007825032230
         H           -2.420516807627    -2.192856718576     0.150294719198     1.007825032230
         H           -3.375417807627     0.129169281424     0.469730719198     1.007825032230

  Basis Set: AUG-CC-PVTZ
    Blend: AUG-CC-PVTZ
  Basis Set: (AUG-CC-PVTZ AUX)
    Blend: AUG-CC-PVTZ-JKFIT
	 Reference Energy          =    -399.7659144671641798 [Eh]
	 Singles Energy            =      -0.0000000000000000 [Eh]
	 Same-Spin Energy          =      -0.4245900574203284 [Eh]
	 Opposite-Spin Energy      =      -1.3412089030695120 [Eh]
	 Correlation Energy        =      -1.7657989604898403 [Eh]
	 Total Energy              =    -401.5317134276540401 [Eh]

	 ================> DF-SCS-MP2 Energies <==================
	-----------------------------------------------------------
	 SCS Same-Spin Scale       =       0.3333333333333333 [-]
	 SCS Opposite-Spin Scale   =       1.2000000000000000 [-]
	 SCS Same-Spin Energy      =      -0.1415300191401095 [Eh]
	 SCS Opposite-Spin Energy  =      -1.6094506836834144 [Eh]
	 SCS Correlation Energy    =      -1.7509807028235238 [Eh]
	 SCS Total Energy          =    -401.5168951699877198 [Eh]
	-----------------------------------------------------------

  Dipole Moment: [D]
     X:    -0.7579      Y:    -3.8825      Z:     0.0326     Total:     3.9560

*** Psi4 exiting successfully. Buy a developer a beer!
