                               Psi4 1.3.2 release

  ==> Input File <==

--------------------------------------------------------------------------
#psi4
#
memory 32 gb

molecule  {
0 1
  O        0.6831730     1.9514370    -0.1851230
  N        0.3942533    -0.3806957    -0.3153783
  C        1.7580560    -0.4955670    -0.5492050
  C       -0.1211040     1.0090560    -0.1118080
  C       -0.4973450    -1.4105120    -0.1972350
  C        2.5603930    -0.4317450     0.7423750
  C       -1.5372540     1.1223260     0.1526570
  C       -1.8319680    -1.2780450     0.0712850
  C       -2.3551590     0.0280850     0.2487950
  H        1.8855710    -1.4559800    -1.0561060
  H        2.0595230     0.3051280    -1.2266110
  H       -0.0197130    -2.3738180    -0.3527730
  H        2.4186300     0.5432120     1.2108420
  H        2.2423160    -1.2153800     1.4354410
  H        3.6255180    -0.5665000     0.5315230
  H       -1.9126600     2.1320090     0.2855670
  H       -2.4591310    -2.1595270     0.1391440
  H       -3.4140320     0.1624990     0.4585800
units angstrom
no_reorient  #important for SAPT in psi4, default
symmetry c1  #important for SAPT in psi4, default
}

set PROPERTIES_ORIGIN ["COM"]
properties('MP2/aug-cc-pvtz', properties = ['dipole'])
--------------------------------------------------------------------------

    Molecular point group: c1
  Charge       = 0
  Multiplicity = 1
  Basis Set: AUG-CC-PVTZ
    Blend: AUG-CC-PVTZ
  Basis Set: (AUG-CC-PVTZ AUX)
    Blend: AUG-CC-PVTZ-JKFIT

    Orbital Energies [Eh]
    ---------------------

    Doubly Occupied:

       1A    -20.516337     2A    -15.624314     3A    -11.359405
       4A    -11.311138     5A    -11.274166     6A    -11.266595
       7A    -11.238828     8A    -11.238250     9A    -11.218415
      10A     -1.369658    11A     -1.284213    12A     -1.125711
      13A     -1.034111    14A     -1.007426    15A     -0.903738
      16A     -0.858147    17A     -0.828204    18A     -0.712428
      19A     -0.702675    20A     -0.673147    21A     -0.642925
      22A     -0.616187    23A     -0.607906    24A     -0.599276
      25A     -0.564151    26A     -0.536572    27A     -0.534635
      28A     -0.528442    29A     -0.501549    30A     -0.477239
      31A     -0.423651    32A     -0.405887    33A     -0.306404

  @DF-RHF Final Energy:  -399.75880834048110

   => Energetics <=

    Nuclear Repulsion Energy =            436.8007823196432469
    One-Electron Energy =               -1408.5357182014104183
    Two-Electron Energy =                 571.9761275412860186
    Total Energy =                       -399.7588083404810959
  Basis Set: (AUG-CC-PVTZ AUX)
    Blend: AUG-CC-PVTZ-RI
    Molecular point group: c1

    Geometry (in Angstrom), charge = 0, multiplicity = 1:

       Center              X                  Y                   Z               Mass
    ------------   -----------------  -----------------  -----------------  -----------------
         O            0.710668798360     1.921041222736    -0.171649503593    15.994914619570
         N            0.421749098360    -0.411091477264    -0.301904803593    14.003074004430
         C            1.785551798360    -0.525962777264    -0.535731503593    12.000000000000
         C           -0.093608201640     0.978660222736    -0.098334503593    12.000000000000
         C           -0.469849201640    -1.440907777264    -0.183761503593    12.000000000000
         C            2.587888798360    -0.462140777264     0.755848496407    12.000000000000
         C           -1.509758201640     1.091930222736     0.166130496407    12.000000000000
         C           -1.804472201640    -1.308440777264     0.084758496407    12.000000000000
         C           -2.327663201640    -0.002310777264     0.262268496407    12.000000000000
         H            1.913066798360    -1.486375777264    -1.042632503593     1.007825032230
         H            2.087018798360     0.274732222736    -1.213137503593     1.007825032230
         H            0.007782798360    -2.404213777264    -0.339299503593     1.007825032230
         H            2.446125798360     0.512816222736     1.224315496407     1.007825032230
         H            2.269811798360    -1.245775777264     1.448914496407     1.007825032230
         H            3.653013798360    -0.596895777264     0.544996496407     1.007825032230
         H           -1.885164201640     2.101613222736     0.299040496407     1.007825032230
         H           -2.431635201640    -2.189922777264     0.152617496407     1.007825032230
         H           -3.386536201640     0.132103222736     0.472053496407     1.007825032230

  Basis Set: AUG-CC-PVTZ
    Blend: AUG-CC-PVTZ
  Basis Set: (AUG-CC-PVTZ AUX)
    Blend: AUG-CC-PVTZ-JKFIT
	 Reference Energy          =    -399.7588083404810959 [Eh]
	 Singles Energy            =      -0.0000000000000000 [Eh]
	 Same-Spin Energy          =      -0.4245958229753045 [Eh]
	 Opposite-Spin Energy      =      -1.3417530838024714 [Eh]
	 Correlation Energy        =      -1.7663489067777758 [Eh]
	 Total Energy              =    -401.5251572472588464 [Eh]

	 ================> DF-SCS-MP2 Energies <==================
	-----------------------------------------------------------
	 SCS Same-Spin Scale       =       0.3333333333333333 [-]
	 SCS Opposite-Spin Scale   =       1.2000000000000000 [-]
	 SCS Same-Spin Energy      =      -0.1415319409917682 [Eh]
	 SCS Opposite-Spin Energy  =      -1.6101037005629657 [Eh]
	 SCS Correlation Energy    =      -1.7516356415547338 [Eh]
	 SCS Total Energy          =    -401.5104439820358380 [Eh]
	-----------------------------------------------------------

  Dipole Moment: [D]
     X:    -0.8003      Y:    -3.4990      Z:     0.0468     Total:     3.5896

*** Psi4 exiting successfully. Buy a developer a beer!
