                               Psi4 1.3.2 release

  ==> Input File <==

--------------------------------------------------------------------------
#psi4
#
memory 32 gb

molecule  {
0 1
  O        0.6831730     1.9514370    -0.1851230
  N        0.3221270    -0.3206750    -0.2979720
  C        1.7580560    -0.4955670    -0.5492050
  C       -0.1264294     0.9589480    -0.1140531
  C       -0.4973450    -1.4105120    -0.1972350
  C        2.5603930    -0.4317450     0.7423750
  C       -1.5372540     1.1223260     0.1526570
  C       -1.8319680    -1.2780450     0.0712850
  C       -2.3551590     0.0280850     0.2487950
  H        1.8855710    -1.4559800    -1.0561060
  H        2.0595230     0.3051280    -1.2266110
  H       -0.0197130    -2.3738180    -0.3527730
  H        2.4186300     0.5432120     1.2108420
  H        2.2423160    -1.2153800     1.4354410
  H        3.6255180    -0.5665000     0.5315230
  H       -1.9126600     2.1320090     0.2855670
  H       -2.4591310    -2.1595270     0.1391440
  H       -3.4140320     0.1624990     0.4585800
units angstrom
no_reorient  #important for SAPT in psi4, default
symmetry c1  #important for SAPT in psi4, default
}

set PROPERTIES_ORIGIN ["COM"]
properties('MP2/aug-cc-pvtz', properties = ['dipole'])
--------------------------------------------------------------------------

    Molecular point group: c1
  Charge       = 0
  Multiplicity = 1
  Basis Set: AUG-CC-PVTZ
    Blend: AUG-CC-PVTZ
  Basis Set: (AUG-CC-PVTZ AUX)
    Blend: AUG-CC-PVTZ-JKFIT

    Orbital Energies [Eh]
    ---------------------

    Doubly Occupied:

       1A    -20.495093     2A    -15.631711     3A    -11.346955
       4A    -11.310636     5A    -11.276279     6A    -11.270942
       7A    -11.245249     8A    -11.240545     9A    -11.221971
      10A     -1.357349    11A     -1.271492    12A     -1.122958
      13A     -1.032930    14A     -1.024226    15A     -0.897667
      16A     -0.880730    17A     -0.825197    18A     -0.718972
      19A     -0.700649    20A     -0.668744    21A     -0.643601
      22A     -0.618156    23A     -0.610122    24A     -0.596426
      25A     -0.555154    26A     -0.539840    27A     -0.527333
      28A     -0.524761    29A     -0.507252    30A     -0.463676
      31A     -0.414562    32A     -0.410032    33A     -0.311052

  @DF-RHF Final Energy:  -399.76699684378724

   => Energetics <=

    Nuclear Repulsion Energy =            437.7900224040232047
    One-Electron Energy =               -1410.5895155202863407
    Two-Electron Energy =                 573.0324962724760098
    Total Energy =                       -399.7669968437871830
  Basis Set: (AUG-CC-PVTZ AUX)
    Blend: AUG-CC-PVTZ-RI
    Molecular point group: c1

    Geometry (in Angstrom), charge = 0, multiplicity = 1:

       Center              X                  Y                   Z               Mass
    ------------   -----------------  -----------------  -----------------  -----------------
         O            0.719394796221     1.919097764653    -0.173411129506    15.994914619570
         N            0.358348796221    -0.353014235347    -0.286260129506    14.003074004430
         C            1.794277796221    -0.527906235347    -0.537493129506    12.000000000000
         C           -0.090207603779     0.926608764653    -0.102341229506    12.000000000000
         C           -0.461123203779    -1.442851235347    -0.185523129506    12.000000000000
         C            2.596614796221    -0.464084235347     0.754086870494    12.000000000000
         C           -1.501032203779     1.089986764653     0.164368870494    12.000000000000
         C           -1.795746203779    -1.310384235347     0.082996870494    12.000000000000
         C           -2.318937203779    -0.004254235347     0.260506870494    12.000000000000
         H            1.921792796221    -1.488319235347    -1.044394129506     1.007825032230
         H            2.095744796221     0.272788764653    -1.214899129506     1.007825032230
         H            0.016508796221    -2.406157235347    -0.341061129506     1.007825032230
         H            2.454851796221     0.510872764653     1.222553870494     1.007825032230
         H            2.278537796221    -1.247719235347     1.447152870494     1.007825032230
         H            3.661739796221    -0.598839235347     0.543234870494     1.007825032230
         H           -1.876438203779     2.099669764653     0.297278870494     1.007825032230
         H           -2.422909203779    -2.191866235347     0.150855870494     1.007825032230
         H           -3.377810203779     0.130159764653     0.470291870494     1.007825032230

  Basis Set: AUG-CC-PVTZ
    Blend: AUG-CC-PVTZ
  Basis Set: (AUG-CC-PVTZ AUX)
    Blend: AUG-CC-PVTZ-JKFIT
	 Reference Energy          =    -399.7669968437872399 [Eh]
	 Singles Energy            =      -0.0000000000000000 [Eh]
	 Same-Spin Energy          =      -0.4238647444489699 [Eh]
	 Opposite-Spin Energy      =      -1.3407337787782394 [Eh]
	 Correlation Energy        =      -1.7645985232272094 [Eh]
	 Total Energy              =    -401.5315953670144609 [Eh]

	 ================> DF-SCS-MP2 Energies <==================
	-----------------------------------------------------------
	 SCS Same-Spin Scale       =       0.3333333333333333 [-]
	 SCS Opposite-Spin Scale   =       1.2000000000000000 [-]
	 SCS Same-Spin Energy      =      -0.1412882481496566 [Eh]
	 SCS Opposite-Spin Energy  =      -1.6088805345338872 [Eh]
	 SCS Correlation Energy    =      -1.7501687826835439 [Eh]
	 SCS Total Energy          =    -401.5171656264707849 [Eh]
	-----------------------------------------------------------

  Dipole Moment: [D]
     X:    -0.9236      Y:    -4.1545      Z:     0.0461     Total:     4.2562

*** Psi4 exiting successfully. Buy a developer a beer!
