                               Psi4 1.3.2 release

  ==> Input File <==

--------------------------------------------------------------------------
#psi4
#
memory 32 gb

molecule  {
0 1
  O        0.6831730     1.9514370    -0.1851230
  N        0.3221270    -0.3206750    -0.2979720
  C        1.7580560    -0.4955670    -0.5492050
  C       -0.1211040     1.0090560    -0.1118080
  C       -0.4973450    -1.4105120    -0.1972350
  C        2.5603930    -0.4317450     0.7423750
  C       -1.5372540     1.1223260     0.1526570
  C       -1.8292022    -1.2543546     0.0722838
  C       -2.3551590     0.0280850     0.2487950
  H        1.8855710    -1.4559800    -1.0561060
  H        2.0595230     0.3051280    -1.2266110
  H       -0.0197130    -2.3738180    -0.3527730
  H        2.4186300     0.5432120     1.2108420
  H        2.2423160    -1.2153800     1.4354410
  H        3.6255180    -0.5665000     0.5315230
  H       -1.9126600     2.1320090     0.2855670
  H       -2.4591310    -2.1595270     0.1391440
  H       -3.4140320     0.1624990     0.4585800
units angstrom
no_reorient  #important for SAPT in psi4, default
symmetry c1  #important for SAPT in psi4, default
}

set PROPERTIES_ORIGIN ["COM"]
properties('MP2/aug-cc-pvtz', properties = ['dipole'])
--------------------------------------------------------------------------

    Molecular point group: c1
  Charge       = 0
  Multiplicity = 1
  Basis Set: AUG-CC-PVTZ
    Blend: AUG-CC-PVTZ
  Basis Set: (AUG-CC-PVTZ AUX)
    Blend: AUG-CC-PVTZ-JKFIT

    Orbital Energies [Eh]
    ---------------------

    Doubly Occupied:

       1A    -20.505117     2A    -15.626009     3A    -11.349202
       4A    -11.309366     5A    -11.273880     6A    -11.268594
       7A    -11.240178     8A    -11.236563     9A    -11.221270
      10A     -1.368574    11A     -1.278671    12A     -1.122028
      13A     -1.031543    14A     -1.017803    15A     -0.897016
      16A     -0.870643    17A     -0.824041    18A     -0.714971
      19A     -0.699991    20A     -0.667576    21A     -0.639991
      22A     -0.614873    23A     -0.608268    24A     -0.603356
      25A     -0.558323    26A     -0.538395    27A     -0.530038
      28A     -0.525912    29A     -0.505651    30A     -0.475590
      31A     -0.420692    32A     -0.409169    33A     -0.307429

  @DF-RHF Final Energy:  -399.77011553977940

   => Energetics <=

    Nuclear Repulsion Energy =            437.8143201566606990
    One-Electron Energy =               -1410.6474258115467819
    Two-Electron Energy =                 573.0629901151067997
    Total Energy =                       -399.7701155397793400
  Basis Set: (AUG-CC-PVTZ AUX)
    Blend: AUG-CC-PVTZ-RI
    Molecular point group: c1

    Geometry (in Angstrom), charge = 0, multiplicity = 1:

       Center              X                  Y                   Z               Mass
    ------------   -----------------  -----------------  -----------------  -----------------
         O            0.718605849675     1.911901923154    -0.173727431624    15.994914619570
         N            0.357559849675    -0.360210076846    -0.286576431624    14.003074004430
         C            1.793488849675    -0.535102076846    -0.537809431624    12.000000000000
         C           -0.085671150325     0.969520923154    -0.100412431624    12.000000000000
         C           -0.461912150325    -1.450047076846    -0.185839431624    12.000000000000
         C            2.595825849675    -0.471280076846     0.753770568376    12.000000000000
         C           -1.501821150325     1.082790923154     0.164052568376    12.000000000000
         C           -1.793769350325    -1.293889676846     0.083679368376    12.000000000000
         C           -2.319726150325    -0.011450076846     0.260190568376    12.000000000000
         H            1.921003849675    -1.495515076846    -1.044710431624     1.007825032230
         H            2.094955849675     0.265592923154    -1.215215431624     1.007825032230
         H            0.015719849675    -2.413353076846    -0.341377431624     1.007825032230
         H            2.454062849675     0.503676923154     1.222237568376     1.007825032230
         H            2.277748849675    -1.254915076846     1.446836568376     1.007825032230
         H            3.660950849675    -0.606035076846     0.542918568376     1.007825032230
         H           -1.877227150325     2.092473923154     0.296962568376     1.007825032230
         H           -2.423698150325    -2.199062076846     0.150539568376     1.007825032230
         H           -3.378599150325     0.122963923154     0.469975568376     1.007825032230

  Basis Set: AUG-CC-PVTZ
    Blend: AUG-CC-PVTZ
  Basis Set: (AUG-CC-PVTZ AUX)
    Blend: AUG-CC-PVTZ-JKFIT
	 Reference Energy          =    -399.7701155397793968 [Eh]
	 Singles Energy            =      -0.0000000000000000 [Eh]
	 Same-Spin Energy          =      -0.4239321799310201 [Eh]
	 Opposite-Spin Energy      =      -1.3402176031694240 [Eh]
	 Correlation Energy        =      -1.7641497831004440 [Eh]
	 Total Energy              =    -401.5342653228798326 [Eh]

	 ================> DF-SCS-MP2 Energies <==================
	-----------------------------------------------------------
	 SCS Same-Spin Scale       =       0.3333333333333333 [-]
	 SCS Opposite-Spin Scale   =       1.2000000000000000 [-]
	 SCS Same-Spin Energy      =      -0.1413107266436734 [Eh]
	 SCS Opposite-Spin Energy  =      -1.6082611238033087 [Eh]
	 SCS Correlation Energy    =      -1.7495718504469819 [Eh]
	 SCS Total Energy          =    -401.5196873902263519 [Eh]
	-----------------------------------------------------------

  Dipole Moment: [D]
     X:    -0.7566      Y:    -3.8405      Z:     0.0307     Total:     3.9145

*** Psi4 exiting successfully. Buy a developer a beer!
