                               Psi4 1.4a3.dev225

  ==> Input File <==

--------------------------------------------------------------------------
#psi4
#
memory 32 gb

molecule  {
0 1
  O        0.6831730     1.9514370    -0.1851230
  N        0.3221270    -0.3206750    -0.2979720
  C        1.7580560    -0.4955670    -0.5492050
  C       -0.1211040     1.0090560    -0.1118080
  C       -0.4973450    -1.4105120    -0.1972350
  C        2.5603930    -0.4317450     0.7423750
  C       -1.5372540     1.1223260     0.1526570
  C       -1.8319680    -1.2780450     0.0712850
  C       -2.3736050     0.0741347     0.2550534
  H        1.8855710    -1.4559800    -1.0561060
  H        2.0595230     0.3051280    -1.2266110
  H       -0.0197130    -2.3738180    -0.3527730
  H        2.4186300     0.5432120     1.2108420
  H        2.2423160    -1.2153800     1.4354410
  H        3.6255180    -0.5665000     0.5315230
  H       -1.9126600     2.1320090     0.2855670
  H       -2.4591310    -2.1595270     0.1391440
  H       -3.4140320     0.1624990     0.4585800
units angstrom
no_reorient  #important for SAPT in psi4, default
symmetry c1  #important for SAPT in psi4, default
}

set PROPERTIES_ORIGIN ["COM"]
properties('MP2/aug-cc-pvtz', properties = ['dipole'])
--------------------------------------------------------------------------

    Molecular point group: c1
  Charge       = 0
  Multiplicity = 1
  Basis Set: AUG-CC-PVTZ
    Blend: AUG-CC-PVTZ
  Basis Set: (AUG-CC-PVTZ AUX)
    Blend: AUG-CC-PVTZ-JKFIT

    Orbital Energies [Eh]
    ---------------------

    Doubly Occupied:

       1A    -20.509982     2A    -15.622387     3A    -11.352868
       4A    -11.305366     5A    -11.272886     6A    -11.269975
       7A    -11.242376     8A    -11.236952     9A    -11.220537
      10A     -1.370736    11A     -1.277271    12A     -1.116165
      13A     -1.033846    14A     -1.014860    15A     -0.894648
      16A     -0.868376    17A     -0.826525    18A     -0.711971
      19A     -0.699794    20A     -0.670316    21A     -0.639848
      22A     -0.616739    23A     -0.606913    24A     -0.604737
      25A     -0.566584    26A     -0.534111    27A     -0.528152
      28A     -0.522219    29A     -0.504490    30A     -0.473302
      31A     -0.424159    32A     -0.408432    33A     -0.311057

  @DF-RHF Final Energy:  -399.77001463729755

   => Energetics <=

    Nuclear Repulsion Energy =            437.0275005306003777
    One-Electron Energy =               -1409.0778716202300984
    Two-Electron Energy =                 572.2803564523321711
    Total Energy =                       -399.7700146372975496
  Basis Set: (AUG-CC-PVTZ AUX)
    Blend: AUG-CC-PVTZ-RI
    Molecular point group: c1

    Geometry (in Angstrom), charge = 0, multiplicity = 1:

       Center              X                  Y                   Z               Mass
    ------------   -----------------  -----------------  -----------------  -----------------
         O            0.720674143171     1.909721740673    -0.174240278081    15.994914619570
         N            0.359628143171    -0.362390259327    -0.287089278081    14.003074004430
         C            1.795557143171    -0.537282259327    -0.538322278081    12.000000000000
         C           -0.083602856829     0.967340740673    -0.100925278081    12.000000000000
         C           -0.459843856829    -1.452227259327    -0.186352278081    12.000000000000
         C            2.597894143171    -0.473460259327     0.753257721919    12.000000000000
         C           -1.499752856829     1.080610740673     0.163539721919    12.000000000000
         C           -1.794466856829    -1.319760259327     0.082167721919    12.000000000000
         C           -2.336103856829     0.032419440673     0.265936121919    12.000000000000
         H            1.923072143171    -1.497695259327    -1.045223278081     1.007825032230
         H            2.097024143171     0.263412740673    -1.215728278081     1.007825032230
         H            0.017788143171    -2.415533259327    -0.341890278081     1.007825032230
         H            2.456131143171     0.501496740673     1.221724721919     1.007825032230
         H            2.279817143171    -1.257095259327     1.446323721919     1.007825032230
         H            3.663019143171    -0.608215259327     0.542405721919     1.007825032230
         H           -1.875158856829     2.090293740673     0.296449721919     1.007825032230
         H           -2.421629856829    -2.201242259327     0.150026721919     1.007825032230
         H           -3.376530856829     0.120783740673     0.469462721919     1.007825032230

  Basis Set: AUG-CC-PVTZ
    Blend: AUG-CC-PVTZ
  Basis Set: (AUG-CC-PVTZ AUX)
    Blend: AUG-CC-PVTZ-JKFIT
	 Reference Energy          =    -399.7700146372975496 [Eh]
	 Singles Energy            =      -0.0000000000000000 [Eh]
	 Same-Spin Energy          =      -0.4224796450961077 [Eh]
	 Opposite-Spin Energy      =      -1.3393284306969360 [Eh]
	 Correlation Energy        =      -1.7618080757930437 [Eh]
	 Total Energy              =    -401.5318227130906052 [Eh]

	 ================> DF-SCS-MP2 Energies <==================
	-----------------------------------------------------------
	 SCS Same-Spin Scale       =       0.3333333333333333 [-]
	 SCS Opposite-Spin Scale   =       1.2000000000000000 [-]
	 SCS Same-Spin Energy      =      -0.1408265483653692 [Eh]
	 SCS Opposite-Spin Energy  =      -1.6071941168363231 [Eh]
	 SCS Correlation Energy    =      -1.7480206652016923 [Eh]
	 SCS Total Energy          =    -401.5180353024992428 [Eh]
	-----------------------------------------------------------

  Dipole Moment: [D]
     X:    -0.7919      Y:    -3.7041      Z:     0.0413     Total:     3.7880

*** Psi4 exiting successfully. Buy a developer a beer!
