                               Psi4 1.3.2 release

  ==> Input File <==

--------------------------------------------------------------------------
#psi4
#
memory 32 gb

molecule  {
0 1
  O        0.6831730     1.9514370    -0.1851230
  N        0.3323506    -0.3160771    -0.2479660
  C        1.7580560    -0.4955670    -0.5492050
  C       -0.1211040     1.0090560    -0.1118080
  C       -0.4973450    -1.4105120    -0.1972350
  C        2.5603930    -0.4317450     0.7423750
  C       -1.5372540     1.1223260     0.1526570
  C       -1.8319680    -1.2780450     0.0712850
  C       -2.3551590     0.0280850     0.2487950
  H        1.8855710    -1.4559800    -1.0561060
  H        2.0595230     0.3051280    -1.2266110
  H       -0.0197130    -2.3738180    -0.3527730
  H        2.4186300     0.5432120     1.2108420
  H        2.2423160    -1.2153800     1.4354410
  H        3.6255180    -0.5665000     0.5315230
  H       -1.9126600     2.1320090     0.2855670
  H       -2.4591310    -2.1595270     0.1391440
  H       -3.4140320     0.1624990     0.4585800
units angstrom
no_reorient  #important for SAPT in psi4, default
symmetry c1  #important for SAPT in psi4, default
}

set PROPERTIES_ORIGIN ["COM"]
properties('MP2/aug-cc-pvtz', properties = ['dipole'])
--------------------------------------------------------------------------

    Molecular point group: c1
  Charge       = 0
  Multiplicity = 1
  Basis Set: AUG-CC-PVTZ
    Blend: AUG-CC-PVTZ
  Basis Set: (AUG-CC-PVTZ AUX)
    Blend: AUG-CC-PVTZ-JKFIT

    Orbital Energies [Eh]
    ---------------------

    Doubly Occupied:

       1A    -20.505183     2A    -15.625146     3A    -11.348987
       4A    -11.309266     5A    -11.273659     6A    -11.270633
       7A    -11.241000     8A    -11.237576     9A    -11.219941
      10A     -1.369110    11A     -1.276968    12A     -1.119510
      13A     -1.030733    14A     -1.018659    15A     -0.894252
      16A     -0.870840    17A     -0.824220    18A     -0.715115
      19A     -0.700806    20A     -0.669208    21A     -0.639022
      22A     -0.613342    23A     -0.607330    24A     -0.605488
      25A     -0.560063    26A     -0.538369    27A     -0.528527
      28A     -0.525261    29A     -0.505768    30A     -0.473713
      31A     -0.420721    32A     -0.407585    33A     -0.309495

  @DF-RHF Final Energy:  -399.77094137118524

   => Energetics <=

    Nuclear Repulsion Energy =            437.5957364320934744
    One-Electron Energy =               -1410.2223653097332772
    Two-Electron Energy =                 572.8556875064546148
    Total Energy =                       -399.7709413711852449
  Basis Set: (AUG-CC-PVTZ AUX)
    Blend: AUG-CC-PVTZ-RI
    Molecular point group: c1

    Geometry (in Angstrom), charge = 0, multiplicity = 1:

       Center              X                  Y                   Z               Mass
    ------------   -----------------  -----------------  -----------------  -----------------
         O            0.717712263548     1.913688734725    -0.179319866732    15.994914619570
         N            0.366889863548    -0.353825365275    -0.242162866732    14.003074004430
         C            1.792595263548    -0.533315265275    -0.543401866732    12.000000000000
         C           -0.086564736452     0.971307734725    -0.106004866732    12.000000000000
         C           -0.462805736452    -1.448260265275    -0.191431866732    12.000000000000
         C            2.594932263548    -0.469493265275     0.748178133268    12.000000000000
         C           -1.502714736452     1.084577734725     0.158460133268    12.000000000000
         C           -1.797428736452    -1.315793265275     0.077088133268    12.000000000000
         C           -2.320619736452    -0.009663265275     0.254598133268    12.000000000000
         H            1.920110263548    -1.493728265275    -1.050302866732     1.007825032230
         H            2.094062263548     0.267379734725    -1.220807866732     1.007825032230
         H            0.014826263548    -2.411566265275    -0.346969866732     1.007825032230
         H            2.453169263548     0.505463734725     1.216645133268     1.007825032230
         H            2.276855263548    -1.253128265275     1.441244133268     1.007825032230
         H            3.660057263548    -0.604248265275     0.537326133268     1.007825032230
         H           -1.878120736452     2.094260734725     0.291370133268     1.007825032230
         H           -2.424591736452    -2.197275265275     0.144947133268     1.007825032230
         H           -3.379492736452     0.124750734725     0.464383133268     1.007825032230

  Basis Set: AUG-CC-PVTZ
    Blend: AUG-CC-PVTZ
  Basis Set: (AUG-CC-PVTZ AUX)
    Blend: AUG-CC-PVTZ-JKFIT
	 Reference Energy          =    -399.7709413711852449 [Eh]
	 Singles Energy            =      -0.0000000000000000 [Eh]
	 Same-Spin Energy          =      -0.4234126536846471 [Eh]
	 Opposite-Spin Energy      =      -1.3399228634585421 [Eh]
	 Correlation Energy        =      -1.7633355171431893 [Eh]
	 Total Energy              =    -401.5342768883284066 [Eh]

	 ================> DF-SCS-MP2 Energies <==================
	-----------------------------------------------------------
	 SCS Same-Spin Scale       =       0.3333333333333333 [-]
	 SCS Opposite-Spin Scale   =       1.2000000000000000 [-]
	 SCS Same-Spin Energy      =      -0.1411375512282157 [Eh]
	 SCS Opposite-Spin Energy  =      -1.6079074361502503 [Eh]
	 SCS Correlation Energy    =      -1.7490449873784661 [Eh]
	 SCS Total Energy          =    -401.5199863585636990 [Eh]
	-----------------------------------------------------------

  Dipole Moment: [D]
     X:    -0.8005      Y:    -3.8404      Z:    -0.0014     Total:     3.9229

*** Psi4 exiting successfully. Buy a developer a beer!
