                               Psi4 1.3.2 release

  ==> Input File <==

--------------------------------------------------------------------------
#psi4
#
memory 32 gb

molecule  {
0 1
  O        0.6831730     1.9514370    -0.1851230
  N        0.3068657    -0.4115309    -0.3428513
  C        1.7580560    -0.4955670    -0.5492050
  C       -0.1211040     1.0090560    -0.1118080
  C       -0.4973450    -1.4105120    -0.1972350
  C        2.5603930    -0.4317450     0.7423750
  C       -1.5372540     1.1223260     0.1526570
  C       -1.8319680    -1.2780450     0.0712850
  C       -2.3551590     0.0280850     0.2487950
  H        1.8855710    -1.4559800    -1.0561060
  H        2.0595230     0.3051280    -1.2266110
  H       -0.0197130    -2.3738180    -0.3527730
  H        2.4186300     0.5432120     1.2108420
  H        2.2423160    -1.2153800     1.4354410
  H        3.6255180    -0.5665000     0.5315230
  H       -1.9126600     2.1320090     0.2855670
  H       -2.4591310    -2.1595270     0.1391440
  H       -3.4140320     0.1624990     0.4585800
units angstrom
no_reorient  #important for SAPT in psi4, default
symmetry c1  #important for SAPT in psi4, default
}

set PROPERTIES_ORIGIN ["COM"]
properties('MP2/aug-cc-pvtz', properties = ['dipole'])
--------------------------------------------------------------------------

    Molecular point group: c1
  Charge       = 0
  Multiplicity = 1
  Basis Set: AUG-CC-PVTZ
    Blend: AUG-CC-PVTZ
  Basis Set: (AUG-CC-PVTZ AUX)
    Blend: AUG-CC-PVTZ-JKFIT

    Orbital Energies [Eh]
    ---------------------

    Doubly Occupied:

       1A    -20.518492     2A    -15.628165     3A    -11.360092
       4A    -11.303948     5A    -11.277226     6A    -11.270260
       7A    -11.231574     8A    -11.230340     9A    -11.224665
      10A     -1.369992    11A     -1.296376    12A     -1.116448
      13A     -1.040362    14A     -1.007688    15A     -0.898220
      16A     -0.863082    17A     -0.831670    18A     -0.714054
      19A     -0.699439    20A     -0.662620    21A     -0.644111
      22A     -0.619937    23A     -0.608873    24A     -0.599681
      25A     -0.563459    26A     -0.541275    27A     -0.532573
      28A     -0.525304    29A     -0.506617    30A     -0.485485
      31A     -0.422479    32A     -0.410208    33A     -0.300410

  @DF-RHF Final Energy:  -399.75846319735842

   => Energetics <=

    Nuclear Repulsion Energy =            436.8693368707891977
    One-Electron Energy =               -1408.6453485864822142
    Two-Electron Energy =                 572.0175485183345927
    Total Energy =                       -399.7584631973584237
  Basis Set: (AUG-CC-PVTZ AUX)
    Blend: AUG-CC-PVTZ-RI
    Molecular point group: c1

    Geometry (in Angstrom), charge = 0, multiplicity = 1:

       Center              X                  Y                   Z               Mass
    ------------   -----------------  -----------------  -----------------  -----------------
         O            0.720612007920     1.924549739453    -0.168523547550    15.994914619570
         N            0.344304707920    -0.438418160547    -0.326251847550    14.003074004430
         C            1.795495007920    -0.522454260547    -0.532605547550    12.000000000000
         C           -0.083664992080     0.982168739453    -0.095208547550    12.000000000000
         C           -0.459905992080    -1.437399260547    -0.180635547550    12.000000000000
         C            2.597832007920    -0.458632260547     0.758974452450    12.000000000000
         C           -1.499814992080     1.095438739453     0.169256452450    12.000000000000
         C           -1.794528992080    -1.304932260547     0.087884452450    12.000000000000
         C           -2.317719992080     0.001197739453     0.265394452450    12.000000000000
         H            1.923010007920    -1.482867260547    -1.039506547550     1.007825032230
         H            2.096962007920     0.278240739453    -1.210011547550     1.007825032230
         H            0.017726007920    -2.400705260547    -0.336173547550     1.007825032230
         H            2.456069007920     0.516324739453     1.227441452450     1.007825032230
         H            2.279755007920    -1.242267260547     1.452040452450     1.007825032230
         H            3.662957007920    -0.593387260547     0.548122452450     1.007825032230
         H           -1.875220992080     2.105121739453     0.302166452450     1.007825032230
         H           -2.421691992080    -2.186414260547     0.155743452450     1.007825032230
         H           -3.376592992080     0.135611739453     0.475179452450     1.007825032230

  Basis Set: AUG-CC-PVTZ
    Blend: AUG-CC-PVTZ
  Basis Set: (AUG-CC-PVTZ AUX)
    Blend: AUG-CC-PVTZ-JKFIT
	 Reference Energy          =    -399.7584631973584237 [Eh]
	 Singles Energy            =      -0.0000000000000000 [Eh]
	 Same-Spin Energy          =      -0.4247797024463323 [Eh]
	 Opposite-Spin Energy      =      -1.3411219323719354 [Eh]
	 Correlation Energy        =      -1.7659016348182677 [Eh]
	 Total Energy              =    -401.5243648321766727 [Eh]

	 ================> DF-SCS-MP2 Energies <==================
	-----------------------------------------------------------
	 SCS Same-Spin Scale       =       0.3333333333333333 [-]
	 SCS Opposite-Spin Scale   =       1.2000000000000000 [-]
	 SCS Same-Spin Energy      =      -0.1415932341487774 [Eh]
	 SCS Opposite-Spin Energy  =      -1.6093463188463224 [Eh]
	 SCS Correlation Energy    =      -1.7509395529950997 [Eh]
	 SCS Total Energy          =    -401.5094027503535017 [Eh]
	-----------------------------------------------------------

  Dipole Moment: [D]
     X:    -0.4168      Y:    -3.5014      Z:     0.0371     Total:     3.5263

*** Psi4 exiting successfully. Buy a developer a beer!
