                               Psi4 1.3.2 release

  ==> Input File <==

--------------------------------------------------------------------------
#psi4
#
memory 32 gb

molecule  {
0 1
  O        0.6831730     1.9514370    -0.1851230
  N        0.3221270    -0.3206750    -0.2979720
  C        1.7580560    -0.4955670    -0.5492050
  C       -0.0286581     1.0386952    -0.1295742
  C       -0.4973450    -1.4105120    -0.1972350
  C        2.5603930    -0.4317450     0.7423750
  C       -1.5372540     1.1223260     0.1526570
  C       -1.8319680    -1.2780450     0.0712850
  C       -2.3551590     0.0280850     0.2487950
  H        1.8855710    -1.4559800    -1.0561060
  H        2.0595230     0.3051280    -1.2266110
  H       -0.0197130    -2.3738180    -0.3527730
  H        2.4186300     0.5432120     1.2108420
  H        2.2423160    -1.2153800     1.4354410
  H        3.6255180    -0.5665000     0.5315230
  H       -1.9126600     2.1320090     0.2855670
  H       -2.4591310    -2.1595270     0.1391440
  H       -3.4140320     0.1624990     0.4585800
units angstrom
no_reorient  #important for SAPT in psi4, default
symmetry c1  #important for SAPT in psi4, default
}

set PROPERTIES_ORIGIN ["COM"]
properties('MP2/aug-cc-pvtz', properties = ['dipole'])
--------------------------------------------------------------------------

    Molecular point group: c1
  Charge       = 0
  Multiplicity = 1
  Basis Set: AUG-CC-PVTZ
    Blend: AUG-CC-PVTZ
  Basis Set: (AUG-CC-PVTZ AUX)
    Blend: AUG-CC-PVTZ-JKFIT

    Orbital Energies [Eh]
    ---------------------

    Doubly Occupied:

       1A    -20.526291     2A    -15.616516     3A    -11.352745
       4A    -11.302390     5A    -11.271885     6A    -11.259564
       7A    -11.236432     8A    -11.233870     9A    -11.222203
      10A     -1.425377    11A     -1.286316    12A     -1.109264
      13A     -1.025179    14A     -1.009428    15A     -0.887471
      16A     -0.868548    17A     -0.814221    18A     -0.711165
      19A     -0.699532    20A     -0.671036    21A     -0.643558
      22A     -0.622292    23A     -0.614307    24A     -0.602033
      25A     -0.565526    26A     -0.543062    27A     -0.535992
      28A     -0.530969    29A     -0.506157    30A     -0.489328
      31A     -0.420126    32A     -0.402887    33A     -0.302977

  @DF-RHF Final Energy:  -399.76231430922314

   => Energetics <=

    Nuclear Repulsion Energy =            437.7799053713797548
    One-Electron Energy =               -1410.4671472168829496
    Two-Electron Energy =                 572.9249275362800518
    Total Energy =                       -399.7623143092231430
  Basis Set: (AUG-CC-PVTZ AUX)
    Blend: AUG-CC-PVTZ-RI
    Molecular point group: c1

    Geometry (in Angstrom), charge = 0, multiplicity = 1:

       Center              X                  Y                   Z               Mass
    ------------   -----------------  -----------------  -----------------  -----------------
         O            0.709861435363     1.911321875051    -0.171897717623    15.994914619570
         N            0.348815435363    -0.360790124949    -0.284746717623    14.003074004430
         C            1.784744435363    -0.535682124949    -0.535979717623    12.000000000000
         C           -0.001969664637     0.998580075051    -0.116348917623    12.000000000000
         C           -0.470656564637    -1.450627124949    -0.184009717623    12.000000000000
         C            2.587081435363    -0.471860124949     0.755600282377    12.000000000000
         C           -1.510565564637     1.082210875051     0.165882282377    12.000000000000
         C           -1.805279564637    -1.318160124949     0.084510282377    12.000000000000
         C           -2.328470564637    -0.012030124949     0.262020282377    12.000000000000
         H            1.912259435363    -1.496095124949    -1.042880717623     1.007825032230
         H            2.086211435363     0.265012875051    -1.213385717623     1.007825032230
         H            0.006975435363    -2.413933124949    -0.339547717623     1.007825032230
         H            2.445318435363     0.503096875051     1.224067282377     1.007825032230
         H            2.269004435363    -1.255495124949     1.448666282377     1.007825032230
         H            3.652206435363    -0.606615124949     0.544748282377     1.007825032230
         H           -1.885971564637     2.091893875051     0.298792282377     1.007825032230
         H           -2.432442564637    -2.199642124949     0.152369282377     1.007825032230
         H           -3.387343564637     0.122383875051     0.471805282377     1.007825032230

  Basis Set: AUG-CC-PVTZ
    Blend: AUG-CC-PVTZ
  Basis Set: (AUG-CC-PVTZ AUX)
    Blend: AUG-CC-PVTZ-JKFIT
	 Reference Energy          =    -399.7623143092231430 [Eh]
	 Singles Energy            =      -0.0000000000000000 [Eh]
	 Same-Spin Energy          =      -0.4211757311474142 [Eh]
	 Opposite-Spin Energy      =      -1.3369679694941781 [Eh]
	 Correlation Energy        =      -1.7581437006415923 [Eh]
	 Total Energy              =    -401.5204580098647398 [Eh]

	 ================> DF-SCS-MP2 Energies <==================
	-----------------------------------------------------------
	 SCS Same-Spin Scale       =       0.3333333333333333 [-]
	 SCS Opposite-Spin Scale   =       1.2000000000000000 [-]
	 SCS Same-Spin Energy      =      -0.1403919103824714 [Eh]
	 SCS Opposite-Spin Energy  =      -1.6043615633930137 [Eh]
	 SCS Correlation Energy    =      -1.7447534737754851 [Eh]
	 SCS Total Energy          =    -401.5070677829986039 [Eh]
	-----------------------------------------------------------

  Dipole Moment: [D]
     X:    -0.2411      Y:    -3.2506      Z:    -0.0304     Total:     3.2596

*** Psi4 exiting successfully. Buy a developer a beer!
