                               Psi4 1.3.2 release

  ==> Input File <==

--------------------------------------------------------------------------
#psi4
#
memory 32 gb

molecule  {
0 1
  O        0.6831730     1.9514370    -0.1851230
  N        0.3221270    -0.3206750    -0.2979720
  C        1.7580560    -0.4955670    -0.5492050
  C       -0.1524507     1.1030988    -0.0986419
  C       -0.4973450    -1.4105120    -0.1972350
  C        2.5603930    -0.4317450     0.7423750
  C       -1.5372540     1.1223260     0.1526570
  C       -1.8319680    -1.2780450     0.0712850
  C       -2.3551590     0.0280850     0.2487950
  H        1.8855710    -1.4559800    -1.0561060
  H        2.0595230     0.3051280    -1.2266110
  H       -0.0197130    -2.3738180    -0.3527730
  H        2.4186300     0.5432120     1.2108420
  H        2.2423160    -1.2153800     1.4354410
  H        3.6255180    -0.5665000     0.5315230
  H       -1.9126600     2.1320090     0.2855670
  H       -2.4591310    -2.1595270     0.1391440
  H       -3.4140320     0.1624990     0.4585800
units angstrom
no_reorient  #important for SAPT in psi4, default
symmetry c1  #important for SAPT in psi4, default
}

set PROPERTIES_ORIGIN ["COM"]
properties('MP2/aug-cc-pvtz', properties = ['dipole'])
--------------------------------------------------------------------------

    Molecular point group: c1
  Charge       = 0
  Multiplicity = 1
  Basis Set: AUG-CC-PVTZ
    Blend: AUG-CC-PVTZ
  Basis Set: (AUG-CC-PVTZ AUX)
    Blend: AUG-CC-PVTZ-JKFIT

    Orbital Energies [Eh]
    ---------------------

    Doubly Occupied:

       1A    -20.520810     2A    -15.614046     3A    -11.353763
       4A    -11.307111     5A    -11.274973     6A    -11.269242
       7A    -11.232729     8A    -11.230329     9A    -11.218928
      10A     -1.396709    11A     -1.267527    12A     -1.116407
      13A     -1.032077    14A     -1.009388    15A     -0.896200
      16A     -0.849300    17A     -0.827785    18A     -0.708694
      19A     -0.700980    20A     -0.668089    21A     -0.634510
      22A     -0.621474    23A     -0.608073    24A     -0.600096
      25A     -0.565833    26A     -0.539269    27A     -0.532825
      28A     -0.526294    29A     -0.501859    30A     -0.484775
      31A     -0.425910    32A     -0.402196    33A     -0.305853

  @DF-RHF Final Energy:  -399.76233752922769

   => Energetics <=

    Nuclear Repulsion Energy =            436.6624932173505158
    One-Electron Energy =               -1408.3615527592876333
    Two-Electron Energy =                 571.9367220127094242
    Total Energy =                       -399.7623375292276933
  Basis Set: (AUG-CC-PVTZ AUX)
    Blend: AUG-CC-PVTZ-RI
    Molecular point group: c1

    Geometry (in Angstrom), charge = 0, multiplicity = 1:

       Center              X                  Y                   Z               Mass
    ------------   -----------------  -----------------  -----------------  -----------------
         O            0.721932048388     1.905042089886    -0.174913825398    15.994914619570
         N            0.360886048388    -0.367069910114    -0.287762825398    14.003074004430
         C            1.796815048388    -0.541961910114    -0.538995825398    12.000000000000
         C           -0.113691651612     1.056703889886    -0.088432725398    12.000000000000
         C           -0.458585951612    -1.456906910114    -0.187025825398    12.000000000000
         C            2.599152048388    -0.478139910114     0.752584174602    12.000000000000
         C           -1.498494951612     1.075931089886     0.162866174602    12.000000000000
         C           -1.793208951612    -1.324439910114     0.081494174602    12.000000000000
         C           -2.316399951612    -0.018309910114     0.259004174602    12.000000000000
         H            1.924330048388    -1.502374910114    -1.045896825398     1.007825032230
         H            2.098282048388     0.258733089886    -1.216401825398     1.007825032230
         H            0.019046048388    -2.420212910114    -0.342563825398     1.007825032230
         H            2.457389048388     0.496817089886     1.221051174602     1.007825032230
         H            2.281075048388    -1.261774910114     1.445650174602     1.007825032230
         H            3.664277048388    -0.612894910114     0.541732174602     1.007825032230
         H           -1.873900951612     2.085614089886     0.295776174602     1.007825032230
         H           -2.420371951612    -2.205921910114     0.149353174602     1.007825032230
         H           -3.375272951612     0.116104089886     0.468789174602     1.007825032230

  Basis Set: AUG-CC-PVTZ
    Blend: AUG-CC-PVTZ
  Basis Set: (AUG-CC-PVTZ AUX)
    Blend: AUG-CC-PVTZ-JKFIT
	 Reference Energy          =    -399.7623375292276933 [Eh]
	 Singles Energy            =      -0.0000000000000000 [Eh]
	 Same-Spin Energy          =      -0.4240924564378543 [Eh]
	 Opposite-Spin Energy      =      -1.3401263964721877 [Eh]
	 Correlation Energy        =      -1.7642188529100420 [Eh]
	 Total Energy              =    -401.5265563821377555 [Eh]

	 ================> DF-SCS-MP2 Energies <==================
	-----------------------------------------------------------
	 SCS Same-Spin Scale       =       0.3333333333333333 [-]
	 SCS Opposite-Spin Scale   =       1.2000000000000000 [-]
	 SCS Same-Spin Energy      =      -0.1413641521459514 [Eh]
	 SCS Opposite-Spin Energy  =      -1.6081516757666252 [Eh]
	 SCS Correlation Energy    =      -1.7495158279125766 [Eh]
	 SCS Total Energy          =    -401.5118533571402963 [Eh]
	-----------------------------------------------------------

  Dipole Moment: [D]
     X:    -0.6110      Y:    -3.3029      Z:     0.0311     Total:     3.3591

*** Psi4 exiting successfully. Buy a developer a beer!
