                               Psi4 1.3.2 release

  ==> Input File <==

--------------------------------------------------------------------------
#psi4
#
memory 32 gb

molecule  {
0 1
  O        0.6831730     1.9514370    -0.1851230
  N        0.3221270    -0.3206750    -0.2979720
  C        1.7580560    -0.4955670    -0.5492050
  C        0.0085036     1.1609187    -0.1236226
  C       -0.4973450    -1.4105120    -0.1972350
  C        2.5603930    -0.4317450     0.7423750
  C       -1.5372540     1.1223260     0.1526570
  C       -1.8319680    -1.2780450     0.0712850
  C       -2.3551590     0.0280850     0.2487950
  H        1.8855710    -1.4559800    -1.0561060
  H        2.0595230     0.3051280    -1.2266110
  H       -0.0197130    -2.3738180    -0.3527730
  H        2.4186300     0.5432120     1.2108420
  H        2.2423160    -1.2153800     1.4354410
  H        3.6255180    -0.5665000     0.5315230
  H       -1.9126600     2.1320090     0.2855670
  H       -2.4591310    -2.1595270     0.1391440
  H       -3.4140320     0.1624990     0.4585800
units angstrom
no_reorient  #important for SAPT in psi4, default
symmetry c1  #important for SAPT in psi4, default
}

set PROPERTIES_ORIGIN ["COM"]
properties('MP2/aug-cc-pvtz', properties = ['dipole'])
--------------------------------------------------------------------------

    Molecular point group: c1
  Charge       = 0
  Multiplicity = 1
  Basis Set: AUG-CC-PVTZ
    Blend: AUG-CC-PVTZ
  Basis Set: (AUG-CC-PVTZ AUX)
    Blend: AUG-CC-PVTZ-JKFIT

    Orbital Energies [Eh]
    ---------------------

    Doubly Occupied:

       1A    -20.559546     2A    -15.594638     3A    -11.354984
       4A    -11.294341     5A    -11.265235     6A    -11.255561
       7A    -11.229999     8A    -11.220630     9A    -11.219516
      10A     -1.534416    11A     -1.261676    12A     -1.098111
      13A     -1.018663    14A     -0.990850    15A     -0.879769
      16A     -0.845831    17A     -0.810282    18A     -0.723996
      19A     -0.711440    20A     -0.687629    21A     -0.659684
      22A     -0.629752    23A     -0.616226    24A     -0.601684
      25A     -0.578104    26A     -0.557891    27A     -0.541275
      28A     -0.528048    29A     -0.503883    30A     -0.490338
      31A     -0.406602    32A     -0.391893    33A     -0.292439

  @DF-RHF Final Energy:  -399.69735239412194

   => Energetics <=

    Nuclear Repulsion Energy =            437.6745176030390780
    One-Electron Energy =               -1410.0338749139068568
    Two-Electron Energy =                 572.6620049167459001
    Total Energy =                       -399.6973523941219355
  Basis Set: (AUG-CC-PVTZ AUX)
    Blend: AUG-CC-PVTZ-RI
    Molecular point group: c1

    Geometry (in Angstrom), charge = 0, multiplicity = 1:

       Center              X                  Y                   Z               Mass
    ------------   -----------------  -----------------  -----------------  -----------------
         O            0.706237919094     1.899404259854    -0.172478038745    15.994914619570
         N            0.345191919094    -0.372707740146    -0.285327038745    14.003074004430
         C            1.781120919094    -0.547599740146    -0.536560038745    12.000000000000
         C            0.031568519094     1.108885959854    -0.110977638745    12.000000000000
         C           -0.474280080906    -1.462544740146    -0.184590038745    12.000000000000
         C            2.583457919094    -0.483777740146     0.755019961255    12.000000000000
         C           -1.514189080906     1.070293259854     0.165301961255    12.000000000000
         C           -1.808903080906    -1.330077740146     0.083929961255    12.000000000000
         C           -2.332094080906    -0.023947740146     0.261439961255    12.000000000000
         H            1.908635919094    -1.508012740146    -1.043461038745     1.007825032230
         H            2.082587919094     0.253095259854    -1.213966038745     1.007825032230
         H            0.003351919094    -2.425850740146    -0.340128038745     1.007825032230
         H            2.441694919094     0.491179259854     1.223486961255     1.007825032230
         H            2.265380919094    -1.267412740146     1.448085961255     1.007825032230
         H            3.648582919094    -0.618532740146     0.544167961255     1.007825032230
         H           -1.889595080906     2.079976259854     0.298211961255     1.007825032230
         H           -2.436066080906    -2.211559740146     0.151788961255     1.007825032230
         H           -3.390967080906     0.110466259854     0.471224961255     1.007825032230

  Basis Set: AUG-CC-PVTZ
    Blend: AUG-CC-PVTZ
  Basis Set: (AUG-CC-PVTZ AUX)
    Blend: AUG-CC-PVTZ-JKFIT
	 Reference Energy          =    -399.6973523941219355 [Eh]
	 Singles Energy            =      -0.0000000000000000 [Eh]
	 Same-Spin Energy          =      -0.4196621535340803 [Eh]
	 Opposite-Spin Energy      =      -1.3341911287490400 [Eh]
	 Correlation Energy        =      -1.7538532822831203 [Eh]
	 Total Energy              =    -401.4512056764050385 [Eh]

	 ================> DF-SCS-MP2 Energies <==================
	-----------------------------------------------------------
	 SCS Same-Spin Scale       =       0.3333333333333333 [-]
	 SCS Opposite-Spin Scale   =       1.2000000000000000 [-]
	 SCS Same-Spin Energy      =      -0.1398873845113601 [Eh]
	 SCS Opposite-Spin Energy  =      -1.6010293544988479 [Eh]
	 SCS Correlation Energy    =      -1.7409167390102080 [Eh]
	 SCS Total Energy          =    -401.4382691331321666 [Eh]
	-----------------------------------------------------------

  Dipole Moment: [D]
     X:     0.3864      Y:    -2.0723      Z:    -0.0731     Total:     2.1093

*** Psi4 exiting successfully. Buy a developer a beer!
