                               Psi4 1.3.2 release

  ==> Input File <==

--------------------------------------------------------------------------
#psi4
#
memory 32 gb

molecule  {
0 1
  O        0.6831730     1.9514370    -0.1851230
  N        0.3221270    -0.3206750    -0.2979720
  C        1.7580560    -0.4955670    -0.5492050
  C        0.0182342     1.0510390    -0.1387705
  C       -0.4973450    -1.4105120    -0.1972350
  C        2.5603930    -0.4317450     0.7423750
  C       -1.5372540     1.1223260     0.1526570
  C       -1.8319680    -1.2780450     0.0712850
  C       -2.3551590     0.0280850     0.2487950
  H        1.8855710    -1.4559800    -1.0561060
  H        2.0595230     0.3051280    -1.2266110
  H       -0.0197130    -2.3738180    -0.3527730
  H        2.4186300     0.5432120     1.2108420
  H        2.2423160    -1.2153800     1.4354410
  H        3.6255180    -0.5665000     0.5315230
  H       -1.9126600     2.1320090     0.2855670
  H       -2.4591310    -2.1595270     0.1391440
  H       -3.4140320     0.1624990     0.4585800
units angstrom
no_reorient  #important for SAPT in psi4, default
symmetry c1  #important for SAPT in psi4, default
}

set PROPERTIES_ORIGIN ["COM"]
properties('MP2/aug-cc-pvtz', properties = ['dipole'])
--------------------------------------------------------------------------

    Molecular point group: c1
  Charge       = 0
  Multiplicity = 1
  Basis Set: AUG-CC-PVTZ
    Blend: AUG-CC-PVTZ
  Basis Set: (AUG-CC-PVTZ AUX)
    Blend: AUG-CC-PVTZ-JKFIT

    Orbital Energies [Eh]
    ---------------------

    Doubly Occupied:

       1A    -20.535801     2A    -15.612895     3A    -11.353884
       4A    -11.299469     5A    -11.271262     6A    -11.253926
       7A    -11.234404     8A    -11.231133     9A    -11.222939
      10A     -1.457977    11A     -1.287243    12A     -1.105194
      13A     -1.023320    14A     -1.004507    15A     -0.884131
      16A     -0.867921    17A     -0.808733    18A     -0.710507
      19A     -0.702468    20A     -0.676690    21A     -0.647753
      22A     -0.626783    23A     -0.615835    24A     -0.599787
      25A     -0.569653    26A     -0.549747    27A     -0.536666
      28A     -0.533368    29A     -0.506835    30A     -0.492506
      31A     -0.412767    32A     -0.400335    33A     -0.299737

  @DF-RHF Final Energy:  -399.74508650442658

   => Energetics <=

    Nuclear Repulsion Energy =            438.0407643603103338
    One-Electron Energy =               -1410.8993555792180814
    Two-Electron Energy =                 573.1135047144812233
    Total Energy =                       -399.7450865044265811
  Basis Set: (AUG-CC-PVTZ AUX)
    Blend: AUG-CC-PVTZ-RI
    Molecular point group: c1

    Geometry (in Angstrom), charge = 0, multiplicity = 1:

       Center              X                  Y                   Z               Mass
    ------------   -----------------  -----------------  -----------------  -----------------
         O            0.705289119997     1.910118271338    -0.171001016378    15.994914619570
         N            0.344243119997    -0.361993728662    -0.283850016378    14.003074004430
         C            1.780172119997    -0.536885728662    -0.535083016378    12.000000000000
         C            0.040350319997     1.009720271338    -0.124648516378    12.000000000000
         C           -0.475228880003    -1.451830728662    -0.183113016378    12.000000000000
         C            2.582509119997    -0.473063728662     0.756496983622    12.000000000000
         C           -1.515137880003     1.081007271338     0.166778983622    12.000000000000
         C           -1.809851880003    -1.319363728662     0.085406983622    12.000000000000
         C           -2.333042880003    -0.013233728662     0.262916983622    12.000000000000
         H            1.907687119997    -1.497298728662    -1.041984016378     1.007825032230
         H            2.081639119997     0.263809271338    -1.212489016378     1.007825032230
         H            0.002403119997    -2.415136728662    -0.338651016378     1.007825032230
         H            2.440746119997     0.501893271338     1.224963983622     1.007825032230
         H            2.264432119997    -1.256698728662     1.449562983622     1.007825032230
         H            3.647634119997    -0.607818728662     0.545644983622     1.007825032230
         H           -1.890543880003     2.090690271338     0.299688983622     1.007825032230
         H           -2.437014880003    -2.200845728662     0.153265983622     1.007825032230
         H           -3.391915880003     0.121180271338     0.472701983622     1.007825032230

  Basis Set: AUG-CC-PVTZ
    Blend: AUG-CC-PVTZ
  Basis Set: (AUG-CC-PVTZ AUX)
    Blend: AUG-CC-PVTZ-JKFIT
	 Reference Energy          =    -399.7450865044265811 [Eh]
	 Singles Energy            =      -0.0000000000000000 [Eh]
	 Same-Spin Energy          =      -0.4203139677387031 [Eh]
	 Opposite-Spin Energy      =      -1.3360220063727222 [Eh]
	 Correlation Energy        =      -1.7563359741114253 [Eh]
	 Total Energy              =    -401.5014224785380179 [Eh]

	 ================> DF-SCS-MP2 Energies <==================
	-----------------------------------------------------------
	 SCS Same-Spin Scale       =       0.3333333333333333 [-]
	 SCS Opposite-Spin Scale   =       1.2000000000000000 [-]
	 SCS Same-Spin Energy      =      -0.1401046559129010 [Eh]
	 SCS Opposite-Spin Energy  =      -1.6032264076472666 [Eh]
	 SCS Correlation Energy    =      -1.7433310635601678 [Eh]
	 SCS Total Energy          =    -401.4884175679867440 [Eh]
	-----------------------------------------------------------

  Dipole Moment: [D]
     X:     0.0504      Y:    -2.9806      Z:    -0.0665     Total:     2.9818

*** Psi4 exiting successfully. Buy a developer a beer!
