                               Psi4 1.3.2 release

  ==> Input File <==

--------------------------------------------------------------------------
#psi4
#
memory 32 gb

molecule  {
0 1
  O        0.6831730     1.9514370    -0.1851230
  N        0.3221270    -0.3206750    -0.2979720
  C        1.7580560    -0.4955670    -0.5492050
  C       -0.1211040     1.0090560    -0.1118080
  C       -0.4973450    -1.4105120    -0.1972350
  C        2.5603930    -0.4317450     0.7423750
  C       -1.5372540     1.1223260     0.1526570
  C       -1.8319680    -1.2780450     0.0712850
  C       -2.3551590     0.0280850     0.2487950
  H        1.8855710    -1.4559800    -1.0561060
  H        2.0595230     0.3051280    -1.2266110
  H       -0.0197130    -2.3738180    -0.3527730
  H        2.4186300     0.5432120     1.2108420
  H        2.2423160    -1.2153800     1.4354410
  H        3.6255180    -0.5665000     0.5315230
  H       -1.9126600     2.1320090     0.2855670
  H       -2.4591310    -2.1595270     0.1391440
  H       -3.4140320     0.1624990     0.4585800
units angstrom
no_reorient  #important for SAPT in psi4, default
symmetry c1  #important for SAPT in psi4, default
}

set PROPERTIES_ORIGIN ["COM"]
properties('MP2/aug-cc-pvtz', properties = ['dipole'])
--------------------------------------------------------------------------

    Molecular point group: c1
  Charge       = 0
  Multiplicity = 1
  Basis Set: AUG-CC-PVTZ
    Blend: AUG-CC-PVTZ
  Basis Set: (AUG-CC-PVTZ AUX)
    Blend: AUG-CC-PVTZ-JKFIT

    Orbital Energies [Eh]
    ---------------------

    Doubly Occupied:

       1A    -20.506219     2A    -15.625474     3A    -11.349851
       4A    -11.308827     5A    -11.273798     6A    -11.270592
       7A    -11.240133     8A    -11.237059     9A    -11.221128
      10A     -1.369017    11A     -1.278290    12A     -1.119100
      13A     -1.031356    14A     -1.017989    15A     -0.895610
      16A     -0.870348    17A     -0.824858    18A     -0.714349
      19A     -0.700464    20A     -0.667415    21A     -0.639952
      22A     -0.613904    23A     -0.607383    24A     -0.605294
      25A     -0.560469    26A     -0.538514    27A     -0.529744
      28A     -0.525835    29A     -0.505567    30A     -0.474915
      31A     -0.421135    32A     -0.407726    33A     -0.308769

  @DF-RHF Final Energy:  -399.77152116926453

   => Energetics <=

    Nuclear Repulsion Energy =            437.4349050114601027
    One-Electron Energy =               -1409.8906844970356360
    Two-Electron Energy =                 572.6842583163110021
    Total Energy =                       -399.7715211692644743
  Basis Set: (AUG-CC-PVTZ AUX)
    Blend: AUG-CC-PVTZ-RI
    Molecular point group: c1

    Geometry (in Angstrom), charge = 0, multiplicity = 1:

       Center              X                  Y                   Z               Mass
    ------------   -----------------  -----------------  -----------------  -----------------
         O            0.718875533820     1.914211896859    -0.173630041891    15.994914619570
         N            0.357829533820    -0.357900103141    -0.286479041891    14.003074004430
         C            1.793758533820    -0.532792103141    -0.537712041891    12.000000000000
         C           -0.085401466180     0.971830896859    -0.100315041891    12.000000000000
         C           -0.461642466180    -1.447737103141    -0.185742041891    12.000000000000
         C            2.596095533820    -0.468970103141     0.753867958109    12.000000000000
         C           -1.501551466180     1.085100896859     0.164149958109    12.000000000000
         C           -1.796265466180    -1.315270103141     0.082777958109    12.000000000000
         C           -2.319456466180    -0.009140103141     0.260287958109    12.000000000000
         H            1.921273533820    -1.493205103141    -1.044613041891     1.007825032230
         H            2.095225533820     0.267902896859    -1.215118041891     1.007825032230
         H            0.015989533820    -2.411043103141    -0.341280041891     1.007825032230
         H            2.454332533820     0.505986896859     1.222334958109     1.007825032230
         H            2.278018533820    -1.252605103141     1.446933958109     1.007825032230
         H            3.661220533820    -0.603725103141     0.543015958109     1.007825032230
         H           -1.876957466180     2.094783896859     0.297059958109     1.007825032230
         H           -2.423428466180    -2.196752103141     0.150636958109     1.007825032230
         H           -3.378329466180     0.125273896859     0.470072958109     1.007825032230

  Basis Set: AUG-CC-PVTZ
    Blend: AUG-CC-PVTZ
  Basis Set: (AUG-CC-PVTZ AUX)
    Blend: AUG-CC-PVTZ-JKFIT
	 Reference Energy          =    -399.7715211692645312 [Eh]
	 Singles Energy            =      -0.0000000000000000 [Eh]
	 Same-Spin Energy          =      -0.4234552750555844 [Eh]
	 Opposite-Spin Energy      =      -1.3398408207362049 [Eh]
	 Correlation Energy        =      -1.7632960957917894 [Eh]
	 Total Energy              =    -401.5348172650563470 [Eh]

	 ================> DF-SCS-MP2 Energies <==================
	-----------------------------------------------------------
	 SCS Same-Spin Scale       =       0.3333333333333333 [-]
	 SCS Opposite-Spin Scale   =       1.2000000000000000 [-]
	 SCS Same-Spin Energy      =      -0.1411517583518615 [Eh]
	 SCS Opposite-Spin Energy  =      -1.6078089848834458 [Eh]
	 SCS Correlation Energy    =      -1.7489607432353074 [Eh]
	 SCS Total Energy          =    -401.5204819124998608 [Eh]
	-----------------------------------------------------------

  Dipole Moment: [D]
     X:    -0.7583      Y:    -3.8129      Z:     0.0320     Total:     3.8877

*** Psi4 exiting successfully. Buy a developer a beer!
