                               Psi4 1.3.2 release

  ==> Input File <==

--------------------------------------------------------------------------
#psi4
#
memory 32 gb

molecule  {
0 1
  O        0.6831730     1.9514370    -0.1851230
  N        0.3221270    -0.3206750    -0.2979720
  C        1.7580560    -0.4955670    -0.5492050
  C       -0.1211040     1.0090560    -0.1118080
  C       -0.4973450    -1.4105120    -0.1972350
  C        2.5603930    -0.4317450     0.7423750
  C       -1.5372540     1.1223260     0.1526570
  C       -1.8184745    -1.1835974     0.0747866
  C       -2.3551590     0.0280850     0.2487950
  H        1.8855710    -1.4559800    -1.0561060
  H        2.0595230     0.3051280    -1.2266110
  H       -0.0197130    -2.3738180    -0.3527730
  H        2.4186300     0.5432120     1.2108420
  H        2.2423160    -1.2153800     1.4354410
  H        3.6255180    -0.5665000     0.5315230
  H       -1.9126600     2.1320090     0.2855670
  H       -2.4591310    -2.1595270     0.1391440
  H       -3.4140320     0.1624990     0.4585800
units angstrom
no_reorient  #important for SAPT in psi4, default
symmetry c1  #important for SAPT in psi4, default
}

set PROPERTIES_ORIGIN ["COM"]
properties('MP2/aug-cc-pvtz', properties = ['dipole'])
--------------------------------------------------------------------------

    Molecular point group: c1
  Charge       = 0
  Multiplicity = 1
  Basis Set: AUG-CC-PVTZ
    Blend: AUG-CC-PVTZ
  Basis Set: (AUG-CC-PVTZ AUX)
    Blend: AUG-CC-PVTZ-JKFIT

    Orbital Energies [Eh]
    ---------------------

    Doubly Occupied:

       1A    -20.501837     2A    -15.627989     3A    -11.347307
       4A    -11.311605     5A    -11.274255     6A    -11.262308
       7A    -11.240693     8A    -11.235245     9A    -11.221800
      10A     -1.367458    11A     -1.280110    12A     -1.131974
      13A     -1.032997    14A     -1.016846    15A     -0.901877
      16A     -0.871840    17A     -0.821555    18A     -0.717762
      19A     -0.700137    20A     -0.667943    21A     -0.641468
      22A     -0.619496    23A     -0.609980    24A     -0.597827
      25A     -0.557112    26A     -0.536873    27A     -0.528427
      28A     -0.520839    29A     -0.504957    30A     -0.478017
      31A     -0.419628    32A     -0.413476    33A     -0.303515

  @DF-RHF Final Energy:  -399.75672340653011

   => Energetics <=

    Nuclear Repulsion Energy =            439.0094582719405025
    One-Electron Energy =               -1413.0020523502214473
    Two-Electron Energy =                 574.2358706717508312
    Total Energy =                       -399.7567234065301136
  Basis Set: (AUG-CC-PVTZ AUX)
    Blend: AUG-CC-PVTZ-RI
    Molecular point group: c1

    Geometry (in Angstrom), charge = 0, multiplicity = 1:

       Center              X                  Y                   Z               Mass
    ------------   -----------------  -----------------  -----------------  -----------------
         O            0.717559826606     1.905002619157    -0.173971471496    15.994914619570
         N            0.356513826606    -0.367109380843    -0.286820471496    14.003074004430
         C            1.792442826606    -0.542001380843    -0.538053471496    12.000000000000
         C           -0.086717173394     0.962621619157    -0.100656471496    12.000000000000
         C           -0.462958173394    -1.456946380843    -0.186083471496    12.000000000000
         C            2.594779826606    -0.478179380843     0.753526528504    12.000000000000
         C           -1.502867173394     1.075891619157     0.163808528504    12.000000000000
         C           -1.784087673394    -1.230031780843     0.085938128504    12.000000000000
         C           -2.320772173394    -0.018349380843     0.259946528504    12.000000000000
         H            1.919957826606    -1.502414380843    -1.044954471496     1.007825032230
         H            2.093909826606     0.258693619157    -1.215459471496     1.007825032230
         H            0.014673826606    -2.420252380843    -0.341621471496     1.007825032230
         H            2.453016826606     0.496777619157     1.221993528504     1.007825032230
         H            2.276702826606    -1.261814380843     1.446592528504     1.007825032230
         H            3.659904826606    -0.612934380843     0.542674528504     1.007825032230
         H           -1.878273173394     2.085574619157     0.296718528504     1.007825032230
         H           -2.424744173394    -2.205961380843     0.150295528504     1.007825032230
         H           -3.379645173394     0.116064619157     0.469731528504     1.007825032230

  Basis Set: AUG-CC-PVTZ
    Blend: AUG-CC-PVTZ
  Basis Set: (AUG-CC-PVTZ AUX)
    Blend: AUG-CC-PVTZ-JKFIT
	 Reference Energy          =    -399.7567234065301136 [Eh]
	 Singles Energy            =      -0.0000000000000000 [Eh]
	 Same-Spin Energy          =      -0.4255428368782696 [Eh]
	 Opposite-Spin Energy      =      -1.3418552658699650 [Eh]
	 Correlation Energy        =      -1.7673981027482346 [Eh]
	 Total Energy              =    -401.5241215092783591 [Eh]

	 ================> DF-SCS-MP2 Energies <==================
	-----------------------------------------------------------
	 SCS Same-Spin Scale       =       0.3333333333333333 [-]
	 SCS Opposite-Spin Scale   =       1.2000000000000000 [-]
	 SCS Same-Spin Energy      =      -0.1418476122927565 [Eh]
	 SCS Opposite-Spin Energy  =      -1.6102263190439579 [Eh]
	 SCS Correlation Energy    =      -1.7520739313367144 [Eh]
	 SCS Total Energy          =    -401.5087973378668380 [Eh]
	-----------------------------------------------------------

  Dipole Moment: [D]
     X:    -0.7458      Y:    -3.8995      Z:     0.0274     Total:     3.9702

*** Psi4 exiting successfully. Buy a developer a beer!
