                               Psi4 1.3.2 release

  ==> Input File <==

--------------------------------------------------------------------------
#psi4
#
memory 32 gb

molecule  {
0 1
  O        0.6831730     1.9514370    -0.1851230
  N        0.3221270    -0.3206750    -0.2979720
  C        1.7580560    -0.4955670    -0.5492050
  C       -0.1211040     1.0090560    -0.1118080
  C       -0.5032169    -1.4578659    -0.1988149
  C        2.5603930    -0.4317450     0.7423750
  C       -1.5372540     1.1223260     0.1526570
  C       -1.8319680    -1.2780450     0.0712850
  C       -2.3551590     0.0280850     0.2487950
  H        1.8855710    -1.4559800    -1.0561060
  H        2.0595230     0.3051280    -1.2266110
  H       -0.0197130    -2.3738180    -0.3527730
  H        2.4186300     0.5432120     1.2108420
  H        2.2423160    -1.2153800     1.4354410
  H        3.6255180    -0.5665000     0.5315230
  H       -1.9126600     2.1320090     0.2855670
  H       -2.4591310    -2.1595270     0.1391440
  H       -3.4140320     0.1624990     0.4585800
units angstrom
no_reorient  #important for SAPT in psi4, default
symmetry c1  #important for SAPT in psi4, default
}

set PROPERTIES_ORIGIN ["COM"]
properties('MP2/aug-cc-pvtz', properties = ['dipole'])
--------------------------------------------------------------------------

    Molecular point group: c1
  Charge       = 0
  Multiplicity = 1
  Basis Set: AUG-CC-PVTZ
    Blend: AUG-CC-PVTZ
  Basis Set: (AUG-CC-PVTZ AUX)
    Blend: AUG-CC-PVTZ-JKFIT

    Orbital Energies [Eh]
    ---------------------

    Doubly Occupied:

       1A    -20.506183     2A    -15.622007     3A    -11.349870
       4A    -11.308274     5A    -11.271906     6A    -11.270882
       7A    -11.243884     8A    -11.240384     9A    -11.219175
      10A     -1.366320    11A     -1.267400    12A     -1.118650
      13A     -1.031107    14A     -1.016869    15A     -0.895253
      16A     -0.869656    17A     -0.820469    18A     -0.715638
      19A     -0.698570    20A     -0.673892    21A     -0.636896
      22A     -0.613312    23A     -0.606898    24A     -0.604637
      25A     -0.558264    26A     -0.540722    27A     -0.528323
      28A     -0.523850    29A     -0.502880    30A     -0.472777
      31A     -0.421484    32A     -0.404831    33A     -0.311889

  @DF-RHF Final Energy:  -399.76755687484842

   => Energetics <=

    Nuclear Repulsion Energy =            436.5157846386337610
    One-Electron Energy =               -1408.1003789012690959
    Two-Electron Energy =                 571.8170373877869679
    Total Energy =                       -399.7675568748484238
  Basis Set: (AUG-CC-PVTZ AUX)
    Blend: AUG-CC-PVTZ-RI
    Molecular point group: c1

    Geometry (in Angstrom), charge = 0, multiplicity = 1:

       Center              X                  Y                   Z               Mass
    ------------   -----------------  -----------------  -----------------  -----------------
         O            0.719448083655     1.918829221336    -0.173475990990    15.994914619570
         N            0.358402083655    -0.353282778664    -0.286324990990    14.003074004430
         C            1.794331083655    -0.528174778664    -0.537557990990    12.000000000000
         C           -0.084828916345     0.976448221336    -0.100160990990    12.000000000000
         C           -0.466941816345    -1.490473678664    -0.187167890990    12.000000000000
         C            2.596668083655    -0.464352778664     0.754022009010    12.000000000000
         C           -1.500978916345     1.089718221336     0.164304009010    12.000000000000
         C           -1.795692916345    -1.310652778664     0.082932009010    12.000000000000
         C           -2.318883916345    -0.004522778664     0.260442009010    12.000000000000
         H            1.921846083655    -1.488587778664    -1.044458990990     1.007825032230
         H            2.095798083655     0.272520221336    -1.214963990990     1.007825032230
         H            0.016562083655    -2.406425778664    -0.341125990990     1.007825032230
         H            2.454905083655     0.510604221336     1.222489009010     1.007825032230
         H            2.278591083655    -1.247987778664     1.447088009010     1.007825032230
         H            3.661793083655    -0.599107778664     0.543170009010     1.007825032230
         H           -1.876384916345     2.099401221336     0.297214009010     1.007825032230
         H           -2.422855916345    -2.192134778664     0.150791009010     1.007825032230
         H           -3.377756916345     0.129891221336     0.470227009010     1.007825032230

  Basis Set: AUG-CC-PVTZ
    Blend: AUG-CC-PVTZ
  Basis Set: (AUG-CC-PVTZ AUX)
    Blend: AUG-CC-PVTZ-JKFIT
	 Reference Energy          =    -399.7675568748484238 [Eh]
	 Singles Energy            =      -0.0000000000000000 [Eh]
	 Same-Spin Energy          =      -0.4233427763909449 [Eh]
	 Opposite-Spin Energy      =      -1.3406435096604596 [Eh]
	 Correlation Energy        =      -1.7639862860514044 [Eh]
	 Total Energy              =    -401.5315431608998438 [Eh]

	 ================> DF-SCS-MP2 Energies <==================
	-----------------------------------------------------------
	 SCS Same-Spin Scale       =       0.3333333333333333 [-]
	 SCS Opposite-Spin Scale   =       1.2000000000000000 [-]
	 SCS Same-Spin Energy      =      -0.1411142587969816 [Eh]
	 SCS Opposite-Spin Energy  =      -1.6087722115925516 [Eh]
	 SCS Correlation Energy    =      -1.7498864703895332 [Eh]
	 SCS Total Energy          =    -401.5174433452379503 [Eh]
	-----------------------------------------------------------

  Dipole Moment: [D]
     X:    -0.8929      Y:    -3.8334      Z:     0.0459     Total:     3.9363

*** Psi4 exiting successfully. Buy a developer a beer!
