                               Psi4 1.3.2 release

  ==> Input File <==

--------------------------------------------------------------------------
#psi4
#
memory 32 gb

molecule  {
0 1
  O        0.6831730     1.9514370    -0.1851230
  N        0.3221270    -0.3206750    -0.2979720
  C        1.7580560    -0.4955670    -0.5492050
  C       -0.1211040     1.0090560    -0.1118080
  C       -0.4973450    -1.4105120    -0.1972350
  C        2.5603930    -0.4317450     0.7423750
  C       -1.5372540     1.1223260     0.1526570
  C       -1.8343273    -1.3017758     0.0702044
  C       -2.3551590     0.0280850     0.2487950
  H        1.8855710    -1.4559800    -1.0561060
  H        2.0595230     0.3051280    -1.2266110
  H       -0.0197130    -2.3738180    -0.3527730
  H        2.4186300     0.5432120     1.2108420
  H        2.2423160    -1.2153800     1.4354410
  H        3.6255180    -0.5665000     0.5315230
  H       -1.9126600     2.1320090     0.2855670
  H       -2.4591310    -2.1595270     0.1391440
  H       -3.4140320     0.1624990     0.4585800
units angstrom
no_reorient  #important for SAPT in psi4, default
symmetry c1  #important for SAPT in psi4, default
}

set PROPERTIES_ORIGIN ["COM"]
properties('MP2/aug-cc-pvtz', properties = ['dipole'])
--------------------------------------------------------------------------

    Molecular point group: c1
  Charge       = 0
  Multiplicity = 1
  Basis Set: AUG-CC-PVTZ
    Blend: AUG-CC-PVTZ
  Basis Set: (AUG-CC-PVTZ AUX)
    Blend: AUG-CC-PVTZ-JKFIT

    Orbital Energies [Eh]
    ---------------------

    Doubly Occupied:

       1A    -20.507319     2A    -15.625001     3A    -11.350504
       4A    -11.308396     5A    -11.273737     6A    -11.272516
       7A    -11.240152     8A    -11.237570     9A    -11.221004
      10A     -1.369485    11A     -1.277956    12A     -1.116360
      13A     -1.031317    14A     -1.018104    15A     -0.894324
      16A     -0.870137    17A     -0.825649    18A     -0.714028
      19A     -0.701118    20A     -0.667236    21A     -0.640095
      22A     -0.613443    23A     -0.607350    24A     -0.606047
      25A     -0.563123    26A     -0.538264    27A     -0.528987
      28A     -0.525252    29A     -0.505452    30A     -0.474309
      31A     -0.421578    32A     -0.406319    33A     -0.310119

  @DF-RHF Final Energy:  -399.77141150660907

   => Energetics <=

    Nuclear Repulsion Energy =            437.0651313415102095
    One-Electron Energy =               -1409.1485889059676992
    Two-Electron Energy =                 572.3120460578484199
    Total Energy =                       -399.7714115066090699
  Basis Set: (AUG-CC-PVTZ AUX)
    Blend: AUG-CC-PVTZ-RI
    Molecular point group: c1

    Geometry (in Angstrom), charge = 0, multiplicity = 1:

       Center              X                  Y                   Z               Mass
    ------------   -----------------  -----------------  -----------------  -----------------
         O            0.719105581475     1.916525809835    -0.173524676106    15.994914619570
         N            0.358059581475    -0.355586190165    -0.286373676106    14.003074004430
         C            1.793988581475    -0.530478190165    -0.537606676106    12.000000000000
         C           -0.085171418525     0.974144809835    -0.100209676106    12.000000000000
         C           -0.461412418525    -1.445423190165    -0.185636676106    12.000000000000
         C            2.596325581475    -0.466656190165     0.753973323894    12.000000000000
         C           -1.501321418525     1.087414809835     0.164255323894    12.000000000000
         C           -1.798394718525    -1.336686990165     0.081802723894    12.000000000000
         C           -2.319226418525    -0.006826190165     0.260393323894    12.000000000000
         H            1.921503581475    -1.490891190165    -1.044507676106     1.007825032230
         H            2.095455581475     0.270216809835    -1.215012676106     1.007825032230
         H            0.016219581475    -2.408729190165    -0.341174676106     1.007825032230
         H            2.454562581475     0.508300809835     1.222440323894     1.007825032230
         H            2.278248581475    -1.250291190165     1.447039323894     1.007825032230
         H            3.661450581475    -0.601411190165     0.543121323894     1.007825032230
         H           -1.876727418525     2.097097809835     0.297165323894     1.007825032230
         H           -2.423198418525    -2.194438190165     0.150742323894     1.007825032230
         H           -3.378099418525     0.127587809835     0.470178323894     1.007825032230

  Basis Set: AUG-CC-PVTZ
    Blend: AUG-CC-PVTZ
  Basis Set: (AUG-CC-PVTZ AUX)
    Blend: AUG-CC-PVTZ-JKFIT
	 Reference Energy          =    -399.7714115066090699 [Eh]
	 Singles Energy            =      -0.0000000000000000 [Eh]
	 Same-Spin Energy          =      -0.4230109177119371 [Eh]
	 Opposite-Spin Energy      =      -1.3395520480794696 [Eh]
	 Correlation Energy        =      -1.7625629657914068 [Eh]
	 Total Energy              =    -401.5339744724004731 [Eh]

	 ================> DF-SCS-MP2 Energies <==================
	-----------------------------------------------------------
	 SCS Same-Spin Scale       =       0.3333333333333333 [-]
	 SCS Opposite-Spin Scale   =       1.2000000000000000 [-]
	 SCS Same-Spin Energy      =      -0.1410036392373124 [Eh]
	 SCS Opposite-Spin Energy  =      -1.6074624576953636 [Eh]
	 SCS Correlation Energy    =      -1.7484660969326760 [Eh]
	 SCS Total Energy          =    -401.5198776035417723 [Eh]
	-----------------------------------------------------------

  Dipole Moment: [D]
     X:    -0.7590      Y:    -3.7820      Z:     0.0334     Total:     3.8575

*** Psi4 exiting successfully. Buy a developer a beer!
