                               Psi4 1.3.2 release

  ==> Input File <==

--------------------------------------------------------------------------
#psi4
#
memory 32 gb

molecule  {
0 1
  O        0.6831730     1.9514370    -0.1851230
  N        0.3450824    -0.3123084    -0.3014439
  C        1.7580560    -0.4955670    -0.5492050
  C       -0.1211040     1.0090560    -0.1118080
  C       -0.4973450    -1.4105120    -0.1972350
  C        2.5603930    -0.4317450     0.7423750
  C       -1.5372540     1.1223260     0.1526570
  C       -1.8319680    -1.2780450     0.0712850
  C       -2.3551590     0.0280850     0.2487950
  H        1.8855710    -1.4559800    -1.0561060
  H        2.0595230     0.3051280    -1.2266110
  H       -0.0197130    -2.3738180    -0.3527730
  H        2.4186300     0.5432120     1.2108420
  H        2.2423160    -1.2153800     1.4354410
  H        3.6255180    -0.5665000     0.5315230
  H       -1.9126600     2.1320090     0.2855670
  H       -2.4591310    -2.1595270     0.1391440
  H       -3.4140320     0.1624990     0.4585800
units angstrom
no_reorient  #important for SAPT in psi4, default
symmetry c1  #important for SAPT in psi4, default
}

set PROPERTIES_ORIGIN ["COM"]
properties('MP2/aug-cc-pvtz', properties = ['dipole'])
--------------------------------------------------------------------------

    Molecular point group: c1
  Charge       = 0
  Multiplicity = 1
  Basis Set: AUG-CC-PVTZ
    Blend: AUG-CC-PVTZ
  Basis Set: (AUG-CC-PVTZ AUX)
    Blend: AUG-CC-PVTZ-JKFIT

    Orbital Energies [Eh]
    ---------------------

    Doubly Occupied:

       1A    -20.505688     2A    -15.624448     3A    -11.349796
       4A    -11.310387     5A    -11.271677     6A    -11.271113
       7A    -11.242224     8A    -11.238758     9A    -11.219783
      10A     -1.369096    11A     -1.275305    12A     -1.121593
      13A     -1.029805    14A     -1.017532    15A     -0.897574
      16A     -0.869219    17A     -0.823140    18A     -0.713373
      19A     -0.701448    20A     -0.670073    21A     -0.639827
      22A     -0.613448    23A     -0.606629    24A     -0.605480
      25A     -0.560153    26A     -0.538348    27A     -0.530198
      28A     -0.526735    29A     -0.503899    30A     -0.473295
      31A     -0.421360    32A     -0.406531    33A     -0.310241

  @DF-RHF Final Energy:  -399.77064588070095

   => Energetics <=

    Nuclear Repulsion Energy =            437.3728147929770671
    One-Electron Energy =               -1409.7705684911422850
    Two-Electron Energy =                 572.6271078174642071
    Total Energy =                       -399.7706458807009540
  Basis Set: (AUG-CC-PVTZ AUX)
    Blend: AUG-CC-PVTZ-RI
    Molecular point group: c1

    Geometry (in Angstrom), charge = 0, multiplicity = 1:

       Center              X                  Y                   Z               Mass
    ------------   -----------------  -----------------  -----------------  -----------------
         O            0.716263603149     1.913259921325    -0.173234999239    15.994914619570
         N            0.378173003149    -0.350485478675    -0.289555899239    14.003074004430
         C            1.791146603149    -0.533744078675    -0.537316999239    12.000000000000
         C           -0.088013396851     0.970878921325    -0.099919999239    12.000000000000
         C           -0.464254396851    -1.448689078675    -0.185346999239    12.000000000000
         C            2.593483603149    -0.469922078675     0.754263000761    12.000000000000
         C           -1.504163396851     1.084148921325     0.164545000761    12.000000000000
         C           -1.798877396851    -1.316222078675     0.083173000761    12.000000000000
         C           -2.322068396851    -0.010092078675     0.260683000761    12.000000000000
         H            1.918661603149    -1.494157078675    -1.044217999239     1.007825032230
         H            2.092613603149     0.266950921325    -1.214722999239     1.007825032230
         H            0.013377603149    -2.411995078675    -0.340884999239     1.007825032230
         H            2.451720603149     0.505034921325     1.222730000761     1.007825032230
         H            2.275406603149    -1.253557078675     1.447329000761     1.007825032230
         H            3.658608603149    -0.604677078675     0.543411000761     1.007825032230
         H           -1.879569396851     2.093831921325     0.297455000761     1.007825032230
         H           -2.426040396851    -2.197704078675     0.151032000761     1.007825032230
         H           -3.380941396851     0.124321921325     0.470468000761     1.007825032230

  Basis Set: AUG-CC-PVTZ
    Blend: AUG-CC-PVTZ
  Basis Set: (AUG-CC-PVTZ AUX)
    Blend: AUG-CC-PVTZ-JKFIT
	 Reference Energy          =    -399.7706458807009540 [Eh]
	 Singles Energy            =      -0.0000000000000000 [Eh]
	 Same-Spin Energy          =      -0.4233368406496304 [Eh]
	 Opposite-Spin Energy      =      -1.3399686762459451 [Eh]
	 Correlation Energy        =      -1.7633055168955756 [Eh]
	 Total Energy              =    -401.5339513975965247 [Eh]

	 ================> DF-SCS-MP2 Energies <==================
	-----------------------------------------------------------
	 SCS Same-Spin Scale       =       0.3333333333333333 [-]
	 SCS Opposite-Spin Scale   =       1.2000000000000000 [-]
	 SCS Same-Spin Energy      =      -0.1411122802165435 [Eh]
	 SCS Opposite-Spin Energy  =      -1.6079624114951341 [Eh]
	 SCS Correlation Energy    =      -1.7490746917116775 [Eh]
	 SCS Total Energy          =    -401.5197205724126093 [Eh]
	-----------------------------------------------------------

  Dipole Moment: [D]
     X:    -0.8543      Y:    -3.8102      Z:     0.0412     Total:     3.9050

*** Psi4 exiting successfully. Buy a developer a beer!
