                               Psi4 1.3.2 release

  ==> Input File <==

--------------------------------------------------------------------------
#psi4
#
memory 32 gb

molecule  {
0 1
  O        0.6831730     1.9514370    -0.1851230
  N        0.3221270    -0.3206750    -0.2979720
  C        1.7580560    -0.4955670    -0.5492050
  C       -0.1211040     1.0090560    -0.1118080
  C       -0.4973450    -1.4105120    -0.1972350
  C        2.5603930    -0.4317450     0.7423750
  C       -1.5372540     1.1223260     0.1526570
  C       -1.8319680    -1.2780450     0.0712850
  C       -2.3551590     0.0280850     0.2487950
  H        1.8855710    -1.4559800    -1.0561060
  H        2.0595230     0.3051280    -1.2266110
  H       -0.1076416    -2.1964802    -0.3241396
  H        2.4186300     0.5432120     1.2108420
  H        2.2423160    -1.2153800     1.4354410
  H        3.6255180    -0.5665000     0.5315230
  H       -1.9126600     2.1320090     0.2855670
  H       -2.4591310    -2.1595270     0.1391440
  H       -3.4140320     0.1624990     0.4585800
units angstrom
no_reorient  #important for SAPT in psi4, default
symmetry c1  #important for SAPT in psi4, default
}

set PROPERTIES_ORIGIN ["COM"]
properties('MP2/aug-cc-pvtz', properties = ['dipole'])
--------------------------------------------------------------------------

    Molecular point group: c1
  Charge       = 0
  Multiplicity = 1
  Basis Set: AUG-CC-PVTZ
    Blend: AUG-CC-PVTZ
  Basis Set: (AUG-CC-PVTZ AUX)
    Blend: AUG-CC-PVTZ-JKFIT

    Orbital Energies [Eh]
    ---------------------

    Doubly Occupied:

       1A    -20.505685     2A    -15.624261     3A    -11.348965
       4A    -11.286100     5A    -11.274045     6A    -11.269890
       7A    -11.239740     8A    -11.237171     9A    -11.221314
      10A     -1.368606    11A     -1.279608    12A     -1.119010
      13A     -1.040875    14A     -1.020120    15A     -0.902190
      16A     -0.881831    17A     -0.825113    18A     -0.739031
      19A     -0.701252    20A     -0.679172    21A     -0.641672
      22A     -0.616843    23A     -0.610099    24A     -0.605705
      25A     -0.560176    26A     -0.541475    27A     -0.530504
      28A     -0.525890    29A     -0.505607    30A     -0.474652
      31A     -0.421269    32A     -0.407229    33A     -0.308609

  @DF-RHF Final Energy:  -399.73682371365112

   => Energetics <=

    Nuclear Repulsion Energy =            438.6142934871754733
    One-Electron Energy =               -1412.0748170944045796
    Two-Electron Energy =                 573.7236998935779866
    Total Energy =                       -399.7368237136511198
  Basis Set: (AUG-CC-PVTZ AUX)
    Blend: AUG-CC-PVTZ-RI
    Molecular point group: c1

    Geometry (in Angstrom), charge = 0, multiplicity = 1:

       Center              X                  Y                   Z               Mass
    ------------   -----------------  -----------------  -----------------  -----------------
         O            0.719595593837     1.912759651979    -0.173864524943    15.994914619570
         N            0.358549593837    -0.359352348021    -0.286713524943    14.003074004430
         C            1.794478593837    -0.534244348021    -0.537946524943    12.000000000000
         C           -0.084681406163     0.970378651979    -0.100549524943    12.000000000000
         C           -0.460922406163    -1.449189348021    -0.185976524943    12.000000000000
         C            2.596815593837    -0.470422348021     0.753633475057    12.000000000000
         C           -1.500831406163     1.083648651979     0.163915475057    12.000000000000
         C           -1.795545406163    -1.316722348021     0.082543475057    12.000000000000
         C           -2.318736406163    -0.010592348021     0.260053475057    12.000000000000
         H            1.921993593837    -1.494657348021    -1.044847524943     1.007825032230
         H            2.095945593837     0.266450651979    -1.215352524943     1.007825032230
         H           -0.071219006163    -2.235157548021    -0.312881124943     1.007825032230
         H            2.455052593837     0.504534651979     1.222100475057     1.007825032230
         H            2.278738593837    -1.254057348021     1.446699475057     1.007825032230
         H            3.661940593837    -0.605177348021     0.542781475057     1.007825032230
         H           -1.876237406163     2.093331651979     0.296825475057     1.007825032230
         H           -2.422708406163    -2.198204348021     0.150402475057     1.007825032230
         H           -3.377609406163     0.123821651979     0.469838475057     1.007825032230

  Basis Set: AUG-CC-PVTZ
    Blend: AUG-CC-PVTZ
  Basis Set: (AUG-CC-PVTZ AUX)
    Blend: AUG-CC-PVTZ-JKFIT
	 Reference Energy          =    -399.7368237136511198 [Eh]
	 Singles Energy            =      -0.0000000000000000 [Eh]
	 Same-Spin Energy          =      -0.4230503020421302 [Eh]
	 Opposite-Spin Energy      =      -1.3391011095150858 [Eh]
	 Correlation Energy        =      -1.7621514115572159 [Eh]
	 Total Energy              =    -401.4989751252083465 [Eh]

	 ================> DF-SCS-MP2 Energies <==================
	-----------------------------------------------------------
	 SCS Same-Spin Scale       =       0.3333333333333333 [-]
	 SCS Opposite-Spin Scale   =       1.2000000000000000 [-]
	 SCS Same-Spin Energy      =      -0.1410167673473767 [Eh]
	 SCS Opposite-Spin Energy  =      -1.6069213314181028 [Eh]
	 SCS Correlation Energy    =      -1.7479380987654796 [Eh]
	 SCS Total Energy          =    -401.4847618124165933 [Eh]
	-----------------------------------------------------------

  Dipole Moment: [D]
     X:    -0.7623      Y:    -3.8224      Z:     0.0320     Total:     3.8978

*** Psi4 exiting successfully. Buy a developer a beer!
