                               Psi4 1.3.2 release

  ==> Input File <==

--------------------------------------------------------------------------
#psi4
#
memory 32 gb

molecule  {
0 1
  O        0.6831730     1.9514370    -0.1851230
  N        0.3221270    -0.3206750    -0.2979720
  C        1.7580560    -0.4955670    -0.5492050
  C       -0.1418211     0.8592637    -0.1153316
  C       -0.4973450    -1.4105120    -0.1972350
  C        2.5603930    -0.4317450     0.7423750
  C       -1.5372540     1.1223260     0.1526570
  C       -1.8319680    -1.2780450     0.0712850
  C       -2.3551590     0.0280850     0.2487950
  H        1.8855710    -1.4559800    -1.0561060
  H        2.0595230     0.3051280    -1.2266110
  H       -0.0197130    -2.3738180    -0.3527730
  H        2.4186300     0.5432120     1.2108420
  H        2.2423160    -1.2153800     1.4354410
  H        3.6255180    -0.5665000     0.5315230
  H       -1.9126600     2.1320090     0.2855670
  H       -2.4591310    -2.1595270     0.1391440
  H       -3.4140320     0.1624990     0.4585800
units angstrom
no_reorient  #important for SAPT in psi4, default
symmetry c1  #important for SAPT in psi4, default
}

set PROPERTIES_ORIGIN ["COM"]
properties('MP2/aug-cc-pvtz', properties = ['dipole'])
--------------------------------------------------------------------------

    Molecular point group: c1
  Charge       = 0
  Multiplicity = 1
  Basis Set: AUG-CC-PVTZ
    Blend: AUG-CC-PVTZ
  Basis Set: (AUG-CC-PVTZ AUX)
    Blend: AUG-CC-PVTZ-JKFIT

    Orbital Energies [Eh]
    ---------------------

    Doubly Occupied:

       1A    -20.473324     2A    -15.642224     3A    -11.339130
       4A    -11.313429     5A    -11.281117     6A    -11.271852
       7A    -11.255393     8A    -11.248368     9A    -11.223699
      10A     -1.368498    11A     -1.231685    12A     -1.131069
      13A     -1.038114    14A     -1.034924    15A     -0.902404
      16A     -0.900229    17A     -0.825787    18A     -0.729038
      19A     -0.702728    20A     -0.672995    21A     -0.652485
      22A     -0.630264    23A     -0.614484    24A     -0.588760
      25A     -0.552863    26A     -0.539330    27A     -0.526667
      28A     -0.511334    29A     -0.505004    30A     -0.442365
      31A     -0.416266    32A     -0.391863    33A     -0.314525

  @DF-RHF Final Energy:  -399.73901625568431

   => Energetics <=

    Nuclear Repulsion Energy =            438.6409965706952221
    One-Electron Energy =               -1412.2155919940123567
    Two-Electron Energy =                 573.8355791676327726
    Total Energy =                       -399.7390162556843052
  Basis Set: (AUG-CC-PVTZ AUX)
    Blend: AUG-CC-PVTZ-RI
    Molecular point group: c1

    Geometry (in Angstrom), charge = 0, multiplicity = 1:

       Center              X                  Y                   Z               Mass
    ------------   -----------------  -----------------  -----------------  -----------------
         O            0.720895590731     1.928817655906    -0.173286467137    15.994914619570
         N            0.359849590731    -0.343294344094    -0.286135467137    14.003074004430
         C            1.795778590731    -0.518186344094    -0.537368467137    12.000000000000
         C           -0.104098509269     0.836644355906    -0.103495067137    12.000000000000
         C           -0.459622409269    -1.433131344094    -0.185398467137    12.000000000000
         C            2.598115590731    -0.454364344094     0.754211532863    12.000000000000
         C           -1.499531409269     1.099706655906     0.164493532863    12.000000000000
         C           -1.794245409269    -1.300664344094     0.083121532863    12.000000000000
         C           -2.317436409269     0.005465655906     0.260631532863    12.000000000000
         H            1.923293590731    -1.478599344094    -1.044269467137     1.007825032230
         H            2.097245590731     0.282508655906    -1.214774467137     1.007825032230
         H            0.018009590731    -2.396437344094    -0.340936467137     1.007825032230
         H            2.456352590731     0.520592655906     1.222678532863     1.007825032230
         H            2.280038590731    -1.237999344094     1.447277532863     1.007825032230
         H            3.663240590731    -0.589119344094     0.543359532863     1.007825032230
         H           -1.874937409269     2.109389655906     0.297403532863     1.007825032230
         H           -2.421408409269    -2.182146344094     0.150980532863     1.007825032230
         H           -3.376309409269     0.139879655906     0.470416532863     1.007825032230

  Basis Set: AUG-CC-PVTZ
    Blend: AUG-CC-PVTZ
  Basis Set: (AUG-CC-PVTZ AUX)
    Blend: AUG-CC-PVTZ-JKFIT
	 Reference Energy          =    -399.7390162556843052 [Eh]
	 Singles Energy            =      -0.0000000000000000 [Eh]
	 Same-Spin Energy          =      -0.4247139932831629 [Eh]
	 Opposite-Spin Energy      =      -1.3426986795596942 [Eh]
	 Correlation Energy        =      -1.7674126728428572 [Eh]
	 Total Energy              =    -401.5064289285271570 [Eh]

	 ================> DF-SCS-MP2 Energies <==================
	-----------------------------------------------------------
	 SCS Same-Spin Scale       =       0.3333333333333333 [-]
	 SCS Opposite-Spin Scale   =       1.2000000000000000 [-]
	 SCS Same-Spin Energy      =      -0.1415713310943876 [Eh]
	 SCS Opposite-Spin Energy  =      -1.6112384154716330 [Eh]
	 SCS Correlation Energy    =      -1.7528097465660206 [Eh]
	 SCS Total Energy          =    -401.4918260022503205 [Eh]
	-----------------------------------------------------------

  Dipole Moment: [D]
     X:    -1.2561      Y:    -4.8105      Z:     0.0799     Total:     4.9725

*** Psi4 exiting successfully. Buy a developer a beer!
