                               Psi4 1.3.2 release

  ==> Input File <==

--------------------------------------------------------------------------
#psi4
#
memory 32 gb

molecule  {
0 1
  O        0.6831730     1.9514370    -0.1851230
  N        0.3221270    -0.3206750    -0.2979720
  C        1.7312530    -0.6468880    -0.5500562
  C       -0.1211040     1.0090560    -0.1118080
  C       -0.4973450    -1.4105120    -0.1972350
  C        2.5603930    -0.4317450     0.7423750
  C       -1.5372540     1.1223260     0.1526570
  C       -1.8319680    -1.2780450     0.0712850
  C       -2.3551590     0.0280850     0.2487950
  H        1.8855710    -1.4559800    -1.0561060
  H        2.0595230     0.3051280    -1.2266110
  H       -0.0197130    -2.3738180    -0.3527730
  H        2.4186300     0.5432120     1.2108420
  H        2.2423160    -1.2153800     1.4354410
  H        3.6255180    -0.5665000     0.5315230
  H       -1.9126600     2.1320090     0.2855670
  H       -2.4591310    -2.1595270     0.1391440
  H       -3.4140320     0.1624990     0.4585800
units angstrom
no_reorient  #important for SAPT in psi4, default
symmetry c1  #important for SAPT in psi4, default
}

set PROPERTIES_ORIGIN ["COM"]
properties('MP2/aug-cc-pvtz', properties = ['dipole'])
--------------------------------------------------------------------------

    Molecular point group: c1
  Charge       = 0
  Multiplicity = 1
  Basis Set: AUG-CC-PVTZ
    Blend: AUG-CC-PVTZ
  Basis Set: (AUG-CC-PVTZ AUX)
    Blend: AUG-CC-PVTZ-JKFIT

    Orbital Energies [Eh]
    ---------------------

    Doubly Occupied:

       1A    -20.506611     2A    -15.627514     3A    -11.352385
       4A    -11.307210     5A    -11.274847     6A    -11.270874
       7A    -11.239404     8A    -11.238190     9A    -11.224002
      10A     -1.368271    11A     -1.280697    12A     -1.118759
      13A     -1.028570    14A     -1.018400    15A     -0.896209
      16A     -0.876840    17A     -0.827383    18A     -0.722055
      19A     -0.696544    20A     -0.677024    21A     -0.637529
      22A     -0.617871    23A     -0.607790    24A     -0.597648
      25A     -0.561018    26A     -0.547344    27A     -0.537696
      28A     -0.525166    29A     -0.480370    30A     -0.474848
      31A     -0.421594    32A     -0.402645    33A     -0.308475

  @DF-RHF Final Energy:  -399.74112496062907

   => Energetics <=

    Nuclear Repulsion Energy =            436.9193342296686069
    One-Electron Energy =               -1408.7773519554584709
    Two-Electron Energy =                 572.1168927651608556
    Total Energy =                       -399.7411249606290085
  Basis Set: (AUG-CC-PVTZ AUX)
    Blend: AUG-CC-PVTZ-RI
    Molecular point group: c1

    Geometry (in Angstrom), charge = 0, multiplicity = 1:

       Center              X                  Y                   Z               Mass
    ------------   -----------------  -----------------  -----------------  -----------------
         O            0.721489007008     1.928966714462    -0.173547044153    15.994914619570
         N            0.360443007008    -0.343145285538    -0.286396044153    14.003074004430
         C            1.769569007008    -0.669358285538    -0.538480244153    12.000000000000
         C           -0.082787992992     0.986585714462    -0.100232044153    12.000000000000
         C           -0.459028992992    -1.432982285538    -0.185659044153    12.000000000000
         C            2.598709007008    -0.454215285538     0.753950955847    12.000000000000
         C           -1.498937992992     1.099855714462     0.164232955847    12.000000000000
         C           -1.793651992992    -1.300515285538     0.082860955847    12.000000000000
         C           -2.316842992992     0.005614714462     0.260370955847    12.000000000000
         H            1.923887007008    -1.478450285538    -1.044530044153     1.007825032230
         H            2.097839007008     0.282657714462    -1.215035044153     1.007825032230
         H            0.018603007008    -2.396288285538    -0.341197044153     1.007825032230
         H            2.456946007008     0.520741714462     1.222417955847     1.007825032230
         H            2.280632007008    -1.237850285538     1.447016955847     1.007825032230
         H            3.663834007008    -0.588970285538     0.543098955847     1.007825032230
         H           -1.874343992992     2.109538714462     0.297142955847     1.007825032230
         H           -2.420814992992    -2.181997285538     0.150719955847     1.007825032230
         H           -3.375715992992     0.140028714462     0.470155955847     1.007825032230

  Basis Set: AUG-CC-PVTZ
    Blend: AUG-CC-PVTZ
  Basis Set: (AUG-CC-PVTZ AUX)
    Blend: AUG-CC-PVTZ-JKFIT
	 Reference Energy          =    -399.7411249606290653 [Eh]
	 Singles Energy            =      -0.0000000000000000 [Eh]
	 Same-Spin Energy          =      -0.4241510402507461 [Eh]
	 Opposite-Spin Energy      =      -1.3416888838892493 [Eh]
	 Correlation Energy        =      -1.7658399241399954 [Eh]
	 Total Energy              =    -401.5069648847690473 [Eh]

	 ================> DF-SCS-MP2 Energies <==================
	-----------------------------------------------------------
	 SCS Same-Spin Scale       =       0.3333333333333333 [-]
	 SCS Opposite-Spin Scale   =       1.2000000000000000 [-]
	 SCS Same-Spin Energy      =      -0.1413836800835820 [Eh]
	 SCS Opposite-Spin Energy  =      -1.6100266606670992 [Eh]
	 SCS Correlation Energy    =      -1.7514103407506814 [Eh]
	 SCS Total Energy          =    -401.4925353013797462 [Eh]
	-----------------------------------------------------------

  Dipole Moment: [D]
     X:    -0.7932      Y:    -3.8906      Z:     0.0448     Total:     3.9708

*** Psi4 exiting successfully. Buy a developer a beer!
