                               Psi4 1.3.2 release

  ==> Input File <==

--------------------------------------------------------------------------
#psi4
#
memory 32 gb

molecule  {
0 1
  O        0.6831730     1.9514370    -0.1851230
  N        0.3221270    -0.3206750    -0.2979720
  C        1.7580560    -0.4955670    -0.5492050
  C       -0.1211040     1.0090560    -0.1118080
  C       -0.5199211    -1.5518244    -0.2015645
  C        2.5603930    -0.4317450     0.7423750
  C       -1.5372540     1.1223260     0.1526570
  C       -1.8319680    -1.2780450     0.0712850
  C       -2.3551590     0.0280850     0.2487950
  H        1.8855710    -1.4559800    -1.0561060
  H        2.0595230     0.3051280    -1.2266110
  H       -0.0197130    -2.3738180    -0.3527730
  H        2.4186300     0.5432120     1.2108420
  H        2.2423160    -1.2153800     1.4354410
  H        3.6255180    -0.5665000     0.5315230
  H       -1.9126600     2.1320090     0.2855670
  H       -2.4591310    -2.1595270     0.1391440
  H       -3.4140320     0.1624990     0.4585800
units angstrom
no_reorient  #important for SAPT in psi4, default
symmetry c1  #important for SAPT in psi4, default
}

set PROPERTIES_ORIGIN ["COM"]
properties('MP2/aug-cc-pvtz', properties = ['dipole'])
--------------------------------------------------------------------------

    Molecular point group: c1
  Charge       = 0
  Multiplicity = 1
  Basis Set: AUG-CC-PVTZ
    Blend: AUG-CC-PVTZ
  Basis Set: (AUG-CC-PVTZ AUX)
    Blend: AUG-CC-PVTZ-JKFIT

    Orbital Energies [Eh]
    ---------------------

    Doubly Occupied:

       1A    -20.506244     2A    -15.614347     3A    -11.349723
       4A    -11.308189     5A    -11.274666     6A    -11.265285
       7A    -11.252562     8A    -11.247109     9A    -11.215414
      10A     -1.362669    11A     -1.247348    12A     -1.118388
      13A     -1.034662    14A     -1.011875    15A     -0.897604
      16A     -0.870206    17A     -0.812470    18A     -0.720530
      19A     -0.694181    20A     -0.687040    21A     -0.631708
      22A     -0.615787    23A     -0.603536    24A     -0.599520
      25A     -0.555652    26A     -0.544522    27A     -0.523817
      28A     -0.516464    29A     -0.496417    30A     -0.469797
      31A     -0.421645    32A     -0.398354    33A     -0.318443

  @DF-RHF Final Energy:  -399.74329020552028

   => Energetics <=

    Nuclear Repulsion Energy =            434.7517994238020833
    One-Electron Energy =               -1404.6178331079172494
    Two-Electron Energy =                 570.1227434785947707
    Total Energy =                       -399.7432902055203385
  Basis Set: (AUG-CC-PVTZ AUX)
    Blend: AUG-CC-PVTZ-RI
    Molecular point group: c1

    Geometry (in Angstrom), charge = 0, multiplicity = 1:

       Center              X                  Y                   Z               Mass
    ------------   -----------------  -----------------  -----------------  -----------------
         O            0.721076855763     1.927990808490    -0.173207886455    15.994914619570
         N            0.360030855763    -0.344121191510    -0.286056886455    14.003074004430
         C            1.795959855763    -0.519013191510    -0.537289886455    12.000000000000
         C           -0.083200144237     0.985609808490    -0.099892886455    12.000000000000
         C           -0.482017244237    -1.575270591510    -0.189649386455    12.000000000000
         C            2.598296855763    -0.455191191510     0.754290113545    12.000000000000
         C           -1.499350144237     1.098879808490     0.164572113545    12.000000000000
         C           -1.794064144237    -1.301491191510     0.083200113545    12.000000000000
         C           -2.317255144237     0.004638808490     0.260710113545    12.000000000000
         H            1.923474855763    -1.479426191510    -1.044190886455     1.007825032230
         H            2.097426855763     0.281681808490    -1.214695886455     1.007825032230
         H            0.018190855763    -2.397264191510    -0.340857886455     1.007825032230
         H            2.456533855763     0.519765808490     1.222757113545     1.007825032230
         H            2.280219855763    -1.238826191510     1.447356113545     1.007825032230
         H            3.663421855763    -0.589946191510     0.543438113545     1.007825032230
         H           -1.874756144237     2.108562808490     0.297482113545     1.007825032230
         H           -2.421227144237    -2.182973191510     0.151059113545     1.007825032230
         H           -3.376128144237     0.139052808490     0.470495113545     1.007825032230

  Basis Set: AUG-CC-PVTZ
    Blend: AUG-CC-PVTZ
  Basis Set: (AUG-CC-PVTZ AUX)
    Blend: AUG-CC-PVTZ-JKFIT
	 Reference Energy          =    -399.7432902055202817 [Eh]
	 Singles Energy            =      -0.0000000000000000 [Eh]
	 Same-Spin Energy          =      -0.4233390300286975 [Eh]
	 Opposite-Spin Energy      =      -1.3430458385600832 [Eh]
	 Correlation Energy        =      -1.7663848685887809 [Eh]
	 Total Energy              =    -401.5096750741090545 [Eh]

	 ================> DF-SCS-MP2 Energies <==================
	-----------------------------------------------------------
	 SCS Same-Spin Scale       =       0.3333333333333333 [-]
	 SCS Opposite-Spin Scale   =       1.2000000000000000 [-]
	 SCS Same-Spin Energy      =      -0.1411130100095658 [Eh]
	 SCS Opposite-Spin Energy  =      -1.6116550062720998 [Eh]
	 SCS Correlation Energy    =      -1.7527680162816657 [Eh]
	 SCS Total Energy          =    -401.4960582218019454 [Eh]
	-----------------------------------------------------------

  Dipole Moment: [D]
     X:    -1.1604      Y:    -3.8713      Z:     0.0759     Total:     4.0422

*** Psi4 exiting successfully. Buy a developer a beer!
