                               Psi4 1.3.2 release

  ==> Input File <==

--------------------------------------------------------------------------
#psi4
#
memory 32 gb

molecule  {
0 1
  O        0.6831730     1.9514370    -0.1851230
  N        0.3579944    -0.3075426    -0.1491155
  C        1.7580560    -0.4955670    -0.5492050
  C       -0.1211040     1.0090560    -0.1118080
  C       -0.4973450    -1.4105120    -0.1972350
  C        2.5603930    -0.4317450     0.7423750
  C       -1.5372540     1.1223260     0.1526570
  C       -1.8319680    -1.2780450     0.0712850
  C       -2.3551590     0.0280850     0.2487950
  H        1.8855710    -1.4559800    -1.0561060
  H        2.0595230     0.3051280    -1.2266110
  H       -0.0197130    -2.3738180    -0.3527730
  H        2.4186300     0.5432120     1.2108420
  H        2.2423160    -1.2153800     1.4354410
  H        3.6255180    -0.5665000     0.5315230
  H       -1.9126600     2.1320090     0.2855670
  H       -2.4591310    -2.1595270     0.1391440
  H       -3.4140320     0.1624990     0.4585800
units angstrom
no_reorient  #important for SAPT in psi4, default
symmetry c1  #important for SAPT in psi4, default
}

set PROPERTIES_ORIGIN ["COM"]
properties('MP2/aug-cc-pvtz', properties = ['dipole'])
--------------------------------------------------------------------------

    Molecular point group: c1
  Charge       = 0
  Multiplicity = 1
  Basis Set: AUG-CC-PVTZ
    Blend: AUG-CC-PVTZ
  Basis Set: (AUG-CC-PVTZ AUX)
    Blend: AUG-CC-PVTZ-JKFIT

    Orbital Energies [Eh]
    ---------------------

    Doubly Occupied:

       1A    -20.505135     2A    -15.623470     3A    -11.348431
       4A    -11.310066     5A    -11.272407     6A    -11.271482
       7A    -11.243216     8A    -11.239223     9A    -11.217083
      10A     -1.369202    11A     -1.272289    12A     -1.120591
      13A     -1.028819    14A     -1.018778    15A     -0.891286
      16A     -0.869150    17A     -0.822206    18A     -0.715450
      19A     -0.701283    20A     -0.672831    21A     -0.636560
      22A     -0.611656    23A     -0.607118    24A     -0.605152
      25A     -0.559351    26A     -0.539153    27A     -0.528979
      28A     -0.519047    29A     -0.505060    30A     -0.470765
      31A     -0.421072    32A     -0.407452    33A     -0.311661

  @DF-RHF Final Energy:  -399.76476962908635

   => Energetics <=

    Nuclear Repulsion Energy =            437.6525248487783415
    One-Electron Energy =               -1410.3637404495607370
    Two-Electron Energy =                 572.9464459716961073
    Total Energy =                       -399.7647696290863450
  Basis Set: (AUG-CC-PVTZ AUX)
    Blend: AUG-CC-PVTZ-RI
    Molecular point group: c1

    Geometry (in Angstrom), charge = 0, multiplicity = 1:

       Center              X                  Y                   Z               Mass
    ------------   -----------------  -----------------  -----------------  -----------------
         O            0.714794439081     1.912717655053    -0.190567357643    15.994914619570
         N            0.389615839081    -0.346261944947    -0.154559857643    14.003074004430
         C            1.789677439081    -0.534286344947    -0.554649357643    12.000000000000
         C           -0.089482560919     0.970336655053    -0.117252357643    12.000000000000
         C           -0.465723560919    -1.449231344947    -0.202679357643    12.000000000000
         C            2.592014439081    -0.470464344947     0.736930642357    12.000000000000
         C           -1.505632560919     1.083606655053     0.147212642357    12.000000000000
         C           -1.800346560919    -1.316764344947     0.065840642357    12.000000000000
         C           -2.323537560919    -0.010634344947     0.243350642357    12.000000000000
         H            1.917192439081    -1.494699344947    -1.061550357643     1.007825032230
         H            2.091144439081     0.266408655053    -1.232055357643     1.007825032230
         H            0.011908439081    -2.412537344947    -0.358217357643     1.007825032230
         H            2.450251439081     0.504492655053     1.205397642357     1.007825032230
         H            2.273937439081    -1.254099344947     1.429996642357     1.007825032230
         H            3.657139439081    -0.605219344947     0.526078642357     1.007825032230
         H           -1.881038560919     2.093289655053     0.280122642357     1.007825032230
         H           -2.427509560919    -2.198246344947     0.133699642357     1.007825032230
         H           -3.382410560919     0.123779655053     0.453135642357     1.007825032230

  Basis Set: AUG-CC-PVTZ
    Blend: AUG-CC-PVTZ
  Basis Set: (AUG-CC-PVTZ AUX)
    Blend: AUG-CC-PVTZ-JKFIT
	 Reference Energy          =    -399.7647696290863450 [Eh]
	 Singles Energy            =      -0.0000000000000000 [Eh]
	 Same-Spin Energy          =      -0.4233527098828626 [Eh]
	 Opposite-Spin Energy      =      -1.3406230397451320 [Eh]
	 Correlation Energy        =      -1.7639757496279946 [Eh]
	 Total Energy              =    -401.5287453787143477 [Eh]

	 ================> DF-SCS-MP2 Energies <==================
	-----------------------------------------------------------
	 SCS Same-Spin Scale       =       0.3333333333333333 [-]
	 SCS Opposite-Spin Scale   =       1.2000000000000000 [-]
	 SCS Same-Spin Energy      =      -0.1411175699609542 [Eh]
	 SCS Opposite-Spin Energy  =      -1.6087476476941582 [Eh]
	 SCS Correlation Energy    =      -1.7498652176551124 [Eh]
	 SCS Total Energy          =    -401.5146348467414441 [Eh]
	-----------------------------------------------------------

  Dipole Moment: [D]
     X:    -0.9307      Y:    -3.8345      Z:    -0.0616     Total:     3.9463

*** Psi4 exiting successfully. Buy a developer a beer!
