                               Psi4 1.3.2 release

  ==> Input File <==

--------------------------------------------------------------------------
#psi4
#
memory 32 gb

molecule  {
0 1
  O        0.6831730     1.9514370    -0.1851230
  N        0.3221270    -0.3206750    -0.2979720
  C        1.7580560    -0.4955670    -0.5492050
  C       -0.1156336     1.1096248    -0.1063543
  C       -0.4973450    -1.4105120    -0.1972350
  C        2.5603930    -0.4317450     0.7423750
  C       -1.5372540     1.1223260     0.1526570
  C       -1.8319680    -1.2780450     0.0712850
  C       -2.3551590     0.0280850     0.2487950
  H        1.8855710    -1.4559800    -1.0561060
  H        2.0595230     0.3051280    -1.2266110
  H       -0.0197130    -2.3738180    -0.3527730
  H        2.4186300     0.5432120     1.2108420
  H        2.2423160    -1.2153800     1.4354410
  H        3.6255180    -0.5665000     0.5315230
  H       -1.9126600     2.1320090     0.2855670
  H       -2.4591310    -2.1595270     0.1391440
  H       -3.4140320     0.1624990     0.4585800
units angstrom
no_reorient  #important for SAPT in psi4, default
symmetry c1  #important for SAPT in psi4, default
}

set PROPERTIES_ORIGIN ["COM"]
properties('MP2/aug-cc-pvtz', properties = ['dipole'])
--------------------------------------------------------------------------

    Molecular point group: c1
  Charge       = 0
  Multiplicity = 1
  Basis Set: AUG-CC-PVTZ
    Blend: AUG-CC-PVTZ
  Basis Set: (AUG-CC-PVTZ AUX)
    Blend: AUG-CC-PVTZ-JKFIT

    Orbital Energies [Eh]
    ---------------------

    Doubly Occupied:

       1A    -20.528679     2A    -15.610540     3A    -11.354511
       4A    -11.304281     5A    -11.270354     6A    -11.268622
       7A    -11.231632     8A    -11.230151     9A    -11.219389
      10A     -1.421690    11A     -1.268486    12A     -1.111969
      13A     -1.028081    14A     -1.006673    15A     -0.892105
      16A     -0.849834    17A     -0.824028    18A     -0.707612
      19A     -0.701550    20A     -0.671358    21A     -0.636713
      22A     -0.623347    23A     -0.610058    24A     -0.600353
      25A     -0.567287    26A     -0.543764    27A     -0.534053
      28A     -0.528514    29A     -0.502465    30A     -0.488202
      31A     -0.426214    32A     -0.400506    33A     -0.303378

  @DF-RHF Final Energy:  -399.76186228970369

   => Energetics <=

    Nuclear Repulsion Energy =            436.8493133151137044
    One-Electron Energy =               -1408.6895551848169816
    Two-Electron Energy =                 572.0783795799995914
    Total Energy =                       -399.7618622897036857
  Basis Set: (AUG-CC-PVTZ AUX)
    Blend: AUG-CC-PVTZ-RI
    Molecular point group: c1

    Geometry (in Angstrom), charge = 0, multiplicity = 1:

       Center              X                  Y                   Z               Mass
    ------------   -----------------  -----------------  -----------------  -----------------
         O            0.718342132943     1.904405760892    -0.174161814406    15.994914619570
         N            0.357296132943    -0.367706239108    -0.287010814406    14.003074004430
         C            1.793225132943    -0.542598239108    -0.538243814406    12.000000000000
         C           -0.080464467057     1.062593560892    -0.095393114406    12.000000000000
         C           -0.462175867057    -1.457543239108    -0.186273814406    12.000000000000
         C            2.595562132943    -0.478776239108     0.753336185594    12.000000000000
         C           -1.502084867057     1.075294760892     0.163618185594    12.000000000000
         C           -1.796798867057    -1.325076239108     0.082246185594    12.000000000000
         C           -2.319989867057    -0.018946239108     0.259756185594    12.000000000000
         H            1.920740132943    -1.503011239108    -1.045144814406     1.007825032230
         H            2.094692132943     0.258096760892    -1.215649814406     1.007825032230
         H            0.015456132943    -2.420849239108    -0.341811814406     1.007825032230
         H            2.453799132943     0.496180760892     1.221803185594     1.007825032230
         H            2.277485132943    -1.262411239108     1.446402185594     1.007825032230
         H            3.660687132943    -0.613531239108     0.542484185594     1.007825032230
         H           -1.877490867057     2.084977760892     0.296528185594     1.007825032230
         H           -2.423961867057    -2.206558239108     0.150105185594     1.007825032230
         H           -3.378862867057     0.115467760892     0.469541185594     1.007825032230

  Basis Set: AUG-CC-PVTZ
    Blend: AUG-CC-PVTZ
  Basis Set: (AUG-CC-PVTZ AUX)
    Blend: AUG-CC-PVTZ-JKFIT
	 Reference Energy          =    -399.7618622897036857 [Eh]
	 Singles Energy            =      -0.0000000000000000 [Eh]
	 Same-Spin Energy          =      -0.4229368759154311 [Eh]
	 Opposite-Spin Energy      =      -1.3385434653740864 [Eh]
	 Correlation Energy        =      -1.7614803412895175 [Eh]
	 Total Energy              =    -401.5233426309932270 [Eh]

	 ================> DF-SCS-MP2 Energies <==================
	-----------------------------------------------------------
	 SCS Same-Spin Scale       =       0.3333333333333333 [-]
	 SCS Opposite-Spin Scale   =       1.2000000000000000 [-]
	 SCS Same-Spin Energy      =      -0.1409789586384770 [Eh]
	 SCS Opposite-Spin Energy  =      -1.6062521584489036 [Eh]
	 SCS Correlation Energy    =      -1.7472311170873807 [Eh]
	 SCS Total Energy          =    -401.5090934067910666 [Eh]
	-----------------------------------------------------------

  Dipole Moment: [D]
     X:    -0.4244      Y:    -3.0759      Z:     0.0089     Total:     3.1051

*** Psi4 exiting successfully. Buy a developer a beer!
