                               Psi4 1.3.2 release

  ==> Input File <==

--------------------------------------------------------------------------
#psi4
#
memory 32 gb

molecule  {
0 1
  O        0.6831730     1.9514370    -0.1851230
  N        0.3221270    -0.3206750    -0.2979720
  C        1.7580560    -0.4955670    -0.5492050
  C       -0.1211040     1.0090560    -0.1118080
  C       -0.4973450    -1.4105120    -0.1972350
  C        2.5603930    -0.4317450     0.7423750
  C       -1.5559978     1.1364681     0.1571282
  C       -1.8319680    -1.2780450     0.0712850
  C       -2.3551590     0.0280850     0.2487950
  H        1.8855710    -1.4559800    -1.0561060
  H        2.0595230     0.3051280    -1.2266110
  H       -0.0197130    -2.3738180    -0.3527730
  H        2.4186300     0.5432120     1.2108420
  H        2.2423160    -1.2153800     1.4354410
  H        3.6255180    -0.5665000     0.5315230
  H       -1.9126600     2.1320090     0.2855670
  H       -2.4591310    -2.1595270     0.1391440
  H       -3.4140320     0.1624990     0.4585800
units angstrom
no_reorient  #important for SAPT in psi4, default
symmetry c1  #important for SAPT in psi4, default
}

set PROPERTIES_ORIGIN ["COM"]
properties('MP2/aug-cc-pvtz', properties = ['dipole'])
--------------------------------------------------------------------------

    Molecular point group: c1
  Charge       = 0
  Multiplicity = 1
  Basis Set: AUG-CC-PVTZ
    Blend: AUG-CC-PVTZ
  Basis Set: (AUG-CC-PVTZ AUX)
    Blend: AUG-CC-PVTZ-JKFIT

    Orbital Energies [Eh]
    ---------------------

    Doubly Occupied:

       1A    -20.507487     2A    -15.625215     3A    -11.351736
       4A    -11.308637     5A    -11.273913     6A    -11.269597
       7A    -11.239983     8A    -11.237589     9A    -11.221163
      10A     -1.369192    11A     -1.278220    12A     -1.117961
      13A     -1.031132    14A     -1.016661    15A     -0.894019
      16A     -0.871619    17A     -0.823277    18A     -0.714782
      19A     -0.699065    20A     -0.668637    21A     -0.641344
      22A     -0.613804    23A     -0.607269    24A     -0.605020
      25A     -0.558971    26A     -0.542302    27A     -0.529530
      28A     -0.526433    29A     -0.505765    30A     -0.474982
      31A     -0.420371    32A     -0.407918    33A     -0.308279

  @DF-RHF Final Energy:  -399.77134494730240

   => Energetics <=

    Nuclear Repulsion Energy =            436.9979292142052145
    One-Electron Energy =               -1409.0148070153270510
    Two-Electron Energy =                 572.2455328538194408
    Total Energy =                       -399.7713449473023957
  Basis Set: (AUG-CC-PVTZ AUX)
    Blend: AUG-CC-PVTZ-RI
    Molecular point group: c1

    Geometry (in Angstrom), charge = 0, multiplicity = 1:

       Center              X                  Y                   Z               Mass
    ------------   -----------------  -----------------  -----------------  -----------------
         O            0.720703180678     1.912832946772    -0.174066014033    15.994914619570
         N            0.359657180678    -0.359279053228    -0.286915014033    14.003074004430
         C            1.795586180678    -0.534171053228    -0.538148014033    12.000000000000
         C           -0.083573819322     0.970451946772    -0.100751014033    12.000000000000
         C           -0.459814819322    -1.449116053228    -0.186178014033    12.000000000000
         C            2.597923180678    -0.470349053228     0.753431985967    12.000000000000
         C           -1.518467619322     1.097864046772     0.168185185967    12.000000000000
         C           -1.794437819322    -1.316649053228     0.082341985967    12.000000000000
         C           -2.317628819322    -0.010519053228     0.259851985967    12.000000000000
         H            1.923101180678    -1.494584053228    -1.045049014033     1.007825032230
         H            2.097053180678     0.266523946772    -1.215554014033     1.007825032230
         H            0.017817180678    -2.412422053228    -0.341716014033     1.007825032230
         H            2.456160180678     0.504607946772     1.221898985967     1.007825032230
         H            2.279846180678    -1.253984053228     1.446497985967     1.007825032230
         H            3.663048180678    -0.605104053228     0.542579985967     1.007825032230
         H           -1.875129819322     2.093404946772     0.296623985967     1.007825032230
         H           -2.421600819322    -2.198131053228     0.150200985967     1.007825032230
         H           -3.376501819322     0.123894946772     0.469636985967     1.007825032230

  Basis Set: AUG-CC-PVTZ
    Blend: AUG-CC-PVTZ
  Basis Set: (AUG-CC-PVTZ AUX)
    Blend: AUG-CC-PVTZ-JKFIT
	 Reference Energy          =    -399.7713449473023957 [Eh]
	 Singles Energy            =      -0.0000000000000000 [Eh]
	 Same-Spin Energy          =      -0.4230789672745953 [Eh]
	 Opposite-Spin Energy      =      -1.3395778373783684 [Eh]
	 Correlation Energy        =      -1.7626568046529638 [Eh]
	 Total Energy              =    -401.5340017519553726 [Eh]

	 ================> DF-SCS-MP2 Energies <==================
	-----------------------------------------------------------
	 SCS Same-Spin Scale       =       0.3333333333333333 [-]
	 SCS Opposite-Spin Scale   =       1.2000000000000000 [-]
	 SCS Same-Spin Energy      =      -0.1410263224248651 [Eh]
	 SCS Opposite-Spin Energy  =      -1.6074934048540421 [Eh]
	 SCS Correlation Energy    =      -1.7485197272789073 [Eh]
	 SCS Total Energy          =    -401.5198646745812994 [Eh]
	-----------------------------------------------------------

  Dipole Moment: [D]
     X:    -0.7279      Y:    -3.7710      Z:     0.0282     Total:     3.8407

*** Psi4 exiting successfully. Buy a developer a beer!
