                               Psi4 1.4a3.dev225

  ==> Input File <==

--------------------------------------------------------------------------
#psi4
#
memory 32 gb

molecule  {
0 1
  O        0.6831730     1.9514370    -0.1851230
  N        0.3221270    -0.3206750    -0.2979720
  C        1.7580560    -0.4955670    -0.5492050
  C       -0.1211040     1.0090560    -0.1118080
  C       -0.4973450    -1.4105120    -0.1972350
  C        2.5603930    -0.4317450     0.7423750
  C       -1.5372540     1.1223260     0.1526570
  C       -1.8319680    -1.2780450     0.0712850
  C       -2.3551590     0.0280850     0.2487950
  H        1.8855710    -1.4559800    -1.0561060
  H        2.0595230     0.3051280    -1.2266110
  H       -0.0109201    -2.3915518    -0.3556363
  H        2.4186300     0.5432120     1.2108420
  H        2.2423160    -1.2153800     1.4354410
  H        3.6255180    -0.5665000     0.5315230
  H       -1.9126600     2.1320090     0.2855670
  H       -2.4591310    -2.1595270     0.1391440
  H       -3.4140320     0.1624990     0.4585800
units angstrom
no_reorient  #important for SAPT in psi4, default
symmetry c1  #important for SAPT in psi4, default
}

set PROPERTIES_ORIGIN ["COM"]
properties('MP2/aug-cc-pvtz', properties = ['dipole'])
--------------------------------------------------------------------------

    Molecular point group: c1
  Charge       = 0
  Multiplicity = 1
  Basis Set: AUG-CC-PVTZ
    Blend: AUG-CC-PVTZ
  Basis Set: (AUG-CC-PVTZ AUX)
    Blend: AUG-CC-PVTZ-JKFIT

    Orbital Energies [Eh]
    ---------------------

    Doubly Occupied:

       1A    -20.506298     2A    -15.625644     3A    -11.349974
       4A    -11.311011     5A    -11.273770     6A    -11.270696
       7A    -11.240234     8A    -11.237085     9A    -11.221104
      10A     -1.369090    11A     -1.278254    12A     -1.119155
      13A     -1.030901    14A     -1.017767    15A     -0.895396
      16A     -0.869354    17A     -0.824858    18A     -0.712852
      19A     -0.700340    20A     -0.665883    21A     -0.639672
      22A     -0.613703    23A     -0.607024    24A     -0.604843
      25A     -0.560520    26A     -0.538155    27A     -0.529590
      28A     -0.525816    29A     -0.505560    30A     -0.474974
      31A     -0.421128    32A     -0.407801    33A     -0.308818

  @DF-RHF Final Energy:  -399.77082920151946

   => Energetics <=

    Nuclear Repulsion Energy =            437.3321241336169578
    One-Electron Energy =               -1409.6913638577898382
    Two-Electron Energy =                 572.5884105226533620
    Total Energy =                       -399.7708292015195184
  Basis Set: (AUG-CC-PVTZ AUX)
    Blend: AUG-CC-PVTZ-RI
    Molecular point group: c1

    Geometry (in Angstrom), charge = 0, multiplicity = 1:

       Center              X                  Y                   Z               Mass
    ------------   -----------------  -----------------  -----------------  -----------------
         O            0.718803527491     1.914357121510    -0.173606593913    15.994914619570
         N            0.357757527491    -0.357754878490    -0.286455593913    14.003074004430
         C            1.793686527491    -0.532646878490    -0.537688593913    12.000000000000
         C           -0.085473472509     0.971976121510    -0.100291593913    12.000000000000
         C           -0.461714472509    -1.447591878490    -0.185718593913    12.000000000000
         C            2.596023527491    -0.468824878490     0.753891406087    12.000000000000
         C           -1.501623472509     1.085246121510     0.164173406087    12.000000000000
         C           -1.796337472509    -1.315124878490     0.082801406087    12.000000000000
         C           -2.319528472509    -0.008994878490     0.260311406087    12.000000000000
         H            1.921201527491    -1.493059878490    -1.044589593913     1.007825032230
         H            2.095153527491     0.268048121510    -1.215094593913     1.007825032230
         H            0.024710427491    -2.428631678490    -0.344119893913     1.007825032230
         H            2.454260527491     0.506132121510     1.222358406087     1.007825032230
         H            2.277946527491    -1.252459878490     1.446957406087     1.007825032230
         H            3.661148527491    -0.603579878490     0.543039406087     1.007825032230
         H           -1.877029472509     2.094929121510     0.297083406087     1.007825032230
         H           -2.423500472509    -2.196606878490     0.150660406087     1.007825032230
         H           -3.378401472509     0.125419121510     0.470096406087     1.007825032230

  Basis Set: AUG-CC-PVTZ
    Blend: AUG-CC-PVTZ
  Basis Set: (AUG-CC-PVTZ AUX)
    Blend: AUG-CC-PVTZ-JKFIT
	 Reference Energy          =    -399.7708292015194615 [Eh]
	 Singles Energy            =      -0.0000000000000000 [Eh]
	 Same-Spin Energy          =      -0.4235243382337848 [Eh]
	 Opposite-Spin Energy      =      -1.3400233780005368 [Eh]
	 Correlation Energy        =      -1.7635477162343216 [Eh]
	 Total Energy              =    -401.5343769177537752 [Eh]

	 ================> DF-SCS-MP2 Energies <==================
	-----------------------------------------------------------
	 SCS Same-Spin Scale       =       0.3333333333333333 [-]
	 SCS Opposite-Spin Scale   =       1.2000000000000000 [-]
	 SCS Same-Spin Energy      =      -0.1411747794112616 [Eh]
	 SCS Opposite-Spin Energy  =      -1.6080280536006442 [Eh]
	 SCS Correlation Energy    =      -1.7492028330119058 [Eh]
	 SCS Total Energy          =    -401.5200320345313685 [Eh]
	-----------------------------------------------------------

  Dipole Moment: [D]
     X:    -0.7591      Y:    -3.8091      Z:     0.0324     Total:     3.8841

*** Psi4 exiting successfully. Buy a developer a beer!
