                               Psi4 1.3.2 release

  ==> Input File <==

--------------------------------------------------------------------------
#psi4
#
memory 32 gb

molecule  {
0 1
  O        0.6831730     1.9514370    -0.1851230
  N        0.3221270    -0.3206750    -0.2979720
  C        1.7580560    -0.4955670    -0.5492050
  C       -0.1211040     1.0090560    -0.1118080
  C       -0.4973450    -1.4105120    -0.1972350
  C        2.5603930    -0.4317450     0.7423750
  C       -1.7332502     1.1380027     0.1892592
  C       -1.8319680    -1.2780450     0.0712850
  C       -2.3551590     0.0280850     0.2487950
  H        1.8855710    -1.4559800    -1.0561060
  H        2.0595230     0.3051280    -1.2266110
  H       -0.0197130    -2.3738180    -0.3527730
  H        2.4186300     0.5432120     1.2108420
  H        2.2423160    -1.2153800     1.4354410
  H        3.6255180    -0.5665000     0.5315230
  H       -1.9126600     2.1320090     0.2855670
  H       -2.4591310    -2.1595270     0.1391440
  H       -3.4140320     0.1624990     0.4585800
units angstrom
no_reorient  #important for SAPT in psi4, default
symmetry c1  #important for SAPT in psi4, default
}

set PROPERTIES_ORIGIN ["COM"]
properties('MP2/aug-cc-pvtz', properties = ['dipole'])
--------------------------------------------------------------------------

    Molecular point group: c1
  Charge       = 0
  Multiplicity = 1
  Basis Set: AUG-CC-PVTZ
    Blend: AUG-CC-PVTZ
  Basis Set: (AUG-CC-PVTZ AUX)
    Blend: AUG-CC-PVTZ-JKFIT

    Orbital Energies [Eh]
    ---------------------

    Doubly Occupied:

       1A    -20.521765     2A    -15.619356     3A    -11.362931
       4A    -11.304348     5A    -11.272865     6A    -11.249935
       7A    -11.240923     8A    -11.237143     9A    -11.220724
      10A     -1.372273    11A     -1.277240    12A     -1.123902
      13A     -1.037635    14A     -1.008039    15A     -0.883358
      16A     -0.877193    17A     -0.812288    18A     -0.715712
      19A     -0.702674    20A     -0.669380    21A     -0.646657
      22A     -0.613948    23A     -0.607706    24A     -0.598006
      25A     -0.568851    26A     -0.542877    27A     -0.526906
      28A     -0.521417    29A     -0.505837    30A     -0.478164
      31A     -0.423382    32A     -0.405422    33A     -0.310201

  @DF-RHF Final Energy:  -399.73775465920602

   => Energetics <=

    Nuclear Repulsion Energy =            435.0343654642299498
    One-Electron Energy =               -1405.0261259246856298
    Two-Electron Energy =                 570.2540058012496047
    Total Energy =                       -399.7377546592060753
  Basis Set: (AUG-CC-PVTZ AUX)
    Blend: AUG-CC-PVTZ-RI
    Molecular point group: c1

    Geometry (in Angstrom), charge = 0, multiplicity = 1:

       Center              X                  Y                   Z               Mass
    ------------   -----------------  -----------------  -----------------  -----------------
         O            0.737986484593     1.912683312927    -0.177199003138    15.994914619570
         N            0.376940484593    -0.359428687073    -0.290048003138    14.003074004430
         C            1.812869484593    -0.534320687073    -0.541281003138    12.000000000000
         C           -0.066290515407     0.970302312927    -0.103884003138    12.000000000000
         C           -0.442531515407    -1.449265687073    -0.189311003138    12.000000000000
         C            2.615206484593    -0.470498687073     0.750298996862    12.000000000000
         C           -1.678436715407     1.099249012927     0.197183196862    12.000000000000
         C           -1.777154515407    -1.316798687073     0.079208996862    12.000000000000
         C           -2.300345515407    -0.010668687073     0.256718996862    12.000000000000
         H            1.940384484593    -1.494733687073    -1.048182003138     1.007825032230
         H            2.114336484593     0.266374312927    -1.218687003138     1.007825032230
         H            0.035100484593    -2.412571687073    -0.344849003138     1.007825032230
         H            2.473443484593     0.504458312927     1.218765996862     1.007825032230
         H            2.297129484593    -1.254133687073     1.443364996862     1.007825032230
         H            3.680331484593    -0.605253687073     0.539446996862     1.007825032230
         H           -1.857846515407     2.093255312927     0.293490996862     1.007825032230
         H           -2.404317515407    -2.198280687073     0.147067996862     1.007825032230
         H           -3.359218515407     0.123745312927     0.466503996862     1.007825032230

  Basis Set: AUG-CC-PVTZ
    Blend: AUG-CC-PVTZ
  Basis Set: (AUG-CC-PVTZ AUX)
    Blend: AUG-CC-PVTZ-JKFIT
	 Reference Energy          =    -399.7377546592060185 [Eh]
	 Singles Energy            =      -0.0000000000000000 [Eh]
	 Same-Spin Energy          =      -0.4208866352653514 [Eh]
	 Opposite-Spin Energy      =      -1.3387959277059975 [Eh]
	 Correlation Energy        =      -1.7596825629713488 [Eh]
	 Total Energy              =    -401.4974372221773820 [Eh]

	 ================> DF-SCS-MP2 Energies <==================
	-----------------------------------------------------------
	 SCS Same-Spin Scale       =       0.3333333333333333 [-]
	 SCS Opposite-Spin Scale   =       1.2000000000000000 [-]
	 SCS Same-Spin Energy      =      -0.1402955450884505 [Eh]
	 SCS Opposite-Spin Energy  =      -1.6065551132471969 [Eh]
	 SCS Correlation Energy    =      -1.7468506583356473 [Eh]
	 SCS Total Energy          =    -401.4846053175416500 [Eh]
	-----------------------------------------------------------

  Dipole Moment: [D]
     X:    -0.4887      Y:    -3.3904      Z:     0.0018     Total:     3.4255

*** Psi4 exiting successfully. Buy a developer a beer!
