                               Psi4 1.3.2 release

  ==> Input File <==

--------------------------------------------------------------------------
#psi4
#
memory 32 gb

molecule  {
0 1
  O        0.6831730     1.9514370    -0.1851230
  N        0.3221270    -0.3206750    -0.2979720
  C        1.7580560    -0.4955670    -0.5492050
  C       -0.1211040     1.0090560    -0.1118080
  C       -0.4973450    -1.4105120    -0.1972350
  C        2.5603930    -0.4317450     0.7423750
  C       -1.5372540     1.1223260     0.1526570
  C       -1.8319680    -1.2780450     0.0712850
  C       -2.2813752    -0.1561140     0.2237614
  H        1.8855710    -1.4559800    -1.0561060
  H        2.0595230     0.3051280    -1.2266110
  H       -0.0197130    -2.3738180    -0.3527730
  H        2.4186300     0.5432120     1.2108420
  H        2.2423160    -1.2153800     1.4354410
  H        3.6255180    -0.5665000     0.5315230
  H       -1.9126600     2.1320090     0.2855670
  H       -2.4591310    -2.1595270     0.1391440
  H       -3.4140320     0.1624990     0.4585800
units angstrom
no_reorient  #important for SAPT in psi4, default
symmetry c1  #important for SAPT in psi4, default
}

set PROPERTIES_ORIGIN ["COM"]
properties('MP2/aug-cc-pvtz', properties = ['dipole'])
--------------------------------------------------------------------------

    Molecular point group: c1
  Charge       = 0
  Multiplicity = 1
  Basis Set: AUG-CC-PVTZ
    Blend: AUG-CC-PVTZ
  Basis Set: (AUG-CC-PVTZ AUX)
    Blend: AUG-CC-PVTZ-JKFIT

    Orbital Energies [Eh]
    ---------------------

    Doubly Occupied:

       1A    -20.489376     2A    -15.642318     3A    -11.336343
       4A    -11.327551     5A    -11.279067     6A    -11.267923
       7A    -11.234263     8A    -11.226779     9A    -11.224657
      10A     -1.363254    11A     -1.283473    12A     -1.150089
      13A     -1.033719    14A     -1.015087    15A     -0.911707
      16A     -0.870216    17A     -0.818561    18A     -0.724878
      19A     -0.705726    20A     -0.663459    21A     -0.644748
      22A     -0.619829    23A     -0.610850    24A     -0.593354
      25A     -0.561264    26A     -0.541919    27A     -0.529807
      28A     -0.513360    29A     -0.502269    30A     -0.484399
      31A     -0.416926    32A     -0.403636    33A     -0.294400

  @DF-RHF Final Energy:  -399.70426629988583

   => Energetics <=

    Nuclear Repulsion Energy =            439.4151015694519060
    One-Electron Energy =               -1413.6683248569772786
    Two-Electron Energy =                 574.5489569876394853
    Total Energy =                       -399.7042662998858304
  Basis Set: (AUG-CC-PVTZ AUX)
    Blend: AUG-CC-PVTZ-RI
    Molecular point group: c1

    Geometry (in Angstrom), charge = 0, multiplicity = 1:

       Center              X                  Y                   Z               Mass
    ------------   -----------------  -----------------  -----------------  -----------------
         O            0.711681115920     1.932172541103    -0.171189097132    15.994914619570
         N            0.350635115920    -0.339939458897    -0.284038097132    14.003074004430
         C            1.786564115920    -0.514831458897    -0.535271097132    12.000000000000
         C           -0.092595884080     0.989791541103    -0.097874097132    12.000000000000
         C           -0.468836884080    -1.429776458897    -0.183301097132    12.000000000000
         C            2.588901115920    -0.451009458897     0.756308902868    12.000000000000
         C           -1.508745884080     1.103061541103     0.166590902868    12.000000000000
         C           -1.803459884080    -1.297309458897     0.085218902868    12.000000000000
         C           -2.252867084080    -0.175378458897     0.237695302868    12.000000000000
         H            1.914079115920    -1.475244458897    -1.042172097132     1.007825032230
         H            2.088031115920     0.285863541103    -1.212677097132     1.007825032230
         H            0.008795115920    -2.393082458897    -0.338839097132     1.007825032230
         H            2.447138115920     0.523947541103     1.224775902868     1.007825032230
         H            2.270824115920    -1.234644458897     1.449374902868     1.007825032230
         H            3.654026115920    -0.585764458897     0.545456902868     1.007825032230
         H           -1.884151884080     2.112744541103     0.299500902868     1.007825032230
         H           -2.430622884080    -2.178791458897     0.153077902868     1.007825032230
         H           -3.385523884080     0.143234541103     0.472513902868     1.007825032230

  Basis Set: AUG-CC-PVTZ
    Blend: AUG-CC-PVTZ
  Basis Set: (AUG-CC-PVTZ AUX)
    Blend: AUG-CC-PVTZ-JKFIT
	 Reference Energy          =    -399.7042662998858304 [Eh]
	 Singles Energy            =      -0.0000000000000000 [Eh]
	 Same-Spin Energy          =      -0.4280027595566447 [Eh]
	 Opposite-Spin Energy      =      -1.3447846398505172 [Eh]
	 Correlation Energy        =      -1.7727873994071619 [Eh]
	 Total Energy              =    -401.4770536992929806 [Eh]

	 ================> DF-SCS-MP2 Energies <==================
	-----------------------------------------------------------
	 SCS Same-Spin Scale       =       0.3333333333333333 [-]
	 SCS Opposite-Spin Scale   =       1.2000000000000000 [-]
	 SCS Same-Spin Energy      =      -0.1426675865188816 [Eh]
	 SCS Opposite-Spin Energy  =      -1.6137415678206206 [Eh]
	 SCS Correlation Energy    =      -1.7564091543395022 [Eh]
	 SCS Total Energy          =    -401.4606754542253384 [Eh]
	-----------------------------------------------------------

  Dipole Moment: [D]
     X:    -0.5851      Y:    -4.1970      Z:    -0.0055     Total:     4.2375

*** Psi4 exiting successfully. Buy a developer a beer!
