                               Psi4 1.3.2 release

  ==> Input File <==

--------------------------------------------------------------------------
#psi4
#
memory 32 gb

molecule  {
0 1
  O        0.6831730     1.9514370    -0.1851230
  N        0.3221270    -0.3206750    -0.2979720
  C        1.7580560    -0.4955670    -0.5492050
  C       -0.1211040     1.0090560    -0.1118080
  C       -0.4973450    -1.4105120    -0.1972350
  C        2.5603930    -0.4317450     0.7423750
  C       -1.4647442     1.0624452     0.1355036
  C       -1.8319680    -1.2780450     0.0712850
  C       -2.3551590     0.0280850     0.2487950
  H        1.8855710    -1.4559800    -1.0561060
  H        2.0595230     0.3051280    -1.2266110
  H       -0.0197130    -2.3738180    -0.3527730
  H        2.4186300     0.5432120     1.2108420
  H        2.2423160    -1.2153800     1.4354410
  H        3.6255180    -0.5665000     0.5315230
  H       -1.9126600     2.1320090     0.2855670
  H       -2.4591310    -2.1595270     0.1391440
  H       -3.4140320     0.1624990     0.4585800
units angstrom
no_reorient  #important for SAPT in psi4, default
symmetry c1  #important for SAPT in psi4, default
}

set PROPERTIES_ORIGIN ["COM"]
properties('MP2/aug-cc-pvtz', properties = ['dipole'])
--------------------------------------------------------------------------

    Molecular point group: c1
  Charge       = 0
  Multiplicity = 1
  Basis Set: AUG-CC-PVTZ
    Blend: AUG-CC-PVTZ
  Basis Set: (AUG-CC-PVTZ AUX)
    Blend: AUG-CC-PVTZ-JKFIT

    Orbital Energies [Eh]
    ---------------------

    Doubly Occupied:

       1A    -20.500684     2A    -15.626794     3A    -11.341300
       4A    -11.310116     5A    -11.275793     6A    -11.273389
       7A    -11.241295     8A    -11.235386     9A    -11.221047
      10A     -1.368376    11A     -1.278754    12A     -1.124335
      13A     -1.034323    14A     -1.023171    15A     -0.903272
      16A     -0.865569    17A     -0.831316    18A     -0.713713
      19A     -0.707085    20A     -0.665458    21A     -0.634278
      22A     -0.615347    23A     -0.607528    24A     -0.605042
      25A     -0.566778    26A     -0.534562    27A     -0.528583
      28A     -0.512571    29A     -0.501271    30A     -0.474782
      31A     -0.422267    32A     -0.407141    33A     -0.311327

  @DF-RHF Final Energy:  -399.75794051930984

   => Energetics <=

    Nuclear Repulsion Energy =            439.2425413958865192
    One-Electron Energy =               -1413.4756537948385358
    Two-Electron Energy =                 574.4751718796421756
    Total Energy =                       -399.7579405193098410
  Basis Set: (AUG-CC-PVTZ AUX)
    Blend: AUG-CC-PVTZ-RI
    Molecular point group: c1

    Geometry (in Angstrom), charge = 0, multiplicity = 1:

       Center              X                  Y                   Z               Mass
    ------------   -----------------  -----------------  -----------------  -----------------
         O            0.711805339509     1.920050678534    -0.171957469755    15.994914619570
         N            0.350759339509    -0.352061321466    -0.284806469755    14.003074004430
         C            1.786688339509    -0.526953321466    -0.536039469755    12.000000000000
         C           -0.092471660491     0.977669678534    -0.098642469755    12.000000000000
         C           -0.468712660491    -1.441898321466    -0.184069469755    12.000000000000
         C            2.589025339509    -0.463131321466     0.755540530245    12.000000000000
         C           -1.436111860491     1.031058878534     0.148669130245    12.000000000000
         C           -1.803335660491    -1.309431321466     0.084450530245    12.000000000000
         C           -2.326526660491    -0.003301321466     0.261960530245    12.000000000000
         H            1.914203339509    -1.487366321466    -1.042940469755     1.007825032230
         H            2.088155339509     0.273741678534    -1.213445469755     1.007825032230
         H            0.008919339509    -2.405204321466    -0.339607469755     1.007825032230
         H            2.447262339509     0.511825678534     1.224007530245     1.007825032230
         H            2.270948339509    -1.246766321466     1.448606530245     1.007825032230
         H            3.654150339509    -0.597886321466     0.544688530245     1.007825032230
         H           -1.884027660491     2.100622678534     0.298732530245     1.007825032230
         H           -2.430498660491    -2.190913321466     0.152309530245     1.007825032230
         H           -3.385399660491     0.131112678534     0.471745530245     1.007825032230

  Basis Set: AUG-CC-PVTZ
    Blend: AUG-CC-PVTZ
  Basis Set: (AUG-CC-PVTZ AUX)
    Blend: AUG-CC-PVTZ-JKFIT
	 Reference Energy          =    -399.7579405193098410 [Eh]
	 Singles Energy            =      -0.0000000000000000 [Eh]
	 Same-Spin Energy          =      -0.4253386834961154 [Eh]
	 Opposite-Spin Energy      =      -1.3417308664278984 [Eh]
	 Correlation Energy        =      -1.7670695499240137 [Eh]
	 Total Energy              =    -401.5250100692338719 [Eh]

	 ================> DF-SCS-MP2 Energies <==================
	-----------------------------------------------------------
	 SCS Same-Spin Scale       =       0.3333333333333333 [-]
	 SCS Opposite-Spin Scale   =       1.2000000000000000 [-]
	 SCS Same-Spin Energy      =      -0.1417795611653718 [Eh]
	 SCS Opposite-Spin Energy  =      -1.6100770397134780 [Eh]
	 SCS Correlation Energy    =      -1.7518566008788499 [Eh]
	 SCS Total Energy          =    -401.5097971201886935 [Eh]
	-----------------------------------------------------------

  Dipole Moment: [D]
     X:    -0.8678      Y:    -4.0027      Z:     0.0443     Total:     4.0959

*** Psi4 exiting successfully. Buy a developer a beer!
