                               Psi4 1.3.2 release

  ==> Input File <==

--------------------------------------------------------------------------
#psi4
#
memory 32 gb

molecule  {
0 1
  O        0.6831730     1.9514370    -0.1851230
  N        0.3221270    -0.3206750    -0.2979720
  C        1.7580560    -0.4955670    -0.5492050
  C       -0.1211040     1.0090560    -0.1118080
  C       -0.4973450    -1.4105120    -0.1972350
  C        2.5603930    -0.4317450     0.7423750
  C       -1.6136665     1.1768518     0.1707039
  C       -1.8319680    -1.2780450     0.0712850
  C       -2.3551590     0.0280850     0.2487950
  H        1.8855710    -1.4559800    -1.0561060
  H        2.0595230     0.3051280    -1.2266110
  H       -0.0197130    -2.3738180    -0.3527730
  H        2.4186300     0.5432120     1.2108420
  H        2.2423160    -1.2153800     1.4354410
  H        3.6255180    -0.5665000     0.5315230
  H       -1.9126600     2.1320090     0.2855670
  H       -2.4591310    -2.1595270     0.1391440
  H       -3.4140320     0.1624990     0.4585800
units angstrom
no_reorient  #important for SAPT in psi4, default
symmetry c1  #important for SAPT in psi4, default
}

set PROPERTIES_ORIGIN ["COM"]
properties('MP2/aug-cc-pvtz', properties = ['dipole'])
--------------------------------------------------------------------------

    Molecular point group: c1
  Charge       = 0
  Multiplicity = 1
  Basis Set: AUG-CC-PVTZ
    Blend: AUG-CC-PVTZ
  Basis Set: (AUG-CC-PVTZ AUX)
    Blend: AUG-CC-PVTZ-JKFIT

    Orbital Energies [Eh]
    ---------------------

    Doubly Occupied:

       1A    -20.510955     2A    -15.624532     3A    -11.356584
       4A    -11.308382     5A    -11.274243     6A    -11.267423
       7A    -11.239827     8A    -11.239473     9A    -11.221276
      10A     -1.369647    11A     -1.278070    12A     -1.114974
      13A     -1.031034    14A     -1.013171    15A     -0.890244
      16A     -0.875484    17A     -0.819142    18A     -0.716587
      19A     -0.696601    20A     -0.673468    21A     -0.644405
      22A     -0.613668    23A     -0.607490    24A     -0.603081
      25A     -0.558145    26A     -0.549908    27A     -0.527920
      28A     -0.526633    29A     -0.506080    30A     -0.475223
      31A     -0.416746    32A     -0.408550    33A     -0.307163

  @DF-RHF Final Energy:  -399.76231876299306

   => Energetics <=

    Nuclear Repulsion Energy =            435.7261295599349751
    One-Electron Energy =               -1406.4446362786204645
    Two-Electron Energy =                 570.9561879556923714
    Total Energy =                       -399.7623187629931181
  Basis Set: (AUG-CC-PVTZ AUX)
    Blend: AUG-CC-PVTZ-RI
    Molecular point group: c1

    Geometry (in Angstrom), charge = 0, multiplicity = 1:

       Center              X                  Y                   Z               Mass
    ------------   -----------------  -----------------  -----------------  -----------------
         O            0.726326267691     1.908895263783    -0.175389736301    15.994914619570
         N            0.365280267691    -0.363216736217    -0.288238736301    14.003074004430
         C            1.801209267691    -0.538108736217    -0.539471736301    12.000000000000
         C           -0.077950732309     0.966514263783    -0.102074736301    12.000000000000
         C           -0.454191732309    -1.453053736217    -0.187501736301    12.000000000000
         C            2.603546267691    -0.474286736217     0.752108263699    12.000000000000
         C           -1.570513232309     1.134310063783     0.180437163699    12.000000000000
         C           -1.788814732309    -1.320586736217     0.081018263699    12.000000000000
         C           -2.312005732309    -0.014456736217     0.258528263699    12.000000000000
         H            1.928724267691    -1.498521736217    -1.046372736301     1.007825032230
         H            2.102676267691     0.262586263783    -1.216877736301     1.007825032230
         H            0.023440267691    -2.416359736217    -0.343039736301     1.007825032230
         H            2.461783267691     0.500670263783     1.220575263699     1.007825032230
         H            2.285469267691    -1.257921736217     1.445174263699     1.007825032230
         H            3.668671267691    -0.609041736217     0.541256263699     1.007825032230
         H           -1.869506732309     2.089467263783     0.295300263699     1.007825032230
         H           -2.415977732309    -2.202068736217     0.148877263699     1.007825032230
         H           -3.370878732309     0.119957263783     0.468313263699     1.007825032230

  Basis Set: AUG-CC-PVTZ
    Blend: AUG-CC-PVTZ
  Basis Set: (AUG-CC-PVTZ AUX)
    Blend: AUG-CC-PVTZ-JKFIT
	 Reference Energy          =    -399.7623187629930612 [Eh]
	 Singles Energy            =      -0.0000000000000000 [Eh]
	 Same-Spin Energy          =      -0.4221945237839704 [Eh]
	 Opposite-Spin Energy      =      -1.3393290205779487 [Eh]
	 Correlation Energy        =      -1.7615235443619190 [Eh]
	 Total Energy              =    -401.5238423073549825 [Eh]

	 ================> DF-SCS-MP2 Energies <==================
	-----------------------------------------------------------
	 SCS Same-Spin Scale       =       0.3333333333333333 [-]
	 SCS Opposite-Spin Scale   =       1.2000000000000000 [-]
	 SCS Same-Spin Energy      =      -0.1407315079279901 [Eh]
	 SCS Opposite-Spin Energy  =      -1.6071948246935384 [Eh]
	 SCS Correlation Energy    =      -1.7479263326215284 [Eh]
	 SCS Total Energy          =    -401.5102450956146072 [Eh]
	-----------------------------------------------------------

  Dipole Moment: [D]
     X:    -0.6330      Y:    -3.6585      Z:     0.0158     Total:     3.7129

*** Psi4 exiting successfully. Buy a developer a beer!
