                               Psi4 1.4a3.dev225

  ==> Input File <==

--------------------------------------------------------------------------
#psi4
#
memory 32 gb

molecule  {
0 1
  O        0.6831730     1.9514370    -0.1851230
  N        0.3221270    -0.3206750    -0.2979720
  C        1.7580560    -0.4955670    -0.5492050
  C       -0.1211040     1.0090560    -0.1118080
  C       -0.4973450    -1.4105120    -0.1972350
  C        2.5603930    -0.4317450     0.7423750
  C       -1.5372540     1.1223260     0.1526570
  C       -1.8319680    -1.2780450     0.0712850
  C       -2.3432146     0.0440650     0.2473910
  H        1.8855710    -1.4559800    -1.0561060
  H        2.0595230     0.3051280    -1.2266110
  H       -0.0197130    -2.3738180    -0.3527730
  H        2.4186300     0.5432120     1.2108420
  H        2.2423160    -1.2153800     1.4354410
  H        3.6255180    -0.5665000     0.5315230
  H       -1.9126600     2.1320090     0.2855670
  H       -2.4591310    -2.1595270     0.1391440
  H       -3.4140320     0.1624990     0.4585800
units angstrom
no_reorient  #important for SAPT in psi4, default
symmetry c1  #important for SAPT in psi4, default
}

set PROPERTIES_ORIGIN ["COM"]
properties('MP2/aug-cc-pvtz', properties = ['dipole'])
--------------------------------------------------------------------------

    Molecular point group: c1
  Charge       = 0
  Multiplicity = 1
  Basis Set: AUG-CC-PVTZ
    Blend: AUG-CC-PVTZ
  Basis Set: (AUG-CC-PVTZ AUX)
    Blend: AUG-CC-PVTZ-JKFIT

    Orbital Energies [Eh]
    ---------------------

    Doubly Occupied:

       1A    -20.507560     2A    -15.624344     3A    -11.350631
       4A    -11.307660     5A    -11.273523     6A    -11.269300
       7A    -11.240224     8A    -11.235458     9A    -11.220954
      10A     -1.369694    11A     -1.278193    12A     -1.119986
      13A     -1.033148    14A     -1.017304    15A     -0.894161
      16A     -0.870649    17A     -0.824255    18A     -0.713833
      19A     -0.701120    20A     -0.666259    21A     -0.640194
      22A     -0.613930    23A     -0.607178    24A     -0.605678
      25A     -0.561287    26A     -0.538269    27A     -0.529144
      28A     -0.524673    29A     -0.505470    30A     -0.474658
      31A     -0.421745    32A     -0.409525    33A     -0.310187

  @DF-RHF Final Energy:  -399.77191362971735

   => Energetics <=

    Nuclear Repulsion Energy =            437.6630694206800172
    One-Electron Energy =               -1410.3495793445470099
    Two-Electron Energy =                 572.9145962941496464
    Total Energy =                       -399.7719136297173463
  Basis Set: (AUG-CC-PVTZ AUX)
    Blend: AUG-CC-PVTZ-RI
    Molecular point group: c1

    Geometry (in Angstrom), charge = 0, multiplicity = 1:

       Center              X                  Y                   Z               Mass
    ------------   -----------------  -----------------  -----------------  -----------------
         O            0.717710874299     1.912653739132    -0.173493142426    15.994914619570
         N            0.356664874299    -0.359458260868    -0.286342142426    14.003074004430
         C            1.792593874299    -0.534350260868    -0.537575142426    12.000000000000
         C           -0.086566125701     0.970272739132    -0.100178142426    12.000000000000
         C           -0.462807125701    -1.449295260868    -0.185605142426    12.000000000000
         C            2.594930874299    -0.470528260868     0.754004857574    12.000000000000
         C           -1.502716125701     1.083542739132     0.164286857574    12.000000000000
         C           -1.797430125701    -1.316828260868     0.082914857574    12.000000000000
         C           -2.308676725701     0.005281739132     0.259020857574    12.000000000000
         H            1.920108874299    -1.494763260868    -1.044476142426     1.007825032230
         H            2.094060874299     0.266344739132    -1.214981142426     1.007825032230
         H            0.014824874299    -2.412601260868    -0.341143142426     1.007825032230
         H            2.453167874299     0.504428739132     1.222471857574     1.007825032230
         H            2.276853874299    -1.254163260868     1.447070857574     1.007825032230
         H            3.660055874299    -0.605283260868     0.543152857574     1.007825032230
         H           -1.878122125701     2.093225739132     0.297196857574     1.007825032230
         H           -2.424593125701    -2.198310260868     0.150773857574     1.007825032230
         H           -3.379494125701     0.123715739132     0.470209857574     1.007825032230

  Basis Set: AUG-CC-PVTZ
    Blend: AUG-CC-PVTZ
  Basis Set: (AUG-CC-PVTZ AUX)
    Blend: AUG-CC-PVTZ-JKFIT
	 Reference Energy          =    -399.7719136297173463 [Eh]
	 Singles Energy            =      -0.0000000000000000 [Eh]
	 Same-Spin Energy          =      -0.4230333817876072 [Eh]
	 Opposite-Spin Energy      =      -1.3393830047814288 [Eh]
	 Correlation Energy        =      -1.7624163865690359 [Eh]
	 Total Energy              =    -401.5343300162863898 [Eh]

	 ================> DF-SCS-MP2 Energies <==================
	-----------------------------------------------------------
	 SCS Same-Spin Scale       =       0.3333333333333333 [-]
	 SCS Opposite-Spin Scale   =       1.2000000000000000 [-]
	 SCS Same-Spin Energy      =      -0.1410111272625357 [Eh]
	 SCS Opposite-Spin Energy  =      -1.6072596057377144 [Eh]
	 SCS Correlation Energy    =      -1.7482707330002500 [Eh]
	 SCS Total Energy          =    -401.5201843627176004 [Eh]
	-----------------------------------------------------------

  Dipole Moment: [D]
     X:    -0.7566      Y:    -3.7816      Z:     0.0317     Total:     3.8567

*** Psi4 exiting successfully. Buy a developer a beer!
