                               Psi4 1.3.2 release

  ==> Input File <==

--------------------------------------------------------------------------
#psi4
#
memory 32 gb

molecule  {
0 1
  O        0.6831730     1.9514370    -0.1851230
  N        0.3221270    -0.3206750    -0.2979720
  C        1.7612055    -0.4701899    -0.5475628
  C       -0.1211040     1.0090560    -0.1118080
  C       -0.4973450    -1.4105120    -0.1972350
  C        2.5603930    -0.4317450     0.7423750
  C       -1.5372540     1.1223260     0.1526570
  C       -1.8319680    -1.2780450     0.0712850
  C       -2.3551590     0.0280850     0.2487950
  H        1.8855710    -1.4559800    -1.0561060
  H        2.0595230     0.3051280    -1.2266110
  H       -0.0197130    -2.3738180    -0.3527730
  H        2.4186300     0.5432120     1.2108420
  H        2.2423160    -1.2153800     1.4354410
  H        3.6255180    -0.5665000     0.5315230
  H       -1.9126600     2.1320090     0.2855670
  H       -2.4591310    -2.1595270     0.1391440
  H       -3.4140320     0.1624990     0.4585800
units angstrom
no_reorient  #important for SAPT in psi4, default
symmetry c1  #important for SAPT in psi4, default
}

set PROPERTIES_ORIGIN ["COM"]
properties('MP2/aug-cc-pvtz', properties = ['dipole'])
--------------------------------------------------------------------------

    Molecular point group: c1
  Charge       = 0
  Multiplicity = 1
  Basis Set: AUG-CC-PVTZ
    Blend: AUG-CC-PVTZ
  Basis Set: (AUG-CC-PVTZ AUX)
    Blend: AUG-CC-PVTZ-JKFIT

    Orbital Energies [Eh]
    ---------------------

    Doubly Occupied:

       1A    -20.506316     2A    -15.625430     3A    -11.349586
       4A    -11.309194     5A    -11.274268     6A    -11.270631
       7A    -11.240345     8A    -11.236975     9A    -11.221027
      10A     -1.369360    11A     -1.278083    12A     -1.119291
      13A     -1.031990    14A     -1.018127    15A     -0.896092
      16A     -0.869294    17A     -0.825165    18A     -0.714121
      19A     -0.701166    20A     -0.666767    21A     -0.641037
      22A     -0.614766    23A     -0.606507    24A     -0.604658
      25A     -0.560657    26A     -0.538947    27A     -0.529443
      28A     -0.525522    29A     -0.506169    30A     -0.474291
      31A     -0.421211    32A     -0.408162    33A     -0.308914

  @DF-RHF Final Energy:  -399.77068714060687

   => Energetics <=

    Nuclear Repulsion Energy =            437.5381936472027178
    One-Electron Energy =               -1410.0907339852667519
    Two-Electron Energy =                 572.7818531974572807
    Total Energy =                       -399.7706871406068103
  Basis Set: (AUG-CC-PVTZ AUX)
    Blend: AUG-CC-PVTZ-RI
    Molecular point group: c1

    Geometry (in Angstrom), charge = 0, multiplicity = 1:

       Center              X                  Y                   Z               Mass
    ------------   -----------------  -----------------  -----------------  -----------------
         O            0.718568436339     1.911737458533    -0.173790167462    15.994914619570
         N            0.357522436339    -0.360374541467    -0.286639167462    14.003074004430
         C            1.796600936339    -0.509889441467    -0.536229967462    12.000000000000
         C           -0.085708563661     0.969356458533    -0.100475167462    12.000000000000
         C           -0.461949563661    -1.450211541467    -0.185902167462    12.000000000000
         C            2.595788436339    -0.471444541467     0.753707832538    12.000000000000
         C           -1.501858563661     1.082626458533     0.163989832538    12.000000000000
         C           -1.796572563661    -1.317744541467     0.082617832538    12.000000000000
         C           -2.319763563661    -0.011614541467     0.260127832538    12.000000000000
         H            1.920966436339    -1.495679541467    -1.044773167462     1.007825032230
         H            2.094918436339     0.265428458533    -1.215278167462     1.007825032230
         H            0.015682436339    -2.413517541467    -0.341440167462     1.007825032230
         H            2.454025436339     0.503512458533     1.222174832538     1.007825032230
         H            2.277711436339    -1.255079541467     1.446773832538     1.007825032230
         H            3.660913436339    -0.606199541467     0.542855832538     1.007825032230
         H           -1.877264563661     2.092309458533     0.296899832538     1.007825032230
         H           -2.423735563661    -2.199226541467     0.150476832538     1.007825032230
         H           -3.378636563661     0.122799458533     0.469912832538     1.007825032230

  Basis Set: AUG-CC-PVTZ
    Blend: AUG-CC-PVTZ
  Basis Set: (AUG-CC-PVTZ AUX)
    Blend: AUG-CC-PVTZ-JKFIT
	 Reference Energy          =    -399.7706871406068672 [Eh]
	 Singles Energy            =      -0.0000000000000000 [Eh]
	 Same-Spin Energy          =      -0.4234648282357417 [Eh]
	 Opposite-Spin Energy      =      -1.3398845000829895 [Eh]
	 Correlation Energy        =      -1.7633493283187311 [Eh]
	 Total Energy              =    -401.5340364689255921 [Eh]

	 ================> DF-SCS-MP2 Energies <==================
	-----------------------------------------------------------
	 SCS Same-Spin Scale       =       0.3333333333333333 [-]
	 SCS Opposite-Spin Scale   =       1.2000000000000000 [-]
	 SCS Same-Spin Energy      =      -0.1411549427452472 [Eh]
	 SCS Opposite-Spin Energy  =      -1.6078614000995874 [Eh]
	 SCS Correlation Energy    =      -1.7490163428448346 [Eh]
	 SCS Total Energy          =    -401.5197034834516785 [Eh]
	-----------------------------------------------------------

  Dipole Moment: [D]
     X:    -0.7613      Y:    -3.7929      Z:     0.0396     Total:     3.8687

*** Psi4 exiting successfully. Buy a developer a beer!
