                               Psi4 1.3.2 release

  ==> Input File <==

--------------------------------------------------------------------------
#psi4
#
memory 32 gb

molecule  {
0 1
  O        0.6831730     1.9514370    -0.1851230
  N        0.3221270    -0.3206750    -0.2979720
  C        1.7703634    -0.3427760    -0.5382223
  C       -0.1211040     1.0090560    -0.1118080
  C       -0.4973450    -1.4105120    -0.1972350
  C        2.5603930    -0.4317450     0.7423750
  C       -1.5372540     1.1223260     0.1526570
  C       -1.8319680    -1.2780450     0.0712850
  C       -2.3551590     0.0280850     0.2487950
  H        1.8855710    -1.4559800    -1.0561060
  H        2.0595230     0.3051280    -1.2266110
  H       -0.0197130    -2.3738180    -0.3527730
  H        2.4186300     0.5432120     1.2108420
  H        2.2423160    -1.2153800     1.4354410
  H        3.6255180    -0.5665000     0.5315230
  H       -1.9126600     2.1320090     0.2855670
  H       -2.4591310    -2.1595270     0.1391440
  H       -3.4140320     0.1624990     0.4585800
units angstrom
no_reorient  #important for SAPT in psi4, default
symmetry c1  #important for SAPT in psi4, default
}

set PROPERTIES_ORIGIN ["COM"]
properties('MP2/aug-cc-pvtz', properties = ['dipole'])
--------------------------------------------------------------------------

    Molecular point group: c1
  Charge       = 0
  Multiplicity = 1
  Basis Set: AUG-CC-PVTZ
    Blend: AUG-CC-PVTZ
  Basis Set: (AUG-CC-PVTZ AUX)
    Blend: AUG-CC-PVTZ-JKFIT

    Orbital Energies [Eh]
    ---------------------

    Doubly Occupied:

       1A    -20.507683     2A    -15.626560     3A    -11.349076
       4A    -11.311424     5A    -11.279467     6A    -11.271219
       7A    -11.241793     8A    -11.237027     9A    -11.222359
      10A     -1.372219    11A     -1.277945    12A     -1.120768
      13A     -1.035371    14A     -1.019169    15A     -0.900168
      16A     -0.865107    17A     -0.829664    18A     -0.719596
      19A     -0.702440    20A     -0.668940    21A     -0.645397
      22A     -0.619972    23A     -0.607563    24A     -0.593640
      25A     -0.562101    26A     -0.545500    27A     -0.538975
      28A     -0.528188    29A     -0.490931    30A     -0.463387
      31A     -0.422444    32A     -0.408674    33A     -0.310087

  @DF-RHF Final Energy:  -399.74396820936136

   => Energetics <=

    Nuclear Repulsion Energy =            438.0840886303029151
    One-Electron Energy =               -1411.0664030787149841
    Two-Electron Energy =                 573.2383462390507702
    Total Energy =                       -399.7439682093613555
  Basis Set: (AUG-CC-PVTZ AUX)
    Blend: AUG-CC-PVTZ-RI
    Molecular point group: c1

    Geometry (in Angstrom), charge = 0, multiplicity = 1:

       Center              X                  Y                   Z               Mass
    ------------   -----------------  -----------------  -----------------  -----------------
         O            0.717675479352     1.899313744346    -0.174700929179    15.994914619570
         N            0.356629479352    -0.372798255654    -0.287549929179    14.003074004430
         C            1.804865879352    -0.394899255654    -0.527800229179    12.000000000000
         C           -0.086601520648     0.956932744346    -0.101385929179    12.000000000000
         C           -0.462842520648    -1.462635255654    -0.186812929179    12.000000000000
         C            2.594895479352    -0.483868255654     0.752797070821    12.000000000000
         C           -1.502751520648     1.070202744346     0.163079070821    12.000000000000
         C           -1.797465520648    -1.330168255654     0.081707070821    12.000000000000
         C           -2.320656520648    -0.024038255654     0.259217070821    12.000000000000
         H            1.920073479352    -1.508103255654    -1.045683929179     1.007825032230
         H            2.094025479352     0.253004744346    -1.216188929179     1.007825032230
         H            0.014789479352    -2.425941255654    -0.342350929179     1.007825032230
         H            2.453132479352     0.491088744346     1.221264070821     1.007825032230
         H            2.276818479352    -1.267503255654     1.445863070821     1.007825032230
         H            3.660020479352    -0.618623255654     0.541945070821     1.007825032230
         H           -1.878157520648     2.079885744346     0.295989070821     1.007825032230
         H           -2.424628520648    -2.211650255654     0.149566070821     1.007825032230
         H           -3.379529520648     0.110375744346     0.469002070821     1.007825032230

  Basis Set: AUG-CC-PVTZ
    Blend: AUG-CC-PVTZ
  Basis Set: (AUG-CC-PVTZ AUX)
    Blend: AUG-CC-PVTZ-JKFIT
	 Reference Energy          =    -399.7439682093613555 [Eh]
	 Singles Energy            =      -0.0000000000000000 [Eh]
	 Same-Spin Energy          =      -0.4240054528556035 [Eh]
	 Opposite-Spin Energy      =      -1.3414878049474388 [Eh]
	 Correlation Energy        =      -1.7654932578030422 [Eh]
	 Total Energy              =    -401.5094614671643853 [Eh]

	 ================> DF-SCS-MP2 Energies <==================
	-----------------------------------------------------------
	 SCS Same-Spin Scale       =       0.3333333333333333 [-]
	 SCS Opposite-Spin Scale   =       1.2000000000000000 [-]
	 SCS Same-Spin Energy      =      -0.1413351509518678 [Eh]
	 SCS Opposite-Spin Energy  =      -1.6097853659369266 [Eh]
	 SCS Correlation Energy    =      -1.7511205168887944 [Eh]
	 SCS Total Energy          =    -401.4950887262501737 [Eh]
	-----------------------------------------------------------

  Dipole Moment: [D]
     X:    -0.8185      Y:    -3.6608      Z:     0.1132     Total:     3.7529

*** Psi4 exiting successfully. Buy a developer a beer!
