                               Psi4 1.4a3.dev225

  ==> Input File <==

--------------------------------------------------------------------------
#psi4
#
memory 32 gb

molecule  {
0 1
  O        0.6831730     1.9514370    -0.1851230
  N        0.3221270    -0.3206750    -0.2979720
  C        1.7580560    -0.4955670    -0.5492050
  C       -0.1211040     1.0090560    -0.1118080
  C       -0.4973450    -1.4105120    -0.1972350
  C        2.5603930    -0.4317450     0.7423750
  C       -1.5372540     1.1223260     0.1526570
  C       -1.8319680    -1.2780450     0.0712850
  C       -2.3625374     0.0465049     0.2512984
  H        1.8855710    -1.4559800    -1.0561060
  H        2.0595230     0.3051280    -1.2266110
  H       -0.0197130    -2.3738180    -0.3527730
  H        2.4186300     0.5432120     1.2108420
  H        2.2423160    -1.2153800     1.4354410
  H        3.6255180    -0.5665000     0.5315230
  H       -1.9126600     2.1320090     0.2855670
  H       -2.4591310    -2.1595270     0.1391440
  H       -3.4140320     0.1624990     0.4585800
units angstrom
no_reorient  #important for SAPT in psi4, default
symmetry c1  #important for SAPT in psi4, default
}

set PROPERTIES_ORIGIN ["COM"]
properties('MP2/aug-cc-pvtz', properties = ['dipole'])
--------------------------------------------------------------------------

    Molecular point group: c1
  Charge       = 0
  Multiplicity = 1
  Basis Set: AUG-CC-PVTZ
    Blend: AUG-CC-PVTZ
  Basis Set: (AUG-CC-PVTZ AUX)
    Blend: AUG-CC-PVTZ-JKFIT

    Orbital Energies [Eh]
    ---------------------

    Doubly Occupied:

       1A    -20.507755     2A    -15.624186     3A    -11.351078
       4A    -11.307386     5A    -11.273415     6A    -11.270368
       7A    -11.241087     8A    -11.237038     9A    -11.220879
      10A     -1.369704    11A     -1.277867    12A     -1.117718
      13A     -1.032390    14A     -1.016734    15A     -0.895052
      16A     -0.869660    17A     -0.825537    18A     -0.713363
      19A     -0.700063    20A     -0.668512    21A     -0.639870
      22A     -0.615030    23A     -0.606940    24A     -0.605322
      25A     -0.563087    26A     -0.536171    27A     -0.529246
      28A     -0.525060    29A     -0.505139    30A     -0.474241
      31A     -0.422396    32A     -0.407882    33A     -0.309759

  @DF-RHF Final Energy:  -399.77162723950840

   => Energetics <=

    Nuclear Repulsion Energy =            437.2688461941735909
    One-Electron Energy =               -1409.5610782488540735
    Two-Electron Energy =                 572.5206048151719642
    Total Energy =                       -399.7716272395084616
  Basis Set: (AUG-CC-PVTZ AUX)
    Blend: AUG-CC-PVTZ-RI
    Molecular point group: c1

    Geometry (in Angstrom), charge = 0, multiplicity = 1:

       Center              X                  Y                   Z               Mass
    ------------   -----------------  -----------------  -----------------  -----------------
         O            0.719594977560     1.912415832434    -0.173874140267    15.994914619570
         N            0.358548977560    -0.359696167566    -0.286723140267    14.003074004430
         C            1.794477977560    -0.534588167566    -0.537956140267    12.000000000000
         C           -0.084682022440     0.970034832434    -0.100559140267    12.000000000000
         C           -0.460923022440    -1.449533167566    -0.185986140267    12.000000000000
         C            2.596814977560    -0.470766167566     0.753623859733    12.000000000000
         C           -1.500832022440     1.083304832434     0.163905859733    12.000000000000
         C           -1.795546022440    -1.317066167566     0.082533859733    12.000000000000
         C           -2.326115422440     0.007483732434     0.262547259733    12.000000000000
         H            1.921992977560    -1.495001167566    -1.044857140267     1.007825032230
         H            2.095944977560     0.266106832434    -1.215362140267     1.007825032230
         H            0.016708977560    -2.412839167566    -0.341524140267     1.007825032230
         H            2.455051977560     0.504190832434     1.222090859733     1.007825032230
         H            2.278737977560    -1.254401167566     1.446689859733     1.007825032230
         H            3.661939977560    -0.605521167566     0.542771859733     1.007825032230
         H           -1.876238022440     2.092987832434     0.296815859733     1.007825032230
         H           -2.422709022440    -2.198548167566     0.150392859733     1.007825032230
         H           -3.377610022440     0.123477832434     0.469828859733     1.007825032230

  Basis Set: AUG-CC-PVTZ
    Blend: AUG-CC-PVTZ
  Basis Set: (AUG-CC-PVTZ AUX)
    Blend: AUG-CC-PVTZ-JKFIT
	 Reference Energy          =    -399.7716272395084047 [Eh]
	 Singles Energy            =      -0.0000000000000000 [Eh]
	 Same-Spin Energy          =      -0.4230469954590981 [Eh]
	 Opposite-Spin Energy      =      -1.3395960643926026 [Eh]
	 Correlation Energy        =      -1.7626430598517007 [Eh]
	 Total Energy              =    -401.5342702993601165 [Eh]

	 ================> DF-SCS-MP2 Energies <==================
	-----------------------------------------------------------
	 SCS Same-Spin Scale       =       0.3333333333333333 [-]
	 SCS Opposite-Spin Scale   =       1.2000000000000000 [-]
	 SCS Same-Spin Energy      =      -0.1410156651530327 [Eh]
	 SCS Opposite-Spin Energy  =      -1.6075152772711230 [Eh]
	 SCS Correlation Energy    =      -1.7485309424241557 [Eh]
	 SCS Total Energy          =    -401.5201581819325725 [Eh]
	-----------------------------------------------------------

  Dipole Moment: [D]
     X:    -0.7722      Y:    -3.7695      Z:     0.0357     Total:     3.8480

*** Psi4 exiting successfully. Buy a developer a beer!
