                               Psi4 1.3.2 release

  ==> Input File <==

--------------------------------------------------------------------------
#psi4
#
memory 32 gb

molecule  {
0 1
  O        0.5827619     2.0300952    -0.1604948
  N        0.3221270    -0.3206750    -0.2979720
  C        1.7580560    -0.4955670    -0.5492050
  C       -0.1211040     1.0090560    -0.1118080
  C       -0.4973450    -1.4105120    -0.1972350
  C        2.5603930    -0.4317450     0.7423750
  C       -1.5372540     1.1223260     0.1526570
  C       -1.8319680    -1.2780450     0.0712850
  C       -2.3551590     0.0280850     0.2487950
  H        1.8855710    -1.4559800    -1.0561060
  H        2.0595230     0.3051280    -1.2266110
  H       -0.0197130    -2.3738180    -0.3527730
  H        2.4186300     0.5432120     1.2108420
  H        2.2423160    -1.2153800     1.4354410
  H        3.6255180    -0.5665000     0.5315230
  H       -1.9126600     2.1320090     0.2855670
  H       -2.4591310    -2.1595270     0.1391440
  H       -3.4140320     0.1624990     0.4585800
units angstrom
no_reorient  #important for SAPT in psi4, default
symmetry c1  #important for SAPT in psi4, default
}

set PROPERTIES_ORIGIN ["COM"]
properties('MP2/aug-cc-pvtz', properties = ['dipole'])
--------------------------------------------------------------------------

    Molecular point group: c1
  Charge       = 0
  Multiplicity = 1
  Basis Set: AUG-CC-PVTZ
    Blend: AUG-CC-PVTZ
  Basis Set: (AUG-CC-PVTZ AUX)
    Blend: AUG-CC-PVTZ-JKFIT

    Orbital Energies [Eh]
    ---------------------

    Doubly Occupied:

       1A    -20.507942     2A    -15.628791     3A    -11.350023
       4A    -11.308446     5A    -11.277267     6A    -11.266383
       7A    -11.240481     8A    -11.233860     9A    -11.223944
      10A     -1.367086    11A     -1.283399    12A     -1.118095
      13A     -1.031630    14A     -1.018525    15A     -0.895805
      16A     -0.871993    17A     -0.824937    18A     -0.714432
      19A     -0.699620    20A     -0.667439    21A     -0.640447
      22A     -0.614669    23A     -0.611475    24A     -0.603552
      25A     -0.560524    26A     -0.539278    27A     -0.531222
      28A     -0.526579    29A     -0.508561    30A     -0.476132
      31A     -0.419583    32A     -0.407776    33A     -0.307532

  @DF-RHF Final Energy:  -399.76870895394836

   => Energetics <=

    Nuclear Repulsion Energy =            436.5526020852069564
    One-Electron Energy =               -1408.0877717683044921
    Two-Electron Energy =                 571.7664607291492302
    Total Energy =                       -399.7687089539483623
  Basis Set: (AUG-CC-PVTZ AUX)
    Blend: AUG-CC-PVTZ-RI
    Molecular point group: c1

    Geometry (in Angstrom), charge = 0, multiplicity = 1:

       Center              X                  Y                   Z               Mass
    ------------   -----------------  -----------------  -----------------  -----------------
         O            0.631514630213     1.982647074126    -0.152202711584    15.994914619570
         N            0.370879730213    -0.368123125874    -0.289679911584    14.003074004430
         C            1.806808730213    -0.543015125874    -0.540912911584    12.000000000000
         C           -0.072351269787     0.961607874126    -0.103515911584    12.000000000000
         C           -0.448592269787    -1.457960125874    -0.188942911584    12.000000000000
         C            2.609145730213    -0.479193125874     0.750667088416    12.000000000000
         C           -1.488501269787     1.074877874126     0.160949088416    12.000000000000
         C           -1.783215269787    -1.325493125874     0.079577088416    12.000000000000
         C           -2.306406269787    -0.019363125874     0.257087088416    12.000000000000
         H            1.934323730213    -1.503428125874    -1.047813911584     1.007825032230
         H            2.108275730213     0.257679874126    -1.218318911584     1.007825032230
         H            0.029039730213    -2.421266125874    -0.344480911584     1.007825032230
         H            2.467382730213     0.495763874126     1.219134088416     1.007825032230
         H            2.291068730213    -1.262828125874     1.443733088416     1.007825032230
         H            3.674270730213    -0.613948125874     0.539815088416     1.007825032230
         H           -1.863907269787     2.084560874126     0.293859088416     1.007825032230
         H           -2.410378269787    -2.206975125874     0.147436088416     1.007825032230
         H           -3.365279269787     0.115050874126     0.466872088416     1.007825032230

  Basis Set: AUG-CC-PVTZ
    Blend: AUG-CC-PVTZ
  Basis Set: (AUG-CC-PVTZ AUX)
    Blend: AUG-CC-PVTZ-JKFIT
	 Reference Energy          =    -399.7687089539483623 [Eh]
	 Singles Energy            =      -0.0000000000000000 [Eh]
	 Same-Spin Energy          =      -0.4231679492374778 [Eh]
	 Opposite-Spin Energy      =      -1.3399992379180687 [Eh]
	 Correlation Energy        =      -1.7631671871555465 [Eh]
	 Total Energy              =    -401.5318761411039077 [Eh]

	 ================> DF-SCS-MP2 Energies <==================
	-----------------------------------------------------------
	 SCS Same-Spin Scale       =       0.3333333333333333 [-]
	 SCS Opposite-Spin Scale   =       1.2000000000000000 [-]
	 SCS Same-Spin Energy      =      -0.1410559830791593 [Eh]
	 SCS Opposite-Spin Energy  =      -1.6079990855016824 [Eh]
	 SCS Correlation Energy    =      -1.7490550685808417 [Eh]
	 SCS Total Energy          =    -401.5177640225292066 [Eh]
	-----------------------------------------------------------

  Dipole Moment: [D]
     X:    -0.5180      Y:    -3.9484      Z:    -0.0074     Total:     3.9823

*** Psi4 exiting successfully. Buy a developer a beer!
