                               Psi4 1.3.2 release

  ==> Input File <==

--------------------------------------------------------------------------
#psi4
#
memory 32 gb

molecule  {
0 1
  O        0.6831730     1.9514370    -0.1851230
  N        0.3221270    -0.3206750    -0.2979720
  C        1.7580560    -0.4955670    -0.5492050
  C       -0.1211040     1.0090560    -0.1118080
  C       -0.4973450    -1.4105120    -0.1972350
  C        2.5603930    -0.4317450     0.7423750
  C       -1.5372540     1.1223260     0.1526570
  C       -1.8319680    -1.2780450     0.0712850
  C       -2.2357146     0.1878846     0.2347553
  H        1.8855710    -1.4559800    -1.0561060
  H        2.0595230     0.3051280    -1.2266110
  H       -0.0197130    -2.3738180    -0.3527730
  H        2.4186300     0.5432120     1.2108420
  H        2.2423160    -1.2153800     1.4354410
  H        3.6255180    -0.5665000     0.5315230
  H       -1.9126600     2.1320090     0.2855670
  H       -2.4591310    -2.1595270     0.1391440
  H       -3.4140320     0.1624990     0.4585800
units angstrom
no_reorient  #important for SAPT in psi4, default
symmetry c1  #important for SAPT in psi4, default
}

set PROPERTIES_ORIGIN ["COM"]
properties('MP2/aug-cc-pvtz', properties = ['dipole'])
--------------------------------------------------------------------------

    Molecular point group: c1
  Charge       = 0
  Multiplicity = 1
  Basis Set: AUG-CC-PVTZ
    Blend: AUG-CC-PVTZ
  Basis Set: (AUG-CC-PVTZ AUX)
    Blend: AUG-CC-PVTZ-JKFIT

    Orbital Energies [Eh]
    ---------------------

    Doubly Occupied:

       1A    -20.518882     2A    -15.616361     3A    -11.357306
       4A    -11.299125     5A    -11.271862     6A    -11.255319
       7A    -11.242207     8A    -11.219976     9A    -11.216083
      10A     -1.376068    11A     -1.278190    12A     -1.144205
      13A     -1.046881    14A     -1.009566    15A     -0.889499
      16A     -0.866221    17A     -0.819202    18A     -0.714170
      19A     -0.704790    20A     -0.656898    21A     -0.643855
      22A     -0.620766    23A     -0.607856    24A     -0.603586
      25A     -0.573185    26A     -0.538972    27A     -0.528180
      28A     -0.505706    29A     -0.490135    30A     -0.473655
      31A     -0.437246    32A     -0.419979    33A     -0.318855

  @DF-RHF Final Energy:  -399.70997463220368

   => Energetics <=

    Nuclear Repulsion Energy =            440.0415511886831155
    One-Electron Energy =               -1414.9734740924807284
    Two-Electron Energy =                 575.2219482715939876
    Total Energy =                       -399.7099746322036253
  Basis Set: (AUG-CC-PVTZ AUX)
    Blend: AUG-CC-PVTZ-RI
    Molecular point group: c1

    Geometry (in Angstrom), charge = 0, multiplicity = 1:

       Center              X                  Y                   Z               Mass
    ------------   -----------------  -----------------  -----------------  -----------------
         O            0.707228899608     1.898630358599    -0.172261076495    15.994914619570
         N            0.346182899608    -0.373481641401    -0.285110076495    14.003074004430
         C            1.782111899608    -0.548373641401    -0.536343076495    12.000000000000
         C           -0.097048100392     0.956249358599    -0.098946076495    12.000000000000
         C           -0.473289100392    -1.463318641401    -0.184373076495    12.000000000000
         C            2.584448899608    -0.484551641401     0.755236923505    12.000000000000
         C           -1.513198100392     1.069519358599     0.165518923505    12.000000000000
         C           -1.807912100392    -1.330851641401     0.084146923505    12.000000000000
         C           -2.211658700392     0.135077958599     0.247617223505    12.000000000000
         H            1.909626899608    -1.508786641401    -1.043244076495     1.007825032230
         H            2.083578899608     0.252321358599    -1.213749076495     1.007825032230
         H            0.004342899608    -2.426624641401    -0.339911076495     1.007825032230
         H            2.442685899608     0.490405358599     1.223703923505     1.007825032230
         H            2.266371899608    -1.268186641401     1.448302923505     1.007825032230
         H            3.649573899608    -0.619306641401     0.544384923505     1.007825032230
         H           -1.888604100392     2.079202358599     0.298428923505     1.007825032230
         H           -2.435075100392    -2.212333641401     0.152005923505     1.007825032230
         H           -3.389976100392     0.109692358599     0.471441923505     1.007825032230

  Basis Set: AUG-CC-PVTZ
    Blend: AUG-CC-PVTZ
  Basis Set: (AUG-CC-PVTZ AUX)
    Blend: AUG-CC-PVTZ-JKFIT
	 Reference Energy          =    -399.7099746322036822 [Eh]
	 Singles Energy            =      -0.0000000000000000 [Eh]
	 Same-Spin Energy          =      -0.4205129931975120 [Eh]
	 Opposite-Spin Energy      =      -1.3376708179973273 [Eh]
	 Correlation Energy        =      -1.7581838111948394 [Eh]
	 Total Energy              =    -401.4681584433985222 [Eh]

	 ================> DF-SCS-MP2 Energies <==================
	-----------------------------------------------------------
	 SCS Same-Spin Scale       =       0.3333333333333333 [-]
	 SCS Opposite-Spin Scale   =       1.2000000000000000 [-]
	 SCS Same-Spin Energy      =      -0.1401709977325040 [Eh]
	 SCS Opposite-Spin Energy  =      -1.6052049815967928 [Eh]
	 SCS Correlation Energy    =      -1.7453759793292969 [Eh]
	 SCS Total Energy          =    -401.4553506115329924 [Eh]
	-----------------------------------------------------------

  Dipole Moment: [D]
     X:    -0.6716      Y:    -3.4481      Z:     0.0213     Total:     3.5130

*** Psi4 exiting successfully. Buy a developer a beer!
