                               Psi4 1.3.2 release

  ==> Input File <==

--------------------------------------------------------------------------
#psi4
#
memory 32 gb

molecule  {
0 1
  O        0.6831730     1.9514370    -0.1851230
  N        0.3221270    -0.3206750    -0.2979720
  C        1.7580560    -0.4955670    -0.5492050
  C       -0.1211040     1.0090560    -0.1118080
  C       -0.5032546    -1.4578544    -0.1990081
  C        2.5603930    -0.4317450     0.7423750
  C       -1.5372540     1.1223260     0.1526570
  C       -1.8319680    -1.2780450     0.0712850
  C       -2.3551590     0.0280850     0.2487950
  H        1.8855710    -1.4559800    -1.0561060
  H        2.0595230     0.3051280    -1.2266110
  H       -0.0197130    -2.3738180    -0.3527730
  H        2.4186300     0.5432120     1.2108420
  H        2.2423160    -1.2153800     1.4354410
  H        3.6255180    -0.5665000     0.5315230
  H       -1.9126600     2.1320090     0.2855670
  H       -2.4591310    -2.1595270     0.1391440
  H       -3.4140320     0.1624990     0.4585800
units angstrom
no_reorient  #important for SAPT in psi4, default
symmetry c1  #important for SAPT in psi4, default
}

set PROPERTIES_ORIGIN ["COM"]
properties('MP2/aug-cc-pvtz', properties = ['dipole'])
--------------------------------------------------------------------------

    Molecular point group: c1
  Charge       = 0
  Multiplicity = 1
  Basis Set: AUG-CC-PVTZ
    Blend: AUG-CC-PVTZ
  Basis Set: (AUG-CC-PVTZ AUX)
    Blend: AUG-CC-PVTZ-JKFIT

    Orbital Energies [Eh]
    ---------------------

    Doubly Occupied:

       1A    -20.506183     2A    -15.622007     3A    -11.349870
       4A    -11.308274     5A    -11.271906     6A    -11.270882
       7A    -11.243884     8A    -11.240384     9A    -11.219175
      10A     -1.366320    11A     -1.267401    12A     -1.118650
      13A     -1.031107    14A     -1.016869    15A     -0.895253
      16A     -0.869657    17A     -0.820468    18A     -0.715639
      19A     -0.698570    20A     -0.673893    21A     -0.636900
      22A     -0.613308    23A     -0.606896    24A     -0.604639
      25A     -0.558265    26A     -0.540722    27A     -0.528322
      28A     -0.523850    29A     -0.502879    30A     -0.472777
      31A     -0.421484    32A     -0.404831    33A     -0.311888

  @DF-RHF Final Energy:  -399.76755709496450

   => Energetics <=

    Nuclear Repulsion Energy =            436.5155918019611363
    One-Electron Energy =               -1408.0999931822659619
    Two-Electron Energy =                 571.8168442853402667
    Total Energy =                       -399.7675570949645589
  Basis Set: (AUG-CC-PVTZ AUX)
    Blend: AUG-CC-PVTZ-RI
    Molecular point group: c1

    Geometry (in Angstrom), charge = 0, multiplicity = 1:

       Center              X                  Y                   Z               Mass
    ------------   -----------------  -----------------  -----------------  -----------------
         O            0.719451759659     1.918828100009    -0.173457152688    15.994914619570
         N            0.358405759659    -0.353283899991    -0.286306152688    14.003074004430
         C            1.794334759659    -0.528175899991    -0.537539152688    12.000000000000
         C           -0.084825240341     0.976447100009    -0.100142152688    12.000000000000
         C           -0.466975840341    -1.490463299991    -0.187342252688    12.000000000000
         C            2.596671759659    -0.464353899991     0.754040847312    12.000000000000
         C           -1.500975240341     1.089717100009     0.164322847312    12.000000000000
         C           -1.795689240341    -1.310653899991     0.082950847312    12.000000000000
         C           -2.318880240341    -0.004523899991     0.260460847312    12.000000000000
         H            1.921849759659    -1.488588899991    -1.044440152688     1.007825032230
         H            2.095801759659     0.272519100009    -1.214945152688     1.007825032230
         H            0.016565759659    -2.406426899991    -0.341107152688     1.007825032230
         H            2.454908759659     0.510603100009     1.222507847312     1.007825032230
         H            2.278594759659    -1.247988899991     1.447106847312     1.007825032230
         H            3.661796759659    -0.599108899991     0.543188847312     1.007825032230
         H           -1.876381240341     2.099400100009     0.297232847312     1.007825032230
         H           -2.422852240341    -2.192135899991     0.150809847312     1.007825032230
         H           -3.377753240341     0.129890100009     0.470245847312     1.007825032230

  Basis Set: AUG-CC-PVTZ
    Blend: AUG-CC-PVTZ
  Basis Set: (AUG-CC-PVTZ AUX)
    Blend: AUG-CC-PVTZ-JKFIT
	 Reference Energy          =    -399.7675570949645021 [Eh]
	 Singles Energy            =      -0.0000000000000000 [Eh]
	 Same-Spin Energy          =      -0.4233427519206542 [Eh]
	 Opposite-Spin Energy      =      -1.3406435164502659 [Eh]
	 Correlation Energy        =      -1.7639862683709202 [Eh]
	 Total Energy              =    -401.5315433633354019 [Eh]

	 ================> DF-SCS-MP2 Energies <==================
	-----------------------------------------------------------
	 SCS Same-Spin Scale       =       0.3333333333333333 [-]
	 SCS Opposite-Spin Scale   =       1.2000000000000000 [-]
	 SCS Same-Spin Energy      =      -0.1411142506402180 [Eh]
	 SCS Opposite-Spin Energy  =      -1.6087722197403191 [Eh]
	 SCS Correlation Energy    =      -1.7498864703805372 [Eh]
	 SCS Total Energy          =    -401.5174435653450473 [Eh]
	-----------------------------------------------------------

  Dipole Moment: [D]
     X:    -0.8929      Y:    -3.8334      Z:     0.0459     Total:     3.9363

*** Psi4 exiting successfully. Buy a developer a beer!
