                               Psi4 1.3.2 release

  ==> Input File <==

--------------------------------------------------------------------------
#psi4
#
memory 32 gb

molecule  {
0 1
  O        0.6831730     1.9514370    -0.1851230
  N        0.3221270    -0.3206750    -0.2979720
  C        1.7580560    -0.4955670    -0.5492050
  C       -0.1211040     1.0090560    -0.1118080
  C       -0.4973450    -1.4105120    -0.1972350
  C        2.5603930    -0.4317450     0.7423750
  C       -1.5749850     1.1502725     0.1616273
  C       -1.8319680    -1.2780450     0.0712850
  C       -2.3551590     0.0280850     0.2487950
  H        1.8855710    -1.4559800    -1.0561060
  H        2.0595230     0.3051280    -1.2266110
  H       -0.0197130    -2.3738180    -0.3527730
  H        2.4186300     0.5432120     1.2108420
  H        2.2423160    -1.2153800     1.4354410
  H        3.6255180    -0.5665000     0.5315230
  H       -1.9126600     2.1320090     0.2855670
  H       -2.4591310    -2.1595270     0.1391440
  H       -3.4140320     0.1624990     0.4585800
units angstrom
no_reorient  #important for SAPT in psi4, default
symmetry c1  #important for SAPT in psi4, default
}

set PROPERTIES_ORIGIN ["COM"]
properties('MP2/aug-cc-pvtz', properties = ['dipole'])
--------------------------------------------------------------------------

    Molecular point group: c1
  Charge       = 0
  Multiplicity = 1
  Basis Set: AUG-CC-PVTZ
    Blend: AUG-CC-PVTZ
  Basis Set: (AUG-CC-PVTZ AUX)
    Blend: AUG-CC-PVTZ-JKFIT

    Orbital Energies [Eh]
    ---------------------

    Doubly Occupied:

       1A    -20.508700     2A    -15.624974     3A    -11.353493
       4A    -11.308499     5A    -11.274026     6A    -11.268734
       7A    -11.239883     8A    -11.238165     9A    -11.221201
      10A     -1.369359    11A     -1.278162    12A     -1.116894
      13A     -1.031019    14A     -1.015405    15A     -0.892584
      16A     -0.872908    17A     -0.821771    18A     -0.715295
      19A     -0.697896    20A     -0.670135    21A     -0.642576
      22A     -0.613750    23A     -0.607266    24A     -0.604522
      25A     -0.557720    26A     -0.546005    27A     -0.529088
      28A     -0.526656    29A     -0.505903    30A     -0.475057
      31A     -0.419389    32A     -0.408123    33A     -0.307849

  @DF-RHF Final Energy:  -399.76974451442868

   => Energetics <=

    Nuclear Repulsion Energy =            436.5673816654579582
    One-Electron Energy =               -1408.1482343782192856
    Two-Electron Energy =                 571.8111081983325903
    Total Energy =                       -399.7697445144286803
  Basis Set: (AUG-CC-PVTZ AUX)
    Blend: AUG-CC-PVTZ-RI
    Molecular point group: c1

    Geometry (in Angstrom), charge = 0, multiplicity = 1:

       Center              X                  Y                   Z               Mass
    ------------   -----------------  -----------------  -----------------  -----------------
         O            0.722554560677     1.911486924712    -0.174504706613    15.994914619570
         N            0.361508560677    -0.360625075288    -0.287353706613    14.003074004430
         C            1.797437560677    -0.535517075288    -0.538586706613    12.000000000000
         C           -0.081722439323     0.969105924712    -0.101189706613    12.000000000000
         C           -0.457963439323    -1.450462075288    -0.186616706613    12.000000000000
         C            2.599774560677    -0.471695075288     0.752993293387    12.000000000000
         C           -1.535603439323     1.110322424712     0.172245593387    12.000000000000
         C           -1.792586439323    -1.317995075288     0.081903293387    12.000000000000
         C           -2.315777439323    -0.011865075288     0.259413293387    12.000000000000
         H            1.924952560677    -1.495930075288    -1.045487706613     1.007825032230
         H            2.098904560677     0.265177924712    -1.215992706613     1.007825032230
         H            0.019668560677    -2.413768075288    -0.342154706613     1.007825032230
         H            2.458011560677     0.503261924712     1.221460293387     1.007825032230
         H            2.281697560677    -1.255330075288     1.446059293387     1.007825032230
         H            3.664899560677    -0.606450075288     0.542141293387     1.007825032230
         H           -1.873278439323     2.092058924712     0.296185293387     1.007825032230
         H           -2.419749439323    -2.199477075288     0.149762293387     1.007825032230
         H           -3.374650439323     0.122548924712     0.469198293387     1.007825032230

  Basis Set: AUG-CC-PVTZ
    Blend: AUG-CC-PVTZ
  Basis Set: (AUG-CC-PVTZ AUX)
    Blend: AUG-CC-PVTZ-JKFIT
	 Reference Energy          =    -399.7697445144286803 [Eh]
	 Singles Energy            =      -0.0000000000000000 [Eh]
	 Same-Spin Energy          =      -0.4227429053570041 [Eh]
	 Opposite-Spin Energy      =      -1.3394041288604586 [Eh]
	 Correlation Energy        =      -1.7621470342174628 [Eh]
	 Total Energy              =    -401.5318915486461151 [Eh]

	 ================> DF-SCS-MP2 Energies <==================
	-----------------------------------------------------------
	 SCS Same-Spin Scale       =       0.3333333333333333 [-]
	 SCS Opposite-Spin Scale   =       1.2000000000000000 [-]
	 SCS Same-Spin Energy      =      -0.1409143017856680 [Eh]
	 SCS Opposite-Spin Energy  =      -1.6072849546325503 [Eh]
	 SCS Correlation Energy    =      -1.7481992564182183 [Eh]
	 SCS Total Energy          =    -401.5179437708468981 [Eh]
	-----------------------------------------------------------

  Dipole Moment: [D]
     X:    -0.6967      Y:    -3.7313      Z:     0.0242     Total:     3.7959

*** Psi4 exiting successfully. Buy a developer a beer!
