                               Psi4 1.4a3.dev225

  ==> Input File <==

--------------------------------------------------------------------------
#psi4
#
memory 32 gb

molecule  {
0 1
  O        0.6831730     1.9514370    -0.1851230
  N        0.3221270    -0.3206750    -0.2979720
  C        1.7580560    -0.4955670    -0.5492050
  C       -0.1211040     1.0090560    -0.1118080
  C       -0.4973450    -1.4105120    -0.1972350
  C        2.5603930    -0.4317450     0.7423750
  C       -1.5862531     1.1262452     0.1618075
  C       -1.8319680    -1.2780450     0.0712850
  C       -2.3551590     0.0280850     0.2487950
  H        1.8855710    -1.4559800    -1.0561060
  H        2.0595230     0.3051280    -1.2266110
  H       -0.0197130    -2.3738180    -0.3527730
  H        2.4186300     0.5432120     1.2108420
  H        2.2423160    -1.2153800     1.4354410
  H        3.6255180    -0.5665000     0.5315230
  H       -1.9126600     2.1320090     0.2855670
  H       -2.4591310    -2.1595270     0.1391440
  H       -3.4140320     0.1624990     0.4585800
units angstrom
no_reorient  #important for SAPT in psi4, default
symmetry c1  #important for SAPT in psi4, default
}

set PROPERTIES_ORIGIN ["COM"]
properties('MP2/aug-cc-pvtz', properties = ['dipole'])
--------------------------------------------------------------------------

    Molecular point group: c1
  Charge       = 0
  Multiplicity = 1
  Basis Set: AUG-CC-PVTZ
    Blend: AUG-CC-PVTZ
  Basis Set: (AUG-CC-PVTZ AUX)
    Blend: AUG-CC-PVTZ-JKFIT

    Orbital Energies [Eh]
    ---------------------

    Doubly Occupied:

       1A    -20.511400     2A    -15.623842     3A    -11.355213
       4A    -11.307087     5A    -11.273653     6A    -11.264419
       7A    -11.239016     8A    -11.238020     9A    -11.221113
      10A     -1.370336    11A     -1.278301    12A     -1.119732
      13A     -1.032462    14A     -1.014759    15A     -0.891772
      16A     -0.872421    17A     -0.821212    18A     -0.714610
      19A     -0.699343    20A     -0.667674    21A     -0.642387
      22A     -0.614170    23A     -0.607162    24A     -0.604466
      25A     -0.559744    26A     -0.543360    27A     -0.528874
      28A     -0.525850    29A     -0.505815    30A     -0.475697
      31A     -0.420235    32A     -0.411306    33A     -0.308870

  @DF-RHF Final Energy:  -399.77026143998609

   => Energetics <=

    Nuclear Repulsion Energy =            436.7938061789609492
    One-Electron Energy =               -1408.5994918987860274
    Two-Electron Energy =                 572.0354242798389350
    Total Energy =                       -399.7702614399861432
  Basis Set: (AUG-CC-PVTZ AUX)
    Blend: AUG-CC-PVTZ-RI
    Molecular point group: c1

    Geometry (in Angstrom), charge = 0, multiplicity = 1:

       Center              X                  Y                   Z               Mass
    ------------   -----------------  -----------------  -----------------  -----------------
         O            0.723653276389     1.913829748438    -0.174522277328    15.994914619570
         N            0.362607276389    -0.358282251562    -0.287371277328    14.003074004430
         C            1.798536276389    -0.533174251562    -0.538604277328    12.000000000000
         C           -0.080623723611     0.971448748438    -0.101207277328    12.000000000000
         C           -0.456864723611    -1.448119251562    -0.186634277328    12.000000000000
         C            2.600873276389    -0.469352251562     0.752975722672    12.000000000000
         C           -1.545772823611     1.088637948438     0.172408222672    12.000000000000
         C           -1.791487723611    -1.315652251562     0.081885722672    12.000000000000
         C           -2.314678723611    -0.009522251562     0.259395722672    12.000000000000
         H            1.926051276389    -1.493587251562    -1.045505277328     1.007825032230
         H            2.100003276389     0.267520748438    -1.216010277328     1.007825032230
         H            0.020767276389    -2.411425251562    -0.342172277328     1.007825032230
         H            2.459110276389     0.505604748438     1.221442722672     1.007825032230
         H            2.282796276389    -1.252987251562     1.446041722672     1.007825032230
         H            3.665998276389    -0.604107251562     0.542123722672     1.007825032230
         H           -1.872179723611     2.094401748438     0.296167722672     1.007825032230
         H           -2.418650723611    -2.197134251562     0.149744722672     1.007825032230
         H           -3.373551723611     0.124891748438     0.469180722672     1.007825032230

  Basis Set: AUG-CC-PVTZ
    Blend: AUG-CC-PVTZ
  Basis Set: (AUG-CC-PVTZ AUX)
    Blend: AUG-CC-PVTZ-JKFIT
	 Reference Energy          =    -399.7702614399860863 [Eh]
	 Singles Energy            =      -0.0000000000000000 [Eh]
	 Same-Spin Energy          =      -0.4225136258082191 [Eh]
	 Opposite-Spin Energy      =      -1.3391187278908667 [Eh]
	 Correlation Energy        =      -1.7616323536990859 [Eh]
	 Total Energy              =    -401.5318937936851853 [Eh]

	 ================> DF-SCS-MP2 Energies <==================
	-----------------------------------------------------------
	 SCS Same-Spin Scale       =       0.3333333333333333 [-]
	 SCS Opposite-Spin Scale   =       1.2000000000000000 [-]
	 SCS Same-Spin Energy      =      -0.1408378752694064 [Eh]
	 SCS Opposite-Spin Energy  =      -1.6069424734690401 [Eh]
	 SCS Correlation Energy    =      -1.7477803487384465 [Eh]
	 SCS Total Energy          =    -401.5180417887245312 [Eh]
	-----------------------------------------------------------

  Dipole Moment: [D]
     X:    -0.6827      Y:    -3.6967      Z:     0.0232     Total:     3.7592

*** Psi4 exiting successfully. Buy a developer a beer!
