                               Psi4 1.3.2 release

  ==> Input File <==

--------------------------------------------------------------------------
#psi4
#
memory 32 gb

molecule  {
0 1
  O        0.6831730     1.9514370    -0.1851230
  N        0.3221270    -0.3206750    -0.2979720
  C        1.7580560    -0.4955670    -0.5492050
  C       -0.2555861     0.9525042    -0.0868851
  C       -0.4973450    -1.4105120    -0.1972350
  C        2.5603930    -0.4317450     0.7423750
  C       -1.5372540     1.1223260     0.1526570
  C       -1.8319680    -1.2780450     0.0712850
  C       -2.3551590     0.0280850     0.2487950
  H        1.8855710    -1.4559800    -1.0561060
  H        2.0595230     0.3051280    -1.2266110
  H       -0.0197130    -2.3738180    -0.3527730
  H        2.4186300     0.5432120     1.2108420
  H        2.2423160    -1.2153800     1.4354410
  H        3.6255180    -0.5665000     0.5315230
  H       -1.9126600     2.1320090     0.2855670
  H       -2.4591310    -2.1595270     0.1391440
  H       -3.4140320     0.1624990     0.4585800
units angstrom
no_reorient  #important for SAPT in psi4, default
symmetry c1  #important for SAPT in psi4, default
}

set PROPERTIES_ORIGIN ["COM"]
properties('MP2/aug-cc-pvtz', properties = ['dipole'])
--------------------------------------------------------------------------

    Molecular point group: c1
  Charge       = 0
  Multiplicity = 1
  Basis Set: AUG-CC-PVTZ
    Blend: AUG-CC-PVTZ
  Basis Set: (AUG-CC-PVTZ AUX)
    Blend: AUG-CC-PVTZ-JKFIT

    Orbital Energies [Eh]
    ---------------------

    Doubly Occupied:

       1A    -20.472435     2A    -15.640936     3A    -11.338269
       4A    -11.320019     5A    -11.287306     6A    -11.277281
       7A    -11.251033     8A    -11.231957     9A    -11.219917
      10A     -1.334536    11A     -1.227930    12A     -1.138763
      13A     -1.046287    14A     -1.024971    15A     -0.909813
      16A     -0.874251    17A     -0.837712    18A     -0.721579
      19A     -0.708886    20A     -0.671971    21A     -0.646981
      22A     -0.620120    23A     -0.611302    24A     -0.589900
      25A     -0.554355    26A     -0.532624    27A     -0.524633
      28A     -0.515184    29A     -0.499968    30A     -0.444787
      31A     -0.415147    32A     -0.392729    33A     -0.314281

  @DF-RHF Final Energy:  -399.72999725315310

   => Energetics <=

    Nuclear Repulsion Energy =            437.4095088450059734
    One-Electron Energy =               -1409.8832837682539321
    Two-Electron Energy =                 572.7437776700948007
    Total Energy =                       -399.7299972531531012
  Basis Set: (AUG-CC-PVTZ AUX)
    Blend: AUG-CC-PVTZ-RI
    Molecular point group: c1

    Geometry (in Angstrom), charge = 0, multiplicity = 1:

       Center              X                  Y                   Z               Mass
    ------------   -----------------  -----------------  -----------------  -----------------
         O            0.731988445157     1.919726078592    -0.176060192654    15.994914619570
         N            0.370942445157    -0.352385921408    -0.288909192654    14.003074004430
         C            1.806871445157    -0.527277921408    -0.540142192654    12.000000000000
         C           -0.206770654843     0.920793278592    -0.077822292654    12.000000000000
         C           -0.448529554843    -1.442222921408    -0.188172192654    12.000000000000
         C            2.609208445157    -0.463455921408     0.751437807346    12.000000000000
         C           -1.488438554843     1.090615078592     0.161719807346    12.000000000000
         C           -1.783152554843    -1.309755921408     0.080347807346    12.000000000000
         C           -2.306343554843    -0.003625921408     0.257857807346    12.000000000000
         H            1.934386445157    -1.487690921408    -1.047043192654     1.007825032230
         H            2.108338445157     0.273417078592    -1.217548192654     1.007825032230
         H            0.029102445157    -2.405528921408    -0.343710192654     1.007825032230
         H            2.467445445157     0.511501078592     1.219904807346     1.007825032230
         H            2.291131445157    -1.247090921408     1.444503807346     1.007825032230
         H            3.674333445157    -0.598210921408     0.540585807346     1.007825032230
         H           -1.863844554843     2.100298078592     0.294629807346     1.007825032230
         H           -2.410315554843    -2.191237921408     0.148206807346     1.007825032230
         H           -3.365216554843     0.130788078592     0.467642807346     1.007825032230

  Basis Set: AUG-CC-PVTZ
    Blend: AUG-CC-PVTZ
  Basis Set: (AUG-CC-PVTZ AUX)
    Blend: AUG-CC-PVTZ-JKFIT
	 Reference Energy          =    -399.7299972531531012 [Eh]
	 Singles Energy            =      -0.0000000000000000 [Eh]
	 Same-Spin Energy          =      -0.4271712256950944 [Eh]
	 Opposite-Spin Energy      =      -1.3451802493918823 [Eh]
	 Correlation Energy        =      -1.7723514750869767 [Eh]
	 Total Energy              =    -401.5023487282400652 [Eh]

	 ================> DF-SCS-MP2 Energies <==================
	-----------------------------------------------------------
	 SCS Same-Spin Scale       =       0.3333333333333333 [-]
	 SCS Opposite-Spin Scale   =       1.2000000000000000 [-]
	 SCS Same-Spin Energy      =      -0.1423904085650315 [Eh]
	 SCS Opposite-Spin Energy  =      -1.6142162992702587 [Eh]
	 SCS Correlation Energy    =      -1.7566067078352900 [Eh]
	 SCS Total Energy          =    -401.4866039609884183 [Eh]
	-----------------------------------------------------------

  Dipole Moment: [D]
     X:    -1.4240      Y:    -4.6866      Z:     0.1096     Total:     4.8994

*** Psi4 exiting successfully. Buy a developer a beer!
