                               Psi4 1.3.2 release

  ==> Input File <==

--------------------------------------------------------------------------
#psi4
#
memory 32 gb

molecule  {
0 1
  O        0.6831730     1.9514370    -0.1851230
  N        0.3221270    -0.3206750    -0.2979720
  C        1.7580560    -0.4955670    -0.5492050
  C       -0.1211040     1.0090560    -0.1118080
  C       -0.5000781    -1.4342127    -0.1980660
  C        2.5603930    -0.4317450     0.7423750
  C       -1.5372540     1.1223260     0.1526570
  C       -1.8319680    -1.2780450     0.0712850
  C       -2.3551590     0.0280850     0.2487950
  H        1.8855710    -1.4559800    -1.0561060
  H        2.0595230     0.3051280    -1.2266110
  H       -0.0197130    -2.3738180    -0.3527730
  H        2.4186300     0.5432120     1.2108420
  H        2.2423160    -1.2153800     1.4354410
  H        3.6255180    -0.5665000     0.5315230
  H       -1.9126600     2.1320090     0.2855670
  H       -2.4591310    -2.1595270     0.1391440
  H       -3.4140320     0.1624990     0.4585800
units angstrom
no_reorient  #important for SAPT in psi4, default
symmetry c1  #important for SAPT in psi4, default
}

set PROPERTIES_ORIGIN ["COM"]
properties('MP2/aug-cc-pvtz', properties = ['dipole'])
--------------------------------------------------------------------------

    Molecular point group: c1
  Charge       = 0
  Multiplicity = 1
  Basis Set: AUG-CC-PVTZ
    Blend: AUG-CC-PVTZ
  Basis Set: (AUG-CC-PVTZ AUX)
    Blend: AUG-CC-PVTZ-JKFIT

    Orbital Energies [Eh]
    ---------------------

    Doubly Occupied:

       1A    -20.506191     2A    -15.623768     3A    -11.349863
       4A    -11.308515     5A    -11.272330     6A    -11.271241
       7A    -11.241957     8A    -11.238714     9A    -11.220145
      10A     -1.367570    11A     -1.272795    12A     -1.118845
      13A     -1.030990    14A     -1.017615    15A     -0.895317
      16A     -0.869879    17A     -0.822708    18A     -0.714873
      19A     -0.699558    20A     -0.670542    21A     -0.638419
      22A     -0.613033    23A     -0.607477    24A     -0.605314
      25A     -0.559351    26A     -0.539380    27A     -0.529291
      28A     -0.525028    29A     -0.504248    30A     -0.473794
      31A     -0.421332    32A     -0.406310    33A     -0.310310

  @DF-RHF Final Energy:  -399.77024912608647

   => Energetics <=

    Nuclear Repulsion Energy =            436.9723448335027456
    One-Electron Energy =               -1408.9917860577811553
    Two-Electron Energy =                 572.2491920981918838
    Total Energy =                       -399.7702491260864690
  Basis Set: (AUG-CC-PVTZ AUX)
    Blend: AUG-CC-PVTZ-RI
    Molecular point group: c1

    Geometry (in Angstrom), charge = 0, multiplicity = 1:

       Center              X                  Y                   Z               Mass
    ------------   -----------------  -----------------  -----------------  -----------------
         O            0.719142029495     1.916522874883    -0.173549013789    15.994914619570
         N            0.358096029495    -0.355589125117    -0.286398013789    14.003074004430
         C            1.794025029495    -0.530481125117    -0.537631013789    12.000000000000
         C           -0.085134970505     0.974141874883    -0.100234013789    12.000000000000
         C           -0.464109070505    -1.469126825117    -0.186492013789    12.000000000000
         C            2.596362029495    -0.466659125117     0.753948986211    12.000000000000
         C           -1.501284970505     1.087411874883     0.164230986211    12.000000000000
         C           -1.795998970505    -1.312959125117     0.082858986211    12.000000000000
         C           -2.319189970505    -0.006829125117     0.260368986211    12.000000000000
         H            1.921540029495    -1.490894125117    -1.044532013789     1.007825032230
         H            2.095492029495     0.270213874883    -1.215037013789     1.007825032230
         H            0.016256029495    -2.408732125117    -0.341199013789     1.007825032230
         H            2.454599029495     0.508297874883     1.222415986211     1.007825032230
         H            2.278285029495    -1.250294125117     1.447014986211     1.007825032230
         H            3.661487029495    -0.601414125117     0.543096986211     1.007825032230
         H           -1.876690970505     2.097094874883     0.297140986211     1.007825032230
         H           -2.423161970505    -2.194441125117     0.150717986211     1.007825032230
         H           -3.378062970505     0.127584874883     0.470153986211     1.007825032230

  Basis Set: AUG-CC-PVTZ
    Blend: AUG-CC-PVTZ
  Basis Set: (AUG-CC-PVTZ AUX)
    Blend: AUG-CC-PVTZ-JKFIT
	 Reference Energy          =    -399.7702491260864690 [Eh]
	 Singles Energy            =      -0.0000000000000000 [Eh]
	 Same-Spin Energy          =      -0.4233905631101600 [Eh]
	 Opposite-Spin Energy      =      -1.3402070221046396 [Eh]
	 Correlation Energy        =      -1.7635975852147996 [Eh]
	 Total Energy              =    -401.5338467113012939 [Eh]

	 ================> DF-SCS-MP2 Energies <==================
	-----------------------------------------------------------
	 SCS Same-Spin Scale       =       0.3333333333333333 [-]
	 SCS Opposite-Spin Scale   =       1.2000000000000000 [-]
	 SCS Same-Spin Energy      =      -0.1411301877033866 [Eh]
	 SCS Opposite-Spin Energy  =      -1.6082484265255674 [Eh]
	 SCS Correlation Energy    =      -1.7493786142289540 [Eh]
	 SCS Total Energy          =    -401.5196277403153999 [Eh]
	-----------------------------------------------------------

  Dipole Moment: [D]
     X:    -0.8256      Y:    -3.8235      Z:     0.0388     Total:     3.9118

*** Psi4 exiting successfully. Buy a developer a beer!
