                               Psi4 1.4a3.dev225

  ==> Input File <==

--------------------------------------------------------------------------
#psi4
#
memory 32 gb

molecule  {
0 1
  O        0.6831730     1.9514370    -0.1851230
  N        0.3221270    -0.3206750    -0.2979720
  C        1.7580560    -0.4955670    -0.5492050
  C       -0.1211040     1.0090560    -0.1118080
  C       -0.4973450    -1.4105120    -0.1972350
  C        2.5603930    -0.4317450     0.7423750
  C       -1.5372540     1.1223260     0.1526570
  C       -1.8319680    -1.2780450     0.0712850
  C       -2.3551590     0.0280850     0.2487950
  H        1.8855710    -1.4559800    -1.0561060
  H        2.0595230     0.3051280    -1.2266110
  H       -0.0197130    -2.3738180    -0.3527730
  H        2.4186300     0.5432120     1.2108420
  H        2.2423160    -1.2153800     1.4354410
  H        3.6255180    -0.5665000     0.5315230
  H       -1.9126600     2.1320090     0.2855670
  H       -2.4302015    -2.1188664     0.1360138
  H       -3.4140320     0.1624990     0.4585800
units angstrom
no_reorient  #important for SAPT in psi4, default
symmetry c1  #important for SAPT in psi4, default
}

set PROPERTIES_ORIGIN ["COM"]
properties('MP2/aug-cc-pvtz', properties = ['dipole'])
--------------------------------------------------------------------------

    Molecular point group: c1
  Charge       = 0
  Multiplicity = 1
  Basis Set: AUG-CC-PVTZ
    Blend: AUG-CC-PVTZ
  Basis Set: (AUG-CC-PVTZ AUX)
    Blend: AUG-CC-PVTZ-JKFIT

    Orbital Energies [Eh]
    ---------------------

    Doubly Occupied:

       1A    -20.506112     2A    -15.625269     3A    -11.349705
       4A    -11.308537     5A    -11.273675     6A    -11.270136
       7A    -11.236761     8A    -11.234311     9A    -11.221060
      10A     -1.368879    11A     -1.278124    12A     -1.119584
      13A     -1.031410    14A     -1.019148    15A     -0.895635
      16A     -0.871603    17A     -0.826107    18A     -0.716903
      19A     -0.702484    20A     -0.667935    21A     -0.641206
      22A     -0.613802    23A     -0.608252    24A     -0.606451
      25A     -0.562428    26A     -0.540321    27A     -0.529595
      28A     -0.525723    29A     -0.505573    30A     -0.474739
      31A     -0.420997    32A     -0.407496    33A     -0.308630

  @DF-RHF Final Energy:  -399.77067942694924

   => Energetics <=

    Nuclear Repulsion Energy =            437.7009011602682449
    One-Electron Energy =               -1410.4059736533715750
    Two-Electron Energy =                 572.9343930661541435
    Total Energy =                       -399.7706794269491866
  Basis Set: (AUG-CC-PVTZ AUX)
    Blend: AUG-CC-PVTZ-RI
    Molecular point group: c1

    Geometry (in Angstrom), charge = 0, multiplicity = 1:

       Center              X                  Y                   Z               Mass
    ------------   -----------------  -----------------  -----------------  -----------------
         O            0.718638625963     1.913878921327    -0.173604408231    15.994914619570
         N            0.357592625963    -0.358233078673    -0.286453408231    14.003074004430
         C            1.793521625963    -0.533125078673    -0.537686408231    12.000000000000
         C           -0.085638374037     0.971497921327    -0.100289408231    12.000000000000
         C           -0.461879374037    -1.448070078673    -0.185716408231    12.000000000000
         C            2.595858625963    -0.469303078673     0.753893591769    12.000000000000
         C           -1.501788374037     1.084767921327     0.164175591769    12.000000000000
         C           -1.796502374037    -1.315603078673     0.082803591769    12.000000000000
         C           -2.319693374037    -0.009473078673     0.260313591769    12.000000000000
         H            1.921036625963    -1.493538078673    -1.044587408231     1.007825032230
         H            2.094988625963     0.267569921327    -1.215092408231     1.007825032230
         H            0.015752625963    -2.411376078673    -0.341254408231     1.007825032230
         H            2.454095625963     0.505653921327     1.222360591769     1.007825032230
         H            2.277781625963    -1.252938078673     1.446959591769     1.007825032230
         H            3.660983625963    -0.604058078673     0.543041591769     1.007825032230
         H           -1.877194374037     2.094450921327     0.297085591769     1.007825032230
         H           -2.394735874037    -2.156424478673     0.147532391769     1.007825032230
         H           -3.378566374037     0.124940921327     0.470098591769     1.007825032230

  Basis Set: AUG-CC-PVTZ
    Blend: AUG-CC-PVTZ
  Basis Set: (AUG-CC-PVTZ AUX)
    Blend: AUG-CC-PVTZ-JKFIT
	 Reference Energy          =    -399.7706794269492434 [Eh]
	 Singles Energy            =      -0.0000000000000000 [Eh]
	 Same-Spin Energy          =      -0.4233835454379431 [Eh]
	 Opposite-Spin Energy      =      -1.3395486517099031 [Eh]
	 Correlation Energy        =      -1.7629321971478462 [Eh]
	 Total Energy              =    -401.5336116240970910 [Eh]

	 ================> DF-SCS-MP2 Energies <==================
	-----------------------------------------------------------
	 SCS Same-Spin Scale       =       0.3333333333333333 [-]
	 SCS Opposite-Spin Scale   =       1.2000000000000000 [-]
	 SCS Same-Spin Energy      =      -0.1411278484793144 [Eh]
	 SCS Opposite-Spin Energy  =      -1.6074583820518837 [Eh]
	 SCS Correlation Energy    =      -1.7485862305311981 [Eh]
	 SCS Total Energy          =    -401.5192656574804460 [Eh]
	-----------------------------------------------------------

  Dipole Moment: [D]
     X:    -0.7601      Y:    -3.8205      Z:     0.0315     Total:     3.8955

*** Psi4 exiting successfully. Buy a developer a beer!
