                               Psi4 1.3.2 release

  ==> Input File <==

--------------------------------------------------------------------------
#psi4
#
memory 32 gb

molecule  {
0 1
  O        0.6831730     1.9514370    -0.1851230
  N        0.3221270    -0.3206750    -0.2979720
  C        1.7580560    -0.4955670    -0.5492050
  C       -0.1211040     1.0090560    -0.1118080
  C       -0.4973450    -1.4105120    -0.1972350
  C        2.5603930    -0.4317450     0.7423750
  C       -1.5372540     1.1223260     0.1526570
  C       -1.8319680    -1.2780450     0.0712850
  C       -2.3551590     0.0280850     0.2487950
  H        1.8855710    -1.4559800    -1.0561060
  H        2.0595230     0.3051280    -1.2266110
  H       -0.0197130    -2.3738180    -0.3527730
  H        2.4186300     0.5432120     1.2108420
  H        2.2423160    -1.2153800     1.4354410
  H        3.6255180    -0.5665000     0.5315230
  H       -1.9126600     2.1320090     0.2855670
  H       -2.5169900    -2.2408482     0.1454043
  H       -3.4140320     0.1624990     0.4585800
units angstrom
no_reorient  #important for SAPT in psi4, default
symmetry c1  #important for SAPT in psi4, default
}

set PROPERTIES_ORIGIN ["COM"]
properties('MP2/aug-cc-pvtz', properties = ['dipole'])
--------------------------------------------------------------------------

    Molecular point group: c1
  Charge       = 0
  Multiplicity = 1
  Basis Set: AUG-CC-PVTZ
    Blend: AUG-CC-PVTZ
  Basis Set: (AUG-CC-PVTZ AUX)
    Blend: AUG-CC-PVTZ-JKFIT

    Orbital Energies [Eh]
    ---------------------

    Doubly Occupied:

       1A    -20.506532     2A    -15.626013     3A    -11.350245
       4A    -11.309619     5A    -11.274124     6A    -11.271674
       7A    -11.251163     8A    -11.237756     9A    -11.221323
      10A     -1.369393    11A     -1.278749    12A     -1.118655
      13A     -1.031538    14A     -1.016298    15A     -0.895783
      16A     -0.868721    17A     -0.823001    18A     -0.712068
      19A     -0.696118    20A     -0.666577    21A     -0.637871
      22A     -0.614321    23A     -0.607548    24A     -0.601053
      25A     -0.556952    26A     -0.532562    27A     -0.529973
      28A     -0.525989    29A     -0.505458    30A     -0.475395
      31A     -0.421504    32A     -0.408307    33A     -0.309206

  @DF-RHF Final Energy:  -399.76407991329336

   => Energetics <=

    Nuclear Repulsion Energy =            436.9477134988876514
    One-Electron Energy =               -1408.9206042011180671
    Two-Electron Energy =                 572.2088107889370576
    Total Energy =                       -399.7640799132933580
  Basis Set: (AUG-CC-PVTZ AUX)
    Blend: AUG-CC-PVTZ-RI
    Molecular point group: c1

    Geometry (in Angstrom), charge = 0, multiplicity = 1:

       Center              X                  Y                   Z               Mass
    ------------   -----------------  -----------------  -----------------  -----------------
         O            0.719349349535     1.914877847921    -0.173681308393    15.994914619570
         N            0.358303349535    -0.357234152079    -0.286530308393    14.003074004430
         C            1.794232349535    -0.532126152079    -0.537763308393    12.000000000000
         C           -0.084927650465     0.972496847921    -0.100366308393    12.000000000000
         C           -0.461168650465    -1.447071152079    -0.185793308393    12.000000000000
         C            2.596569349535    -0.468304152079     0.753816691607    12.000000000000
         C           -1.501077650465     1.085766847921     0.164098691607    12.000000000000
         C           -1.795791650465    -1.314604152079     0.082726691607    12.000000000000
         C           -2.318982650465    -0.008474152079     0.260236691607    12.000000000000
         H            1.921747349535    -1.492539152079    -1.044664308393     1.007825032230
         H            2.095699349535     0.268568847921    -1.215169308393     1.007825032230
         H            0.016463349535    -2.410377152079    -0.341331308393     1.007825032230
         H            2.454806349535     0.506652847921     1.222283691607     1.007825032230
         H            2.278492349535    -1.251939152079     1.446882691607     1.007825032230
         H            3.661694349535    -0.603059152079     0.542964691607     1.007825032230
         H           -1.876483650465     2.095449847921     0.297008691607     1.007825032230
         H           -2.480813650465    -2.277407352079     0.156845991607     1.007825032230
         H           -3.377855650465     0.125939847921     0.470021691607     1.007825032230

  Basis Set: AUG-CC-PVTZ
    Blend: AUG-CC-PVTZ
  Basis Set: (AUG-CC-PVTZ AUX)
    Blend: AUG-CC-PVTZ-JKFIT
	 Reference Energy          =    -399.7640799132933580 [Eh]
	 Singles Energy            =      -0.0000000000000000 [Eh]
	 Same-Spin Energy          =      -0.4236404969560190 [Eh]
	 Opposite-Spin Energy      =      -1.3407182607328889 [Eh]
	 Correlation Energy        =      -1.7643587576889079 [Eh]
	 Total Energy              =    -401.5284386709822684 [Eh]

	 ================> DF-SCS-MP2 Energies <==================
	-----------------------------------------------------------
	 SCS Same-Spin Scale       =       0.3333333333333333 [-]
	 SCS Opposite-Spin Scale   =       1.2000000000000000 [-]
	 SCS Same-Spin Energy      =      -0.1412134989853397 [Eh]
	 SCS Opposite-Spin Energy  =      -1.6088619128794666 [Eh]
	 SCS Correlation Energy    =      -1.7500754118648063 [Eh]
	 SCS Total Energy          =    -401.5141553251581854 [Eh]
	-----------------------------------------------------------

  Dipole Moment: [D]
     X:    -0.7482      Y:    -3.7897      Z:     0.0325     Total:     3.8629

*** Psi4 exiting successfully. Buy a developer a beer!
