                               Psi4 1.4a3.dev225

  ==> Input File <==

--------------------------------------------------------------------------
#psi4
#
memory 32 gb

molecule  {
0 1
  O        0.6831730     1.9514370    -0.1851230
  N        0.3221270    -0.3206750    -0.2979720
  C        1.8069572    -0.5015230    -0.5577608
  C       -0.1211040     1.0090560    -0.1118080
  C       -0.4973450    -1.4105120    -0.1972350
  C        2.5603930    -0.4317450     0.7423750
  C       -1.5372540     1.1223260     0.1526570
  C       -1.8319680    -1.2780450     0.0712850
  C       -2.3551590     0.0280850     0.2487950
  H        1.8855710    -1.4559800    -1.0561060
  H        2.0595230     0.3051280    -1.2266110
  H       -0.0197130    -2.3738180    -0.3527730
  H        2.4186300     0.5432120     1.2108420
  H        2.2423160    -1.2153800     1.4354410
  H        3.6255180    -0.5665000     0.5315230
  H       -1.9126600     2.1320090     0.2855670
  H       -2.4591310    -2.1595270     0.1391440
  H       -3.4140320     0.1624990     0.4585800
units angstrom
no_reorient  #important for SAPT in psi4, default
symmetry c1  #important for SAPT in psi4, default
}

set PROPERTIES_ORIGIN ["COM"]
properties('MP2/aug-cc-pvtz', properties = ['dipole'])
--------------------------------------------------------------------------

    Molecular point group: c1
  Charge       = 0
  Multiplicity = 1
  Basis Set: AUG-CC-PVTZ
    Blend: AUG-CC-PVTZ
  Basis Set: (AUG-CC-PVTZ AUX)
    Blend: AUG-CC-PVTZ-JKFIT

    Orbital Energies [Eh]
    ---------------------

    Doubly Occupied:

       1A    -20.504230     2A    -15.623105     3A    -11.347957
       4A    -11.307349     5A    -11.276491     6A    -11.269111
       7A    -11.238393     8A    -11.235423     9A    -11.222442
      10A     -1.365328    11A     -1.271077    12A     -1.115626
      13A     -1.033595    14A     -1.019074    15A     -0.892144
      16A     -0.867556    17A     -0.825889    18A     -0.712028
      19A     -0.698332    20A     -0.663351    21A     -0.637605
      22A     -0.614337    23A     -0.609807    24A     -0.602527
      25A     -0.559974    26A     -0.537699    27A     -0.536534
      28A     -0.519683    29A     -0.511608    30A     -0.474487
      31A     -0.418718    32A     -0.407827    33A     -0.307163

  @DF-RHF Final Energy:  -399.76939617594996

   => Energetics <=

    Nuclear Repulsion Energy =            436.6134321589242404
    One-Electron Energy =               -1408.3127197939654707
    Two-Electron Energy =                 571.9298914590912091
    Total Energy =                       -399.7693961759499643
  Basis Set: (AUG-CC-PVTZ AUX)
    Blend: AUG-CC-PVTZ-RI
    Molecular point group: c1

    Geometry (in Angstrom), charge = 0, multiplicity = 1:

       Center              X                  Y                   Z               Mass
    ------------   -----------------  -----------------  -----------------  -----------------
         O            0.714107337162     1.914792647010    -0.172795793714    15.994914619570
         N            0.353061337162    -0.357319352990    -0.285644793714    14.003074004430
         C            1.837891537162    -0.538167352990    -0.545433593714    12.000000000000
         C           -0.090169662838     0.972411647010    -0.099480793714    12.000000000000
         C           -0.466410662838    -1.447156352990    -0.184907793714    12.000000000000
         C            2.591327337162    -0.468389352990     0.754702206286    12.000000000000
         C           -1.506319662838     1.085681647010     0.164984206286    12.000000000000
         C           -1.801033662838    -1.314689352990     0.083612206286    12.000000000000
         C           -2.324224662838    -0.008559352990     0.261122206286    12.000000000000
         H            1.916505337162    -1.492624352990    -1.043778793714     1.007825032230
         H            2.090457337162     0.268483647010    -1.214283793714     1.007825032230
         H            0.011221337162    -2.410462352990    -0.340445793714     1.007825032230
         H            2.449564337162     0.506567647010     1.223169206286     1.007825032230
         H            2.273250337162    -1.252024352990     1.447768206286     1.007825032230
         H            3.656452337162    -0.603144352990     0.543850206286     1.007825032230
         H           -1.881725662838     2.095364647010     0.297894206286     1.007825032230
         H           -2.428196662838    -2.196171352990     0.151471206286     1.007825032230
         H           -3.383097662838     0.125854647010     0.470907206286     1.007825032230

  Basis Set: AUG-CC-PVTZ
    Blend: AUG-CC-PVTZ
  Basis Set: (AUG-CC-PVTZ AUX)
    Blend: AUG-CC-PVTZ-JKFIT
	 Reference Energy          =    -399.7693961759499643 [Eh]
	 Singles Energy            =      -0.0000000000000000 [Eh]
	 Same-Spin Energy          =      -0.4233952513163038 [Eh]
	 Opposite-Spin Energy      =      -1.3399593450447453 [Eh]
	 Correlation Energy        =      -1.7633545963610491 [Eh]
	 Total Energy              =    -401.5327507723110330 [Eh]

	 ================> DF-SCS-MP2 Energies <==================
	-----------------------------------------------------------
	 SCS Same-Spin Scale       =       0.3333333333333333 [-]
	 SCS Opposite-Spin Scale   =       1.2000000000000000 [-]
	 SCS Same-Spin Energy      =      -0.1411317504387679 [Eh]
	 SCS Opposite-Spin Energy  =      -1.6079512140536945 [Eh]
	 SCS Correlation Energy    =      -1.7490829644924624 [Eh]
	 SCS Total Energy          =    -401.5184791404424232 [Eh]
	-----------------------------------------------------------

  Dipole Moment: [D]
     X:    -0.5998      Y:    -3.8559      Z:     0.0269     Total:     3.9024

*** Psi4 exiting successfully. Buy a developer a beer!
