                               Psi4 1.3.2 release

  ==> Input File <==

--------------------------------------------------------------------------
#psi4
#
memory 32 gb

molecule  {
0 1
  O        0.6831730     1.9514370    -0.1851230
  N        0.3221270    -0.3206750    -0.2979720
  C        1.7580560    -0.4955670    -0.5492050
  C       -0.1211040     1.0090560    -0.1118080
  C       -0.6172148    -1.5699300    -0.1824995
  C        2.5603930    -0.4317450     0.7423750
  C       -1.5372540     1.1223260     0.1526570
  C       -1.8319680    -1.2780450     0.0712850
  C       -2.3551590     0.0280850     0.2487950
  H        1.8855710    -1.4559800    -1.0561060
  H        2.0595230     0.3051280    -1.2266110
  H       -0.0197130    -2.3738180    -0.3527730
  H        2.4186300     0.5432120     1.2108420
  H        2.2423160    -1.2153800     1.4354410
  H        3.6255180    -0.5665000     0.5315230
  H       -1.9126600     2.1320090     0.2855670
  H       -2.4591310    -2.1595270     0.1391440
  H       -3.4140320     0.1624990     0.4585800
units angstrom
no_reorient  #important for SAPT in psi4, default
symmetry c1  #important for SAPT in psi4, default
}

set PROPERTIES_ORIGIN ["COM"]
properties('MP2/aug-cc-pvtz', properties = ['dipole'])
--------------------------------------------------------------------------

    Molecular point group: c1
  Charge       = 0
  Multiplicity = 1
  Basis Set: AUG-CC-PVTZ
    Blend: AUG-CC-PVTZ
  Basis Set: (AUG-CC-PVTZ AUX)
    Blend: AUG-CC-PVTZ-JKFIT

    Orbital Energies [Eh]
    ---------------------

    Doubly Occupied:

       1A    -20.505943     2A    -15.602182     3A    -11.346820
       4A    -11.301497     5A    -11.276171     6A    -11.261630
       7A    -11.251262     8A    -11.245923     9A    -11.212074
      10A     -1.359758    11A     -1.233805    12A     -1.127133
      13A     -1.046293    14A     -1.007101    15A     -0.896238
      16A     -0.859442    17A     -0.811662    18A     -0.715549
      19A     -0.698876    20A     -0.680703    21A     -0.624469
      22A     -0.618263    23A     -0.601917    24A     -0.594997
      25A     -0.558115    26A     -0.540331    27A     -0.520941
      28A     -0.510801    29A     -0.491633    30A     -0.476551
      31A     -0.419003    32A     -0.390611    33A     -0.333615

  @DF-RHF Final Energy:  -399.73218581735375

   => Energetics <=

    Nuclear Repulsion Energy =            434.5604345078312463
    One-Electron Energy =               -1404.3426271998432640
    Two-Electron Energy =                 570.0500068746582656
    Total Energy =                       -399.7321858173537521
  Basis Set: (AUG-CC-PVTZ AUX)
    Blend: AUG-CC-PVTZ-RI
    Molecular point group: c1

    Geometry (in Angstrom), charge = 0, multiplicity = 1:

       Center              X                  Y                   Z               Mass
    ------------   -----------------  -----------------  -----------------  -----------------
         O            0.730563647401     1.929756226546    -0.175066852478    15.994914619570
         N            0.369517647401    -0.342355773454    -0.287915852478    14.003074004430
         C            1.805446647401    -0.517247773454    -0.539148852478    12.000000000000
         C           -0.073713352599     0.987375226546    -0.101751852478    12.000000000000
         C           -0.569824152599    -1.591610773454    -0.172443352478    12.000000000000
         C            2.607783647401    -0.453425773454     0.752431147522    12.000000000000
         C           -1.489863352599     1.100645226546     0.162713147522    12.000000000000
         C           -1.784577352599    -1.299725773454     0.081341147522    12.000000000000
         C           -2.307768352599     0.006404226546     0.258851147522    12.000000000000
         H            1.932961647401    -1.477660773454    -1.046049852478     1.007825032230
         H            2.106913647401     0.283447226546    -1.216554852478     1.007825032230
         H            0.027677647401    -2.395498773454    -0.342716852478     1.007825032230
         H            2.466020647401     0.521531226546     1.220898147522     1.007825032230
         H            2.289706647401    -1.237060773454     1.445497147522     1.007825032230
         H            3.672908647401    -0.588180773454     0.541579147522     1.007825032230
         H           -1.865269352599     2.110328226546     0.295623147522     1.007825032230
         H           -2.411740352599    -2.181207773454     0.149200147522     1.007825032230
         H           -3.366641352599     0.140818226546     0.468636147522     1.007825032230

  Basis Set: AUG-CC-PVTZ
    Blend: AUG-CC-PVTZ
  Basis Set: (AUG-CC-PVTZ AUX)
    Blend: AUG-CC-PVTZ-JKFIT
	 Reference Energy          =    -399.7321858173537521 [Eh]
	 Singles Energy            =      -0.0000000000000000 [Eh]
	 Same-Spin Energy          =      -0.4218797024204456 [Eh]
	 Opposite-Spin Energy      =      -1.3419369503401706 [Eh]
	 Correlation Energy        =      -1.7638166527606161 [Eh]
	 Total Energy              =    -401.4960024701143766 [Eh]

	 ================> DF-SCS-MP2 Energies <==================
	-----------------------------------------------------------
	 SCS Same-Spin Scale       =       0.3333333333333333 [-]
	 SCS Opposite-Spin Scale   =       1.2000000000000000 [-]
	 SCS Same-Spin Energy      =      -0.1406265674734818 [Eh]
	 SCS Opposite-Spin Energy  =      -1.6103243404082046 [Eh]
	 SCS Correlation Energy    =      -1.7509509078816865 [Eh]
	 SCS Total Energy          =    -401.4831367252354539 [Eh]
	-----------------------------------------------------------

  Dipole Moment: [D]
     X:    -1.4326      Y:    -3.9385      Z:     0.1086     Total:     4.1924

*** Psi4 exiting successfully. Buy a developer a beer!
