                               Psi4 1.3.2 release

  ==> Input File <==

--------------------------------------------------------------------------
#psi4
#
memory 32 gb

molecule  {
0 1
  O        0.6831730     1.9514370    -0.1851230
  N        0.3443840    -0.2306712    -0.2543166
  C        1.7580560    -0.4955670    -0.5492050
  C       -0.1211040     1.0090560    -0.1118080
  C       -0.4973450    -1.4105120    -0.1972350
  C        2.5603930    -0.4317450     0.7423750
  C       -1.5372540     1.1223260     0.1526570
  C       -1.8319680    -1.2780450     0.0712850
  C       -2.3551590     0.0280850     0.2487950
  H        1.8855710    -1.4559800    -1.0561060
  H        2.0595230     0.3051280    -1.2266110
  H       -0.0197130    -2.3738180    -0.3527730
  H        2.4186300     0.5432120     1.2108420
  H        2.2423160    -1.2153800     1.4354410
  H        3.6255180    -0.5665000     0.5315230
  H       -1.9126600     2.1320090     0.2855670
  H       -2.4591310    -2.1595270     0.1391440
  H       -3.4140320     0.1624990     0.4585800
units angstrom
no_reorient  #important for SAPT in psi4, default
symmetry c1  #important for SAPT in psi4, default
}

set PROPERTIES_ORIGIN ["COM"]
properties('MP2/aug-cc-pvtz', properties = ['dipole'])
--------------------------------------------------------------------------

    Molecular point group: c1
  Charge       = 0
  Multiplicity = 1
  Basis Set: AUG-CC-PVTZ
    Blend: AUG-CC-PVTZ
  Basis Set: (AUG-CC-PVTZ AUX)
    Blend: AUG-CC-PVTZ-JKFIT

    Orbital Energies [Eh]
    ---------------------

    Doubly Occupied:

       1A    -20.492589     2A    -15.622146     3A    -11.337845
       4A    -11.312641     5A    -11.272349     6A    -11.270726
       7A    -11.249791     8A    -11.242250     9A    -11.218639
      10A     -1.371596    11A     -1.263777    12A     -1.122156
      13A     -1.029902    14A     -1.023011    15A     -0.894804
      16A     -0.877528    17A     -0.814475    18A     -0.715642
      19A     -0.701546    20A     -0.674584    21A     -0.636652
      22A     -0.614381    23A     -0.607412    24A     -0.603856
      25A     -0.556345    26A     -0.541929    27A     -0.526889
      28A     -0.520686    29A     -0.501928    30A     -0.466633
      31A     -0.415865    32A     -0.404059    33A     -0.316847

  @DF-RHF Final Energy:  -399.76218128930623

   => Energetics <=

    Nuclear Repulsion Energy =            438.0535409022113527
    One-Electron Energy =               -1411.1884820136669987
    Two-Electron Energy =                 573.3727598221494191
    Total Energy =                       -399.7621812893062270
  Basis Set: (AUG-CC-PVTZ AUX)
    Blend: AUG-CC-PVTZ-RI
    Molecular point group: c1

    Geometry (in Angstrom), charge = 0, multiplicity = 1:

       Center              X                  Y                   Z               Mass
    ------------   -----------------  -----------------  -----------------  -----------------
         O            0.716343069086     1.903971008624    -0.178597277410    15.994914619570
         N            0.377554069086    -0.278137191376    -0.247790877410    14.003074004430
         C            1.791226069086    -0.543032991376    -0.542679277410    12.000000000000
         C           -0.087933930914     0.961590008624    -0.105282277410    12.000000000000
         C           -0.464174930914    -1.457977991376    -0.190709277410    12.000000000000
         C            2.593563069086    -0.479210991376     0.748900722590    12.000000000000
         C           -1.504083930914     1.074860008624     0.159182722590    12.000000000000
         C           -1.798797930914    -1.325510991376     0.077810722590    12.000000000000
         C           -2.321988930914    -0.019380991376     0.255320722590    12.000000000000
         H            1.918741069086    -1.503445991376    -1.049580277410     1.007825032230
         H            2.092693069086     0.257662008624    -1.220085277410     1.007825032230
         H            0.013457069086    -2.421283991376    -0.346247277410     1.007825032230
         H            2.451800069086     0.495746008624     1.217367722590     1.007825032230
         H            2.275486069086    -1.262845991376     1.441966722590     1.007825032230
         H            3.658688069086    -0.613965991376     0.538048722590     1.007825032230
         H           -1.879489930914     2.084543008624     0.292092722590     1.007825032230
         H           -2.425960930914    -2.206992991376     0.145669722590     1.007825032230
         H           -3.380861930914     0.115033008624     0.465105722590     1.007825032230

  Basis Set: AUG-CC-PVTZ
    Blend: AUG-CC-PVTZ
  Basis Set: (AUG-CC-PVTZ AUX)
    Blend: AUG-CC-PVTZ-JKFIT
	 Reference Energy          =    -399.7621812893062270 [Eh]
	 Singles Energy            =      -0.0000000000000000 [Eh]
	 Same-Spin Energy          =      -0.4223875798338578 [Eh]
	 Opposite-Spin Energy      =      -1.3397737431460370 [Eh]
	 Correlation Energy        =      -1.7621613229798947 [Eh]
	 Total Energy              =    -401.5243426122861479 [Eh]

	 ================> DF-SCS-MP2 Energies <==================
	-----------------------------------------------------------
	 SCS Same-Spin Scale       =       0.3333333333333333 [-]
	 SCS Opposite-Spin Scale   =       1.2000000000000000 [-]
	 SCS Same-Spin Energy      =      -0.1407958599446192 [Eh]
	 SCS Opposite-Spin Energy  =      -1.6077284917752444 [Eh]
	 SCS Correlation Energy    =      -1.7485243517198636 [Eh]
	 SCS Total Energy          =    -401.5107056410261066 [Eh]
	-----------------------------------------------------------

  Dipole Moment: [D]
     X:    -1.0701      Y:    -4.1472      Z:     0.0233     Total:     4.2831

*** Psi4 exiting successfully. Buy a developer a beer!
