                               Psi4 1.3.2 release

  ==> Input File <==

--------------------------------------------------------------------------
#psi4
#
memory 32 gb

molecule  {
0 1
  O        0.6831730     1.9514370    -0.1851230
  N        0.3221270    -0.3206750    -0.2979720
  C        1.7580560    -0.4955670    -0.5492050
  C       -0.1211040     1.0090560    -0.1118080
  C       -0.4973450    -1.4105120    -0.1972350
  C        2.5603930    -0.4317450     0.7423750
  C       -1.5372540     1.1223260     0.1526570
  C       -1.8319680    -1.2780450     0.0712850
  C       -2.2392010    -0.0516087     0.2213753
  H        1.8855710    -1.4559800    -1.0561060
  H        2.0595230     0.3051280    -1.2266110
  H       -0.0197130    -2.3738180    -0.3527730
  H        2.4186300     0.5432120     1.2108420
  H        2.2423160    -1.2153800     1.4354410
  H        3.6255180    -0.5665000     0.5315230
  H       -1.9126600     2.1320090     0.2855670
  H       -2.4591310    -2.1595270     0.1391440
  H       -3.4140320     0.1624990     0.4585800
units angstrom
no_reorient  #important for SAPT in psi4, default
symmetry c1  #important for SAPT in psi4, default
}

set PROPERTIES_ORIGIN ["COM"]
properties('MP2/aug-cc-pvtz', properties = ['dipole'])
--------------------------------------------------------------------------

    Molecular point group: c1
  Charge       = 0
  Multiplicity = 1
  Basis Set: AUG-CC-PVTZ
    Blend: AUG-CC-PVTZ
  Basis Set: (AUG-CC-PVTZ AUX)
    Blend: AUG-CC-PVTZ-JKFIT

    Orbital Energies [Eh]
    ---------------------

    Doubly Occupied:

       1A    -20.499418     2A    -15.632271     3A    -11.343297
       4A    -11.317166     5A    -11.276323     6A    -11.267544
       7A    -11.232246     8A    -11.231896     9A    -11.222832
      10A     -1.367041    11A     -1.282356    12A     -1.138425
      13A     -1.030553    14A     -1.026493    15A     -0.900137
      16A     -0.874467    17A     -0.817955    18A     -0.720965
      19A     -0.707645    20A     -0.660006    21A     -0.642884
      22A     -0.614982    23A     -0.608912    24A     -0.601860
      25A     -0.560828    26A     -0.543207    27A     -0.529308
      28A     -0.511332    29A     -0.507899    30A     -0.480613
      31A     -0.416797    32A     -0.410434    33A     -0.306566

  @DF-RHF Final Energy:  -399.74389519069160

   => Energetics <=

    Nuclear Repulsion Energy =            439.9450678118576548
    One-Electron Energy =               -1414.8086149871157886
    Two-Electron Energy =                 575.1196519845666444
    Total Energy =                       -399.7438951906915463
  Basis Set: (AUG-CC-PVTZ AUX)
    Blend: AUG-CC-PVTZ-RI
    Molecular point group: c1

    Geometry (in Angstrom), charge = 0, multiplicity = 1:

       Center              X                  Y                   Z               Mass
    ------------   -----------------  -----------------  -----------------  -----------------
         O            0.707568847110     1.921982569849    -0.170956436296    15.994914619570
         N            0.346522847110    -0.350129430151    -0.283805436296    14.003074004430
         C            1.782451847110    -0.525021430151    -0.535038436296    12.000000000000
         C           -0.096708152890     0.979601569849    -0.097641436296    12.000000000000
         C           -0.472949152890    -1.439966430151    -0.183068436296    12.000000000000
         C            2.584788847110    -0.461199430151     0.756541563704    12.000000000000
         C           -1.512858152890     1.092871569849     0.166823563704    12.000000000000
         C           -1.807572152890    -1.307499430151     0.085451563704    12.000000000000
         C           -2.214805152890    -0.081063130151     0.235541863704    12.000000000000
         H            1.909966847110    -1.485434430151    -1.041939436296     1.007825032230
         H            2.083918847110     0.275673569849    -1.212444436296     1.007825032230
         H            0.004682847110    -2.403272430151    -0.338606436296     1.007825032230
         H            2.443025847110     0.513757569849     1.225008563704     1.007825032230
         H            2.266711847110    -1.244834430151     1.449607563704     1.007825032230
         H            3.649913847110    -0.595954430151     0.545689563704     1.007825032230
         H           -1.888264152890     2.102554569849     0.299733563704     1.007825032230
         H           -2.434735152890    -2.188981430151     0.153310563704     1.007825032230
         H           -3.389636152890     0.133044569849     0.472746563704     1.007825032230

  Basis Set: AUG-CC-PVTZ
    Blend: AUG-CC-PVTZ
  Basis Set: (AUG-CC-PVTZ AUX)
    Blend: AUG-CC-PVTZ-JKFIT
	 Reference Energy          =    -399.7438951906916031 [Eh]
	 Singles Energy            =      -0.0000000000000000 [Eh]
	 Same-Spin Energy          =      -0.4254865260290807 [Eh]
	 Opposite-Spin Energy      =      -1.3414117036094326 [Eh]
	 Correlation Energy        =      -1.7668982296385134 [Eh]
	 Total Energy              =    -401.5107934203301170 [Eh]

	 ================> DF-SCS-MP2 Energies <==================
	-----------------------------------------------------------
	 SCS Same-Spin Scale       =       0.3333333333333333 [-]
	 SCS Opposite-Spin Scale   =       1.2000000000000000 [-]
	 SCS Same-Spin Energy      =      -0.1418288420096936 [Eh]
	 SCS Opposite-Spin Energy  =      -1.6096940443313190 [Eh]
	 SCS Correlation Energy    =      -1.7515228863410126 [Eh]
	 SCS Total Energy          =    -401.4954180770326388 [Eh]
	-----------------------------------------------------------

  Dipole Moment: [D]
     X:    -0.5752      Y:    -4.0385      Z:    -0.0103     Total:     4.0792

*** Psi4 exiting successfully. Buy a developer a beer!
