                               Psi4 1.4a3.dev225

  ==> Input File <==

--------------------------------------------------------------------------
#psi4
#
memory 32 gb

molecule  {
0 1
  O        0.6831730     1.9514370    -0.1851230
  N        0.3221270    -0.3206750    -0.2979720
  C        1.7580560    -0.4955670    -0.5492050
  C       -0.1340648     0.9938697    -0.1106265
  C       -0.4973450    -1.4105120    -0.1972350
  C        2.5603930    -0.4317450     0.7423750
  C       -1.5372540     1.1223260     0.1526570
  C       -1.8319680    -1.2780450     0.0712850
  C       -2.3551590     0.0280850     0.2487950
  H        1.8855710    -1.4559800    -1.0561060
  H        2.0595230     0.3051280    -1.2266110
  H       -0.0197130    -2.3738180    -0.3527730
  H        2.4186300     0.5432120     1.2108420
  H        2.2423160    -1.2153800     1.4354410
  H        3.6255180    -0.5665000     0.5315230
  H       -1.9126600     2.1320090     0.2855670
  H       -2.4591310    -2.1595270     0.1391440
  H       -3.4140320     0.1624990     0.4585800
units angstrom
no_reorient  #important for SAPT in psi4, default
symmetry c1  #important for SAPT in psi4, default
}

set PROPERTIES_ORIGIN ["COM"]
properties('MP2/aug-cc-pvtz', properties = ['dipole'])
--------------------------------------------------------------------------

    Molecular point group: c1
  Charge       = 0
  Multiplicity = 1
  Basis Set: AUG-CC-PVTZ
    Blend: AUG-CC-PVTZ
  Basis Set: (AUG-CC-PVTZ AUX)
    Blend: AUG-CC-PVTZ-JKFIT

    Orbital Energies [Eh]
    ---------------------

    Doubly Occupied:

       1A    -20.501062     2A    -15.628155     3A    -11.348659
       4A    -11.310136     5A    -11.274627     6A    -11.272087
       7A    -11.242110     8A    -11.237586     9A    -11.221192
      10A     -1.360214    11A     -1.275031    12A     -1.121385
      13A     -1.032795    14A     -1.020148    15A     -0.897186
      16A     -0.872902    17A     -0.826230    18A     -0.715854
      19A     -0.701021    20A     -0.667829    21A     -0.640894
      22A     -0.615003    23A     -0.608447    24A     -0.600800
      25A     -0.558505    26A     -0.538627    27A     -0.528582
      28A     -0.525313    29A     -0.505866    30A     -0.469969
      31A     -0.418451    32A     -0.408961    33A     -0.309921

  @DF-RHF Final Energy:  -399.76977419126570

   => Energetics <=

    Nuclear Repulsion Energy =            437.4839281920600911
    One-Electron Energy =               -1409.9963099608173707
    Two-Electron Energy =                 572.7426075774915262
    Total Energy =                       -399.7697741912656966
  Basis Set: (AUG-CC-PVTZ AUX)
    Blend: AUG-CC-PVTZ-RI
    Molecular point group: c1

    Geometry (in Angstrom), charge = 0, multiplicity = 1:

       Center              X                  Y                   Z               Mass
    ------------   -----------------  -----------------  -----------------  -----------------
         O            0.720139299193     1.915692663484    -0.173745246106    15.994914619570
         N            0.359093299193    -0.356419336516    -0.286594246106    14.003074004430
         C            1.795022299193    -0.531311336516    -0.537827246106    12.000000000000
         C           -0.097098500807     0.958125363484    -0.099248746106    12.000000000000
         C           -0.460378700807    -1.446256336516    -0.185857246106    12.000000000000
         C            2.597359299193    -0.467489336516     0.753752753894    12.000000000000
         C           -1.500287700807     1.086581663484     0.164034753894    12.000000000000
         C           -1.795001700807    -1.313789336516     0.082662753894    12.000000000000
         C           -2.318192700807    -0.007659336516     0.260172753894    12.000000000000
         H            1.922537299193    -1.491724336516    -1.044728246106     1.007825032230
         H            2.096489299193     0.269383663484    -1.215233246106     1.007825032230
         H            0.017253299193    -2.409562336516    -0.341395246106     1.007825032230
         H            2.455596299193     0.507467663484     1.222219753894     1.007825032230
         H            2.279282299193    -1.251124336516     1.446818753894     1.007825032230
         H            3.662484299193    -0.602244336516     0.542900753894     1.007825032230
         H           -1.875693700807     2.096264663484     0.296944753894     1.007825032230
         H           -2.422164700807    -2.195271336516     0.150521753894     1.007825032230
         H           -3.377065700807     0.126754663484     0.469957753894     1.007825032230

  Basis Set: AUG-CC-PVTZ
    Blend: AUG-CC-PVTZ
  Basis Set: (AUG-CC-PVTZ AUX)
    Blend: AUG-CC-PVTZ-JKFIT
	 Reference Energy          =    -399.7697741912656966 [Eh]
	 Singles Energy            =      -0.0000000000000000 [Eh]
	 Same-Spin Energy          =      -0.4238652140830291 [Eh]
	 Opposite-Spin Energy      =      -1.3404595529337544 [Eh]
	 Correlation Energy        =      -1.7643247670167834 [Eh]
	 Total Energy              =    -401.5340989582824704 [Eh]

	 ================> DF-SCS-MP2 Energies <==================
	-----------------------------------------------------------
	 SCS Same-Spin Scale       =       0.3333333333333333 [-]
	 SCS Opposite-Spin Scale   =       1.2000000000000000 [-]
	 SCS Same-Spin Energy      =      -0.1412884046943430 [Eh]
	 SCS Opposite-Spin Energy  =      -1.6085514635205052 [Eh]
	 SCS Correlation Energy    =      -1.7498398682148482 [Eh]
	 SCS Total Energy          =    -401.5196140594805456 [Eh]
	-----------------------------------------------------------

  Dipole Moment: [D]
     X:    -0.8553      Y:    -3.9608      Z:     0.0418     Total:     4.0523

*** Psi4 exiting successfully. Buy a developer a beer!
