                               Psi4 1.4a3.dev225

  ==> Input File <==

--------------------------------------------------------------------------
#psi4
#
memory 32 gb

molecule  {
0 1
  O        0.6831730     1.9514370    -0.1851230
  N        0.3221270    -0.3206750    -0.2979720
  C        1.7580560    -0.4955670    -0.5492050
  C       -0.1211040     1.0090560    -0.1118080
  C       -0.4973450    -1.4105120    -0.1972350
  C        2.5603930    -0.4317450     0.7423750
  C       -1.5372540     1.1223260     0.1526570
  C       -1.8319680    -1.2780450     0.0712850
  C       -2.3551590     0.0280850     0.2487950
  H        1.8855710    -1.4559800    -1.0561060
  H        2.0595230     0.3051280    -1.2266110
  H       -0.0197130    -2.3738180    -0.3527730
  H        2.4186300     0.5432120     1.2108420
  H        2.2423160    -1.2153800     1.4354410
  H        3.6255180    -0.5665000     0.5315230
  H       -1.9057425     2.1134039     0.2831179
  H       -2.4591310    -2.1595270     0.1391440
  H       -3.4140320     0.1624990     0.4585800
units angstrom
no_reorient  #important for SAPT in psi4, default
symmetry c1  #important for SAPT in psi4, default
}

set PROPERTIES_ORIGIN ["COM"]
properties('MP2/aug-cc-pvtz', properties = ['dipole'])
--------------------------------------------------------------------------

    Molecular point group: c1
  Charge       = 0
  Multiplicity = 1
  Basis Set: AUG-CC-PVTZ
    Blend: AUG-CC-PVTZ
  Basis Set: (AUG-CC-PVTZ AUX)
    Blend: AUG-CC-PVTZ-JKFIT

    Orbital Energies [Eh]
    ---------------------

    Doubly Occupied:

       1A    -20.506220     2A    -15.625362     3A    -11.349693
       4A    -11.308792     5A    -11.273744     6A    -11.270495
       7A    -11.240036     8A    -11.234822     9A    -11.221101
      10A     -1.368998    11A     -1.278229    12A     -1.119222
      13A     -1.031728    14A     -1.018040    15A     -0.895700
      16A     -0.871191    17A     -0.824958    18A     -0.715018
      19A     -0.700422    20A     -0.668546    21A     -0.640962
      22A     -0.614192    23A     -0.607441    24A     -0.605475
      25A     -0.560401    26A     -0.539743    27A     -0.529941
      28A     -0.526205    29A     -0.505595    30A     -0.474888
      31A     -0.421080    32A     -0.407653    33A     -0.308732

  @DF-RHF Final Energy:  -399.77164742007488

   => Energetics <=

    Nuclear Repulsion Energy =            437.5406811752247336
    One-Electron Energy =               -1410.0954082163855219
    Two-Electron Energy =                 572.7830796210857898
    Total Energy =                       -399.7716474200749417
  Basis Set: (AUG-CC-PVTZ AUX)
    Blend: AUG-CC-PVTZ-RI
    Molecular point group: c1

    Geometry (in Angstrom), charge = 0, multiplicity = 1:

       Center              X                  Y                   Z               Mass
    ------------   -----------------  -----------------  -----------------  -----------------
         O            0.718818885413     1.914364256712    -0.173609985857    15.994914619570
         N            0.357772885413    -0.357747743288    -0.286458985857    14.003074004430
         C            1.793701885413    -0.532639743288    -0.537691985857    12.000000000000
         C           -0.085458114587     0.971983256712    -0.100294985857    12.000000000000
         C           -0.461699114587    -1.447584743288    -0.185721985857    12.000000000000
         C            2.596038885413    -0.468817743288     0.753888014143    12.000000000000
         C           -1.501608114587     1.085253256712     0.164170014143    12.000000000000
         C           -1.796322114587    -1.315117743288     0.082798014143    12.000000000000
         C           -2.319513114587    -0.008987743288     0.260308014143    12.000000000000
         H            1.921216885413    -1.493052743288    -1.044592985857     1.007825032230
         H            2.095168885413     0.268055256712    -1.215097985857     1.007825032230
         H            0.015932885413    -2.410890743288    -0.341259985857     1.007825032230
         H            2.454275885413     0.506139256712     1.222355014143     1.007825032230
         H            2.277961885413    -1.252452743288     1.446954014143     1.007825032230
         H            3.661163885413    -0.603572743288     0.543036014143     1.007825032230
         H           -1.870096614587     2.076331156712     0.294630914143     1.007825032230
         H           -2.423485114587    -2.196599743288     0.150657014143     1.007825032230
         H           -3.378386114587     0.125426256712     0.470093014143     1.007825032230

  Basis Set: AUG-CC-PVTZ
    Blend: AUG-CC-PVTZ
  Basis Set: (AUG-CC-PVTZ AUX)
    Blend: AUG-CC-PVTZ-JKFIT
	 Reference Energy          =    -399.7716474200748848 [Eh]
	 Singles Energy            =      -0.0000000000000000 [Eh]
	 Same-Spin Energy          =      -0.4234118609591028 [Eh]
	 Opposite-Spin Energy      =      -1.3397122473602809 [Eh]
	 Correlation Energy        =      -1.7631241083193836 [Eh]
	 Total Energy              =    -401.5347715283942875 [Eh]

	 ================> DF-SCS-MP2 Energies <==================
	-----------------------------------------------------------
	 SCS Same-Spin Scale       =       0.3333333333333333 [-]
	 SCS Opposite-Spin Scale   =       1.2000000000000000 [-]
	 SCS Same-Spin Energy      =      -0.1411372869863676 [Eh]
	 SCS Opposite-Spin Energy  =      -1.6076546968323371 [Eh]
	 SCS Correlation Energy    =      -1.7487919838187047 [Eh]
	 SCS Total Energy          =    -401.5204394038935902 [Eh]
	-----------------------------------------------------------

  Dipole Moment: [D]
     X:    -0.7603      Y:    -3.8130      Z:     0.0322     Total:     3.8881

*** Psi4 exiting successfully. Buy a developer a beer!
