                               Psi4 1.3.2 release

  ==> Input File <==

--------------------------------------------------------------------------
#psi4
#
memory 32 gb

molecule  {
0 1
  O        0.6831730     1.9514370    -0.1851230
  N        0.3221270    -0.3206750    -0.2979720
  C        1.7580560    -0.4955670    -0.5492050
  C       -0.1190880     1.0341656    -0.1105644
  C       -0.4973450    -1.4105120    -0.1972350
  C        2.5603930    -0.4317450     0.7423750
  C       -1.5372540     1.1223260     0.1526570
  C       -1.8319680    -1.2780450     0.0712850
  C       -2.3551590     0.0280850     0.2487950
  H        1.8855710    -1.4559800    -1.0561060
  H        2.0595230     0.3051280    -1.2266110
  H       -0.0197130    -2.3738180    -0.3527730
  H        2.4186300     0.5432120     1.2108420
  H        2.2423160    -1.2153800     1.4354410
  H        3.6255180    -0.5665000     0.5315230
  H       -1.9126600     2.1320090     0.2855670
  H       -2.4591310    -2.1595270     0.1391440
  H       -3.4140320     0.1624990     0.4585800
units angstrom
no_reorient  #important for SAPT in psi4, default
symmetry c1  #important for SAPT in psi4, default
}

set PROPERTIES_ORIGIN ["COM"]
properties('MP2/aug-cc-pvtz', properties = ['dipole'])
--------------------------------------------------------------------------

    Molecular point group: c1
  Charge       = 0
  Multiplicity = 1
  Basis Set: AUG-CC-PVTZ
    Blend: AUG-CC-PVTZ
  Basis Set: (AUG-CC-PVTZ AUX)
    Blend: AUG-CC-PVTZ-JKFIT

    Orbital Energies [Eh]
    ---------------------

    Doubly Occupied:

       1A    -20.511796     2A    -15.622073     3A    -11.351118
       4A    -11.307812     5A    -11.272538     6A    -11.270467
       7A    -11.237599     8A    -11.235485     9A    -11.220705
      10A     -1.379581    11A     -1.277801    12A     -1.117240
      13A     -1.030549    14A     -1.015001    15A     -0.894654
      16A     -0.865136    17A     -0.824676    18A     -0.712226
      19A     -0.700602    20A     -0.667290    21A     -0.638470
      22A     -0.613374    23A     -0.609672    24A     -0.605608
      25A     -0.562464    26A     -0.537835    27A     -0.531676
      28A     -0.526369    29A     -0.504712    30A     -0.479651
      31A     -0.423788    32A     -0.405989    33A     -0.307515

  @DF-RHF Final Energy:  -399.77143351741688

   => Energetics <=

    Nuclear Repulsion Energy =            437.2737802217034755
    One-Electron Energy =               -1409.5674857125541166
    Two-Electron Energy =                 572.5222719734338170
    Total Energy =                       -399.7714335174168809
  Basis Set: (AUG-CC-PVTZ AUX)
    Blend: AUG-CC-PVTZ-RI
    Molecular point group: c1

    Geometry (in Angstrom), charge = 0, multiplicity = 1:

       Center              X                  Y                   Z               Mass
    ------------   -----------------  -----------------  -----------------  -----------------
         O            0.718678960230     1.911763541587    -0.173751301275    15.994914619570
         N            0.357632960230    -0.360348458413    -0.286600301275    14.003074004430
         C            1.793561960230    -0.535240458413    -0.537833301275    12.000000000000
         C           -0.083582039770     0.994492141587    -0.099192701275    12.000000000000
         C           -0.461839039770    -1.450185458413    -0.185863301275    12.000000000000
         C            2.595898960230    -0.471418458413     0.753746698725    12.000000000000
         C           -1.501748039770     1.082652541587     0.164028698725    12.000000000000
         C           -1.796462039770    -1.317718458413     0.082656698725    12.000000000000
         C           -2.319653039770    -0.011588458413     0.260166698725    12.000000000000
         H            1.921076960230    -1.495653458413    -1.044734301275     1.007825032230
         H            2.095028960230     0.265454541587    -1.215239301275     1.007825032230
         H            0.015792960230    -2.413491458413    -0.341401301275     1.007825032230
         H            2.454135960230     0.503538541587     1.222213698725     1.007825032230
         H            2.277821960230    -1.255053458413     1.446812698725     1.007825032230
         H            3.661023960230    -0.606173458413     0.542894698725     1.007825032230
         H           -1.877154039770     2.092335541587     0.296938698725     1.007825032230
         H           -2.423625039770    -2.199200458413     0.150515698725     1.007825032230
         H           -3.378526039770     0.122825541587     0.469951698725     1.007825032230

  Basis Set: AUG-CC-PVTZ
    Blend: AUG-CC-PVTZ
  Basis Set: (AUG-CC-PVTZ AUX)
    Blend: AUG-CC-PVTZ-JKFIT
	 Reference Energy          =    -399.7714335174168809 [Eh]
	 Singles Energy            =      -0.0000000000000000 [Eh]
	 Same-Spin Energy          =      -0.4232803362877713 [Eh]
	 Opposite-Spin Energy      =      -1.3394455389753859 [Eh]
	 Correlation Energy        =      -1.7627258752631572 [Eh]
	 Total Energy              =    -401.5341593926800101 [Eh]

	 ================> DF-SCS-MP2 Energies <==================
	-----------------------------------------------------------
	 SCS Same-Spin Scale       =       0.3333333333333333 [-]
	 SCS Opposite-Spin Scale   =       1.2000000000000000 [-]
	 SCS Same-Spin Energy      =      -0.1410934454292571 [Eh]
	 SCS Opposite-Spin Energy  =      -1.6073346467704630 [Eh]
	 SCS Correlation Energy    =      -1.7484280921997202 [Eh]
	 SCS Total Energy          =    -401.5198616096166120 [Eh]
	-----------------------------------------------------------

  Dipole Moment: [D]
     X:    -0.6751      Y:    -3.6359      Z:     0.0256     Total:     3.6981

*** Psi4 exiting successfully. Buy a developer a beer!
