                               Psi4 1.3.2 release

  ==> Input File <==

--------------------------------------------------------------------------
#psi4
#
memory 32 gb

molecule  {
0 1
  O        0.6831730     1.9514370    -0.1851230
  N        0.3221270    -0.3206750    -0.2979720
  C        1.7580560    -0.4955670    -0.5492050
  C       -0.1211040     1.0090560    -0.1118080
  C       -0.4973450    -1.4105120    -0.1972350
  C        2.5603930    -0.4317450     0.7423750
  C       -1.6532513     1.2020314     0.1798756
  C       -1.8319680    -1.2780450     0.0712850
  C       -2.3551590     0.0280850     0.2487950
  H        1.8855710    -1.4559800    -1.0561060
  H        2.0595230     0.3051280    -1.2266110
  H       -0.0197130    -2.3738180    -0.3527730
  H        2.4186300     0.5432120     1.2108420
  H        2.2423160    -1.2153800     1.4354410
  H        3.6255180    -0.5665000     0.5315230
  H       -1.9126600     2.1320090     0.2855670
  H       -2.4591310    -2.1595270     0.1391440
  H       -3.4140320     0.1624990     0.4585800
units angstrom
no_reorient  #important for SAPT in psi4, default
symmetry c1  #important for SAPT in psi4, default
}

set PROPERTIES_ORIGIN ["COM"]
properties('MP2/aug-cc-pvtz', properties = ['dipole'])
--------------------------------------------------------------------------

    Molecular point group: c1
  Charge       = 0
  Multiplicity = 1
  Basis Set: AUG-CC-PVTZ
    Blend: AUG-CC-PVTZ
  Basis Set: (AUG-CC-PVTZ AUX)
    Blend: AUG-CC-PVTZ-JKFIT

    Orbital Energies [Eh]
    ---------------------

    Doubly Occupied:

       1A    -20.512967     2A    -15.624114     3A    -11.359043
       4A    -11.308470     5A    -11.274429     6A    -11.266691
       7A    -11.241039     8A    -11.239940     9A    -11.221340
      10A     -1.369843    11A     -1.277991    12A     -1.113344
      13A     -1.031279    14A     -1.011351    15A     -0.888785
      16A     -0.877862    17A     -0.817293    18A     -0.718335
      19A     -0.697374    20A     -0.675908    21A     -0.645404
      22A     -0.613522    23A     -0.607815    24A     -0.601367
      25A     -0.563075    26A     -0.548281    27A     -0.527008
      28A     -0.525785    29A     -0.506179    30A     -0.475399
      31A     -0.413317    32A     -0.408798    33A     -0.306704

  @DF-RHF Final Energy:  -399.74940232944971

   => Energetics <=

    Nuclear Repulsion Energy =            434.9117819482234495
    One-Electron Energy =               -1404.7822751001792767
    Two-Electron Energy =                 570.1210908225060621
    Total Energy =                       -399.7494023294497083
  Basis Set: (AUG-CC-PVTZ AUX)
    Blend: AUG-CC-PVTZ-RI
    Molecular point group: c1

    Geometry (in Angstrom), charge = 0, multiplicity = 1:

       Center              X                  Y                   Z               Mass
    ------------   -----------------  -----------------  -----------------  -----------------
         O            0.730186052545     1.906440083039    -0.176284038880    15.994914619570
         N            0.369140052545    -0.365671916961    -0.289133038880    14.003074004430
         C            1.805069052545    -0.540563916961    -0.540366038880    12.000000000000
         C           -0.074090947455     0.964059083039    -0.102969038880    12.000000000000
         C           -0.450331947455    -1.455508916961    -0.188396038880    12.000000000000
         C            2.607406052545    -0.476741916961     0.751213961120    12.000000000000
         C           -1.606238247455     1.157034483039     0.188714561120    12.000000000000
         C           -1.784954947455    -1.323041916961     0.080123961120    12.000000000000
         C           -2.308145947455    -0.016911916961     0.257633961120    12.000000000000
         H            1.932584052545    -1.500976916961    -1.047267038880     1.007825032230
         H            2.106536052545     0.260131083039    -1.217772038880     1.007825032230
         H            0.027300052545    -2.418814916961    -0.343934038880     1.007825032230
         H            2.465643052545     0.498215083039     1.219680961120     1.007825032230
         H            2.289329052545    -1.260376916961     1.444279961120     1.007825032230
         H            3.672531052545    -0.611496916961     0.540361961120     1.007825032230
         H           -1.865646947455     2.087012083039     0.294405961120     1.007825032230
         H           -2.412117947455    -2.204523916961     0.147982961120     1.007825032230
         H           -3.367018947455     0.117502083039     0.467418961120     1.007825032230

  Basis Set: AUG-CC-PVTZ
    Blend: AUG-CC-PVTZ
  Basis Set: (AUG-CC-PVTZ AUX)
    Blend: AUG-CC-PVTZ-JKFIT
	 Reference Energy          =    -399.7494023294497083 [Eh]
	 Singles Energy            =      -0.0000000000000000 [Eh]
	 Same-Spin Energy          =      -0.4218137522379001 [Eh]
	 Opposite-Spin Energy      =      -1.3396140288480720 [Eh]
	 Correlation Energy        =      -1.7614277810859722 [Eh]
	 Total Energy              =    -401.5108301105356645 [Eh]

	 ================> DF-SCS-MP2 Energies <==================
	-----------------------------------------------------------
	 SCS Same-Spin Scale       =       0.3333333333333333 [-]
	 SCS Opposite-Spin Scale   =       1.2000000000000000 [-]
	 SCS Same-Spin Energy      =      -0.1406045840793000 [Eh]
	 SCS Opposite-Spin Energy  =      -1.6075368346176864 [Eh]
	 SCS Correlation Energy    =      -1.7481414186969864 [Eh]
	 SCS Total Energy          =    -401.4975437481467111 [Eh]
	-----------------------------------------------------------

  Dipole Moment: [D]
     X:    -0.5687      Y:    -3.5938      Z:     0.0071     Total:     3.6386

*** Psi4 exiting successfully. Buy a developer a beer!
