                               Psi4 1.3.2 release

  ==> Input File <==

--------------------------------------------------------------------------
#psi4
#
memory 32 gb

molecule  {
0 1
  O        0.6831730     1.9514370    -0.1851230
  N        0.3221270    -0.3206750    -0.2979720
  C        1.7419207    -0.5967636    -0.5500795
  C       -0.1211040     1.0090560    -0.1118080
  C       -0.4973450    -1.4105120    -0.1972350
  C        2.5603930    -0.4317450     0.7423750
  C       -1.5372540     1.1223260     0.1526570
  C       -1.8319680    -1.2780450     0.0712850
  C       -2.3551590     0.0280850     0.2487950
  H        1.8855710    -1.4559800    -1.0561060
  H        2.0595230     0.3051280    -1.2266110
  H       -0.0197130    -2.3738180    -0.3527730
  H        2.4186300     0.5432120     1.2108420
  H        2.2423160    -1.2153800     1.4354410
  H        3.6255180    -0.5665000     0.5315230
  H       -1.9126600     2.1320090     0.2855670
  H       -2.4591310    -2.1595270     0.1391440
  H       -3.4140320     0.1624990     0.4585800
units angstrom
no_reorient  #important for SAPT in psi4, default
symmetry c1  #important for SAPT in psi4, default
}

set PROPERTIES_ORIGIN ["COM"]
properties('MP2/aug-cc-pvtz', properties = ['dipole'])
--------------------------------------------------------------------------

    Molecular point group: c1
  Charge       = 0
  Multiplicity = 1
  Basis Set: AUG-CC-PVTZ
    Blend: AUG-CC-PVTZ
  Basis Set: (AUG-CC-PVTZ AUX)
    Blend: AUG-CC-PVTZ-JKFIT

    Orbital Energies [Eh]
    ---------------------

    Doubly Occupied:

       1A    -20.506315     2A    -15.626501     3A    -11.351376
       4A    -11.307632     5A    -11.273822     6A    -11.270691
       7A    -11.239543     8A    -11.237698     9A    -11.222597
      10A     -1.368292    11A     -1.279686    12A     -1.118743
      13A     -1.029373    14A     -1.018116    15A     -0.895221
      16A     -0.874786    17A     -0.825592    18A     -0.718487
      19A     -0.697501    20A     -0.673176    21A     -0.637374
      22A     -0.616052    23A     -0.608019    24A     -0.601761
      25A     -0.560398    26A     -0.541460    27A     -0.537577
      28A     -0.526484    29A     -0.488752    30A     -0.476058
      31A     -0.421293    32A     -0.404965    33A     -0.308476

  @DF-RHF Final Energy:  -399.75817245415658

   => Energetics <=

    Nuclear Repulsion Energy =            437.0803662630066242
    One-Electron Energy =               -1409.1494441832612665
    Two-Electron Energy =                 572.3109054660980064
    Total Energy =                       -399.7581724541565791
  Basis Set: (AUG-CC-PVTZ AUX)
    Blend: AUG-CC-PVTZ-RI
    Molecular point group: c1

    Geometry (in Angstrom), charge = 0, multiplicity = 1:

       Center              X                  Y                   Z               Mass
    ------------   -----------------  -----------------  -----------------  -----------------
         O            0.720448834344     1.924079247557    -0.173544772246    15.994914619570
         N            0.359402834344    -0.348032752443    -0.286393772246    14.003074004430
         C            1.779196534344    -0.624121352443    -0.538501272246    12.000000000000
         C           -0.083828165656     0.981698247557    -0.100229772246    12.000000000000
         C           -0.460069165656    -1.437869752443    -0.185656772246    12.000000000000
         C            2.597668834344    -0.459102752443     0.753953227754    12.000000000000
         C           -1.499978165656     1.094968247557     0.164235227754    12.000000000000
         C           -1.794692165656    -1.305402752443     0.082863227754    12.000000000000
         C           -2.317883165656     0.000727247557     0.260373227754    12.000000000000
         H            1.922846834344    -1.483337752443    -1.044527772246     1.007825032230
         H            2.096798834344     0.277770247557    -1.215032772246     1.007825032230
         H            0.017562834344    -2.401175752443    -0.341194772246     1.007825032230
         H            2.455905834344     0.515854247557     1.222420227754     1.007825032230
         H            2.279591834344    -1.242737752443     1.447019227754     1.007825032230
         H            3.662793834344    -0.593857752443     0.543101227754     1.007825032230
         H           -1.875384165656     2.104651247557     0.297145227754     1.007825032230
         H           -2.421855165656    -2.186884752443     0.150722227754     1.007825032230
         H           -3.376756165656     0.135141247557     0.470158227754     1.007825032230

  Basis Set: AUG-CC-PVTZ
    Blend: AUG-CC-PVTZ
  Basis Set: (AUG-CC-PVTZ AUX)
    Blend: AUG-CC-PVTZ-JKFIT
	 Reference Energy          =    -399.7581724541565791 [Eh]
	 Singles Energy            =      -0.0000000000000000 [Eh]
	 Same-Spin Energy          =      -0.4237822278043522 [Eh]
	 Opposite-Spin Energy      =      -1.3406765164249976 [Eh]
	 Correlation Energy        =      -1.7644587442293498 [Eh]
	 Total Energy              =    -401.5226311983859091 [Eh]

	 ================> DF-SCS-MP2 Energies <==================
	-----------------------------------------------------------
	 SCS Same-Spin Scale       =       0.3333333333333333 [-]
	 SCS Opposite-Spin Scale   =       1.2000000000000000 [-]
	 SCS Same-Spin Energy      =      -0.1412607426014507 [Eh]
	 SCS Opposite-Spin Energy  =      -1.6088118197099972 [Eh]
	 SCS Correlation Energy    =      -1.7500725623114479 [Eh]
	 SCS Total Energy          =    -401.5082450164680381 [Eh]
	-----------------------------------------------------------

  Dipole Moment: [D]
     X:    -0.7715      Y:    -3.8721      Z:     0.0317     Total:     3.9483

*** Psi4 exiting successfully. Buy a developer a beer!
