                               Psi4 1.3.2 release

  ==> Input File <==

--------------------------------------------------------------------------
#psi4
#
memory 32 gb

molecule  {
0 1
  O        0.6831730     1.9514370    -0.1851230
  N        0.3221270    -0.3206750    -0.2979720
  C        1.7580560    -0.4955670    -0.5492050
  C       -0.1154954     1.1599631    -0.1031524
  C       -0.4973450    -1.4105120    -0.1972350
  C        2.5603930    -0.4317450     0.7423750
  C       -1.5372540     1.1223260     0.1526570
  C       -1.8319680    -1.2780450     0.0712850
  C       -2.3551590     0.0280850     0.2487950
  H        1.8855710    -1.4559800    -1.0561060
  H        2.0595230     0.3051280    -1.2266110
  H       -0.0197130    -2.3738180    -0.3527730
  H        2.4186300     0.5432120     1.2108420
  H        2.2423160    -1.2153800     1.4354410
  H        3.6255180    -0.5665000     0.5315230
  H       -1.9126600     2.1320090     0.2855670
  H       -2.4591310    -2.1595270     0.1391440
  H       -3.4140320     0.1624990     0.4585800
units angstrom
no_reorient  #important for SAPT in psi4, default
symmetry c1  #important for SAPT in psi4, default
}

set PROPERTIES_ORIGIN ["COM"]
properties('MP2/aug-cc-pvtz', properties = ['dipole'])
--------------------------------------------------------------------------

    Molecular point group: c1
  Charge       = 0
  Multiplicity = 1
  Basis Set: AUG-CC-PVTZ
    Blend: AUG-CC-PVTZ
  Basis Set: (AUG-CC-PVTZ AUX)
    Blend: AUG-CC-PVTZ-JKFIT

    Orbital Energies [Eh]
    ---------------------

    Doubly Occupied:

       1A    -20.540256     2A    -15.601601     3A    -11.356686
       4A    -11.301470     5A    -11.270521     6A    -11.265845
       7A    -11.229927     8A    -11.225337     9A    -11.218446
      10A     -1.453690    11A     -1.259747    12A     -1.108721
      13A     -1.026422    14A     -1.001681    15A     -0.890688
      16A     -0.840249    17A     -0.823433    18A     -0.708575
      19A     -0.701314    20A     -0.678440    21A     -0.637925
      22A     -0.625388    23A     -0.612195    24A     -0.597772
      25A     -0.571544    26A     -0.549317    27A     -0.536105
      28A     -0.528126    29A     -0.501287    30A     -0.489608
      31A     -0.423161    32A     -0.396773    33A     -0.300346

  @DF-RHF Final Energy:  -399.74794651219850

   => Energetics <=

    Nuclear Repulsion Energy =            436.6069895946255883
    One-Electron Energy =               -1408.1646846804317192
    Two-Electron Energy =                 571.8097485736076351
    Total Energy =                       -399.7479465121984958
  Basis Set: (AUG-CC-PVTZ AUX)
    Blend: AUG-CC-PVTZ-RI
    Molecular point group: c1

    Geometry (in Angstrom), charge = 0, multiplicity = 1:

       Center              X                  Y                   Z               Mass
    ------------   -----------------  -----------------  -----------------  -----------------
         O            0.718328657511     1.899497437296    -0.174474021241    15.994914619570
         N            0.357282657511    -0.372614562704    -0.287323021241    14.003074004430
         C            1.793211657511    -0.547506562704    -0.538556021241    12.000000000000
         C           -0.080339742489     1.108023537296    -0.092503421241    12.000000000000
         C           -0.462189342489    -1.462451562704    -0.186586021241    12.000000000000
         C            2.595548657511    -0.483684562704     0.753023978759    12.000000000000
         C           -1.502098342489     1.070386437296     0.163305978759    12.000000000000
         C           -1.796812342489    -1.329984562704     0.081933978759    12.000000000000
         C           -2.320003342489    -0.023854562704     0.259443978759    12.000000000000
         H            1.920726657511    -1.507919562704    -1.045457021241     1.007825032230
         H            2.094678657511     0.253188437296    -1.215962021241     1.007825032230
         H            0.015442657511    -2.425757562704    -0.342124021241     1.007825032230
         H            2.453785657511     0.491272437296     1.221490978759     1.007825032230
         H            2.277471657511    -1.267319562704     1.446089978759     1.007825032230
         H            3.660673657511    -0.618439562704     0.542171978759     1.007825032230
         H           -1.877504342489     2.080069437296     0.296215978759     1.007825032230
         H           -2.423975342489    -2.211466562704     0.149792978759     1.007825032230
         H           -3.378876342489     0.110559437296     0.469228978759     1.007825032230

  Basis Set: AUG-CC-PVTZ
    Blend: AUG-CC-PVTZ
  Basis Set: (AUG-CC-PVTZ AUX)
    Blend: AUG-CC-PVTZ-JKFIT
	 Reference Energy          =    -399.7479465121984958 [Eh]
	 Singles Energy            =      -0.0000000000000000 [Eh]
	 Same-Spin Energy          =      -0.4228657542291688 [Eh]
	 Opposite-Spin Energy      =      -1.3381820139622136 [Eh]
	 Correlation Energy        =      -1.7610477681913825 [Eh]
	 Total Energy              =    -401.5089942803898566 [Eh]

	 ================> DF-SCS-MP2 Energies <==================
	-----------------------------------------------------------
	 SCS Same-Spin Scale       =       0.3333333333333333 [-]
	 SCS Opposite-Spin Scale   =       1.2000000000000000 [-]
	 SCS Same-Spin Energy      =      -0.1409552514097229 [Eh]
	 SCS Opposite-Spin Energy  =      -1.6058184167546563 [Eh]
	 SCS Correlation Energy    =      -1.7467736681643793 [Eh]
	 SCS Total Energy          =    -401.4947201803628900 [Eh]
	-----------------------------------------------------------

  Dipole Moment: [D]
     X:    -0.2584      Y:    -2.6784      Z:     0.0004     Total:     2.6909

*** Psi4 exiting successfully. Buy a developer a beer!
