                               Psi4 1.3.2 release

  ==> Input File <==

--------------------------------------------------------------------------
#psi4
#
memory 32 gb

molecule  {
0 1
  O        0.6831730     1.9514370    -0.1851230
  N        0.3221270    -0.3206750    -0.2979720
  C        1.7580560    -0.4955670    -0.5492050
  C       -0.1211040     1.0090560    -0.1118080
  C       -0.4973450    -1.4105120    -0.1972350
  C        2.5603930    -0.4317450     0.7423750
  C       -1.5187594     1.1078506     0.1482151
  C       -1.8319680    -1.2780450     0.0712850
  C       -2.3551590     0.0280850     0.2487950
  H        1.8855710    -1.4559800    -1.0561060
  H        2.0595230     0.3051280    -1.2266110
  H       -0.0197130    -2.3738180    -0.3527730
  H        2.4186300     0.5432120     1.2108420
  H        2.2423160    -1.2153800     1.4354410
  H        3.6255180    -0.5665000     0.5315230
  H       -1.9126600     2.1320090     0.2855670
  H       -2.4591310    -2.1595270     0.1391440
  H       -3.4140320     0.1624990     0.4585800
units angstrom
no_reorient  #important for SAPT in psi4, default
symmetry c1  #important for SAPT in psi4, default
}

set PROPERTIES_ORIGIN ["COM"]
properties('MP2/aug-cc-pvtz', properties = ['dipole'])
--------------------------------------------------------------------------

    Molecular point group: c1
  Charge       = 0
  Multiplicity = 1
  Basis Set: AUG-CC-PVTZ
    Blend: AUG-CC-PVTZ
  Basis Set: (AUG-CC-PVTZ AUX)
    Blend: AUG-CC-PVTZ-JKFIT

    Orbital Energies [Eh]
    ---------------------

    Doubly Occupied:

       1A    -20.504901     2A    -15.625757     3A    -11.347852
       4A    -11.309070     5A    -11.273686     6A    -11.271715
       7A    -11.240337     8A    -11.236574     9A    -11.221097
      10A     -1.368840    11A     -1.278375    12A     -1.120308
      13A     -1.031729    14A     -1.019356    15A     -0.897345
      16A     -0.869102    17A     -0.826481    18A     -0.713999
      19A     -0.702029    20A     -0.666505    21A     -0.638471
      22A     -0.614087    23A     -0.607554    24A     -0.605365
      25A     -0.562050    26A     -0.535608    27A     -0.529555
      28A     -0.524278    29A     -0.505259    30A     -0.474859
      31A     -0.421693    32A     -0.407551    33A     -0.309317

  @DF-RHF Final Energy:  -399.77026764496020

   => Energetics <=

    Nuclear Repulsion Energy =            437.8781031990271799
    One-Electron Energy =               -1410.7753306446843453
    Two-Electron Energy =                 573.1269598006969090
    Total Energy =                       -399.7702676449601995
  Basis Set: (AUG-CC-PVTZ AUX)
    Blend: AUG-CC-PVTZ-RI
    Molecular point group: c1

    Geometry (in Angstrom), charge = 0, multiplicity = 1:

       Center              X                  Y                   Z               Mass
    ------------   -----------------  -----------------  -----------------  -----------------
         O            0.717072185642     1.915623345942    -0.173196926697    15.994914619570
         N            0.356026185642    -0.356488654058    -0.286045926697    14.003074004430
         C            1.791955185642    -0.531380654058    -0.537278926697    12.000000000000
         C           -0.087204814358     0.973242345942    -0.099881926697    12.000000000000
         C           -0.463445814358    -1.446325654058    -0.185308926697    12.000000000000
         C            2.594292185642    -0.467558654058     0.754301073303    12.000000000000
         C           -1.484860214358     1.072036945942     0.160141173303    12.000000000000
         C           -1.798068814358    -1.313858654058     0.083211073303    12.000000000000
         C           -2.321259814358    -0.007728654058     0.260721073303    12.000000000000
         H            1.919470185642    -1.491793654058    -1.044179926697     1.007825032230
         H            2.093422185642     0.269314345942    -1.214684926697     1.007825032230
         H            0.014186185642    -2.409631654058    -0.340846926697     1.007825032230
         H            2.452529185642     0.507398345942     1.222768073303     1.007825032230
         H            2.276215185642    -1.251193654058     1.447367073303     1.007825032230
         H            3.659417185642    -0.602313654058     0.543449073303     1.007825032230
         H           -1.878760814358     2.096195345942     0.297493073303     1.007825032230
         H           -2.425231814358    -2.195340654058     0.151070073303     1.007825032230
         H           -3.380132814358     0.126685345942     0.470506073303     1.007825032230

  Basis Set: AUG-CC-PVTZ
    Blend: AUG-CC-PVTZ
  Basis Set: (AUG-CC-PVTZ AUX)
    Blend: AUG-CC-PVTZ-JKFIT
	 Reference Energy          =    -399.7702676449601995 [Eh]
	 Singles Energy            =      -0.0000000000000000 [Eh]
	 Same-Spin Energy          =      -0.4238707778962323 [Eh]
	 Opposite-Spin Energy      =      -1.3401907913460431 [Eh]
	 Correlation Energy        =      -1.7640615692422754 [Eh]
	 Total Energy              =    -401.5343292142025007 [Eh]

	 ================> DF-SCS-MP2 Energies <==================
	-----------------------------------------------------------
	 SCS Same-Spin Scale       =       0.3333333333333333 [-]
	 SCS Opposite-Spin Scale   =       1.2000000000000000 [-]
	 SCS Same-Spin Energy      =      -0.1412902592987441 [Eh]
	 SCS Opposite-Spin Energy  =      -1.6082289496152518 [Eh]
	 SCS Correlation Energy    =      -1.7495192089139959 [Eh]
	 SCS Total Energy          =    -401.5197868538742227 [Eh]
	-----------------------------------------------------------

  Dipole Moment: [D]
     X:    -0.7877      Y:    -3.8569      Z:     0.0356     Total:     3.9367

*** Psi4 exiting successfully. Buy a developer a beer!
