                               Psi4 1.3.2 release

  ==> Input File <==

--------------------------------------------------------------------------
#psi4
#
memory 32 gb

molecule  {
0 1
  O        0.6831730     1.9514370    -0.1851230
  N        0.3221270    -0.3206750    -0.2979720
  C        1.7580560    -0.4955670    -0.5492050
  C       -0.1334737     0.9090390    -0.1159732
  C       -0.4973450    -1.4105120    -0.1972350
  C        2.5603930    -0.4317450     0.7423750
  C       -1.5372540     1.1223260     0.1526570
  C       -1.8319680    -1.2780450     0.0712850
  C       -2.3551590     0.0280850     0.2487950
  H        1.8855710    -1.4559800    -1.0561060
  H        2.0595230     0.3051280    -1.2266110
  H       -0.0197130    -2.3738180    -0.3527730
  H        2.4186300     0.5432120     1.2108420
  H        2.2423160    -1.2153800     1.4354410
  H        3.6255180    -0.5665000     0.5315230
  H       -1.9126600     2.1320090     0.2855670
  H       -2.4591310    -2.1595270     0.1391440
  H       -3.4140320     0.1624990     0.4585800
units angstrom
no_reorient  #important for SAPT in psi4, default
symmetry c1  #important for SAPT in psi4, default
}

set PROPERTIES_ORIGIN ["COM"]
properties('MP2/aug-cc-pvtz', properties = ['dipole'])
--------------------------------------------------------------------------

    Molecular point group: c1
  Charge       = 0
  Multiplicity = 1
  Basis Set: AUG-CC-PVTZ
    Blend: AUG-CC-PVTZ
  Basis Set: (AUG-CC-PVTZ AUX)
    Blend: AUG-CC-PVTZ-JKFIT

    Orbital Energies [Eh]
    ---------------------

    Doubly Occupied:

       1A    -20.484060     2A    -15.637277     3A    -11.343421
       4A    -11.312167     5A    -11.278722     6A    -11.271382
       7A    -11.250372     8A    -11.244364     9A    -11.222820
      10A     -1.358838    11A     -1.254167    12A     -1.126968
      13A     -1.034509    14A     -1.030622    15A     -0.899900
      16A     -0.890823    17A     -0.825510    18A     -0.723915
      19A     -0.701428    20A     -0.670771    21A     -0.647847
      22A     -0.623829    23A     -0.612432    24A     -0.591054
      25A     -0.551677    26A     -0.539323    27A     -0.526153
      28A     -0.520365    29A     -0.508634    30A     -0.452003
      31A     -0.415007    32A     -0.402667    33A     -0.312990

  @DF-RHF Final Energy:  -399.75618088841611

   => Energetics <=

    Nuclear Repulsion Energy =            438.1910339955805398
    One-Electron Energy =               -1411.3623916707279022
    Two-Electron Energy =                 573.4151767867313083
    Total Energy =                       -399.7561808884161110
  Basis Set: (AUG-CC-PVTZ AUX)
    Blend: AUG-CC-PVTZ-RI
    Molecular point group: c1

    Geometry (in Angstrom), charge = 0, multiplicity = 1:

       Center              X                  Y                   Z               Mass
    ------------   -----------------  -----------------  -----------------  -----------------
         O            0.720081662958     1.923964228605    -0.173223906812    15.994914619570
         N            0.359035662958    -0.348147771395    -0.286072906812    14.003074004430
         C            1.794964662958    -0.523039771395    -0.537305906812    12.000000000000
         C           -0.096565037042     0.881566228605    -0.104074106812    12.000000000000
         C           -0.460436337042    -1.437984771395    -0.185335906812    12.000000000000
         C            2.597301662958    -0.459217771395     0.754274093188    12.000000000000
         C           -1.500345337042     1.094853228605     0.164556093188    12.000000000000
         C           -1.795059337042    -1.305517771395     0.083184093188    12.000000000000
         C           -2.318250337042     0.000612228605     0.260694093188    12.000000000000
         H            1.922479662958    -1.483452771395    -1.044206906812     1.007825032230
         H            2.096431662958     0.277655228605    -1.214711906812     1.007825032230
         H            0.017195662958    -2.401290771395    -0.340873906812     1.007825032230
         H            2.455538662958     0.515739228605     1.222741093188     1.007825032230
         H            2.279224662958    -1.242852771395     1.447340093188     1.007825032230
         H            3.662426662958    -0.593972771395     0.543422093188     1.007825032230
         H           -1.875751337042     2.104536228605     0.297466093188     1.007825032230
         H           -2.422222337042    -2.186999771395     0.151043093188     1.007825032230
         H           -3.377123337042     0.135026228605     0.470479093188     1.007825032230

  Basis Set: AUG-CC-PVTZ
    Blend: AUG-CC-PVTZ
  Basis Set: (AUG-CC-PVTZ AUX)
    Blend: AUG-CC-PVTZ-JKFIT
	 Reference Energy          =    -399.7561808884161110 [Eh]
	 Singles Energy            =      -0.0000000000000000 [Eh]
	 Same-Spin Energy          =      -0.4243031246320873 [Eh]
	 Opposite-Spin Energy      =      -1.3417041798839280 [Eh]
	 Correlation Energy        =      -1.7660073045160152 [Eh]
	 Total Energy              =    -401.5221881929321057 [Eh]

	 ================> DF-SCS-MP2 Energies <==================
	-----------------------------------------------------------
	 SCS Same-Spin Scale       =       0.3333333333333333 [-]
	 SCS Opposite-Spin Scale   =       1.2000000000000000 [-]
	 SCS Same-Spin Energy      =      -0.1414343748773624 [Eh]
	 SCS Opposite-Spin Energy  =      -1.6100450158607136 [Eh]
	 SCS Correlation Energy    =      -1.7514793907380759 [Eh]
	 SCS Total Energy          =    -401.5076602791542086 [Eh]
	-----------------------------------------------------------

  Dipole Moment: [D]
     X:    -1.0889      Y:    -4.4847      Z:     0.0617     Total:     4.6154

*** Psi4 exiting successfully. Buy a developer a beer!
