                               Psi4 1.3.2 release

  ==> Input File <==

--------------------------------------------------------------------------
#psi4
#
memory 32 gb

molecule  {
0 1
  O        0.6831730     1.9514370    -0.1851230
  N        0.3221270    -0.3206750    -0.2979720
  C        1.7580560    -0.4955670    -0.5492050
  C       -0.1235514     0.9839809    -0.1129710
  C       -0.4973450    -1.4105120    -0.1972350
  C        2.5603930    -0.4317450     0.7423750
  C       -1.5372540     1.1223260     0.1526570
  C       -1.8319680    -1.2780450     0.0712850
  C       -2.3551590     0.0280850     0.2487950
  H        1.8855710    -1.4559800    -1.0561060
  H        2.0595230     0.3051280    -1.2266110
  H       -0.0197130    -2.3738180    -0.3527730
  H        2.4186300     0.5432120     1.2108420
  H        2.2423160    -1.2153800     1.4354410
  H        3.6255180    -0.5665000     0.5315230
  H       -1.9126600     2.1320090     0.2855670
  H       -2.4591310    -2.1595270     0.1391440
  H       -3.4140320     0.1624990     0.4585800
units angstrom
no_reorient  #important for SAPT in psi4, default
symmetry c1  #important for SAPT in psi4, default
}

set PROPERTIES_ORIGIN ["COM"]
properties('MP2/aug-cc-pvtz', properties = ['dipole'])
--------------------------------------------------------------------------

    Molecular point group: c1
  Charge       = 0
  Multiplicity = 1
  Basis Set: AUG-CC-PVTZ
    Blend: AUG-CC-PVTZ
  Basis Set: (AUG-CC-PVTZ AUX)
    Blend: AUG-CC-PVTZ-JKFIT

    Orbital Energies [Eh]
    ---------------------

    Doubly Occupied:

       1A    -20.500651     2A    -15.628682     3A    -11.348472
       4A    -11.309767     5A    -11.275044     6A    -11.270753
       7A    -11.242685     8A    -11.238752     9A    -11.221549
      10A     -1.361422    11A     -1.276350    12A     -1.121007
      13A     -1.032150    14A     -1.021069    15A     -0.896615
      16A     -0.875557    17A     -0.825031    18A     -0.716610
      19A     -0.700480    20A     -0.667947    21A     -0.641683
      22A     -0.615774    23A     -0.608812    24A     -0.600551
      25A     -0.557969    26A     -0.539302    27A     -0.528347
      28A     -0.525346    29A     -0.506425    30A     -0.469496
      31A     -0.417809    32A     -0.409290    33A     -0.309950

  @DF-RHF Final Energy:  -399.77004342715009

   => Energetics <=

    Nuclear Repulsion Energy =            437.6068509245902192
    One-Electron Energy =               -1410.2310958027799188
    Two-Electron Energy =                 572.8542014510396712
    Total Energy =                       -399.7700434271500853
  Basis Set: (AUG-CC-PVTZ AUX)
    Blend: AUG-CC-PVTZ-RI
    Molecular point group: c1

    Geometry (in Angstrom), charge = 0, multiplicity = 1:

       Center              X                  Y                   Z               Mass
    ------------   -----------------  -----------------  -----------------  -----------------
         O            0.719114171819     1.916656888148    -0.173516641551    15.994914619570
         N            0.358068171819    -0.355455111852    -0.286365641551    14.003074004430
         C            1.793997171819    -0.530347111852    -0.537598641551    12.000000000000
         C           -0.087610228181     0.949200788148    -0.101364641551    12.000000000000
         C           -0.461403828181    -1.445292111852    -0.185628641551    12.000000000000
         C            2.596334171819    -0.466525111852     0.753981358449    12.000000000000
         C           -1.501312828181     1.087545888148     0.164263358449    12.000000000000
         C           -1.796026828181    -1.312825111852     0.082891358449    12.000000000000
         C           -2.319217828181    -0.006695111852     0.260401358449    12.000000000000
         H            1.921512171819    -1.490760111852    -1.044499641551     1.007825032230
         H            2.095464171819     0.270347888148    -1.215004641551     1.007825032230
         H            0.016228171819    -2.408598111852    -0.341166641551     1.007825032230
         H            2.454571171819     0.508431888148     1.222448358449     1.007825032230
         H            2.278257171819    -1.250160111852     1.447047358449     1.007825032230
         H            3.661459171819    -0.601280111852     0.543129358449     1.007825032230
         H           -1.876718828181     2.097228888148     0.297173358449     1.007825032230
         H           -2.423189828181    -2.194307111852     0.150750358449     1.007825032230
         H           -3.378090828181     0.127718888148     0.470186358449     1.007825032230

  Basis Set: AUG-CC-PVTZ
    Blend: AUG-CC-PVTZ
  Basis Set: (AUG-CC-PVTZ AUX)
    Blend: AUG-CC-PVTZ-JKFIT
	 Reference Energy          =    -399.7700434271500853 [Eh]
	 Singles Energy            =      -0.0000000000000000 [Eh]
	 Same-Spin Energy          =      -0.4236524654905476 [Eh]
	 Opposite-Spin Energy      =      -1.3402731843744564 [Eh]
	 Correlation Energy        =      -1.7639256498650040 [Eh]
	 Total Energy              =    -401.5339690770151151 [Eh]

	 ================> DF-SCS-MP2 Energies <==================
	-----------------------------------------------------------
	 SCS Same-Spin Scale       =       0.3333333333333333 [-]
	 SCS Opposite-Spin Scale   =       1.2000000000000000 [-]
	 SCS Same-Spin Energy      =      -0.1412174884968492 [Eh]
	 SCS Opposite-Spin Energy  =      -1.6083278212493477 [Eh]
	 SCS Correlation Energy    =      -1.7495453097461968 [Eh]
	 SCS Total Energy          =    -401.5195887368963099 [Eh]
	-----------------------------------------------------------

  Dipole Moment: [D]
     X:    -0.8411      Y:    -3.9855      Z:     0.0389     Total:     4.0735

*** Psi4 exiting successfully. Buy a developer a beer!
