                               Psi4 1.4a3.dev225

  ==> Input File <==

--------------------------------------------------------------------------
#psi4
#
memory 32 gb

molecule  {
0 1
  O        0.6831730     1.9514370    -0.1851230
  N        0.3221270    -0.3206750    -0.2979720
  C        1.7580560    -0.4955670    -0.5492050
  C       -0.1211040     1.0090560    -0.1118080
  C       -0.4973450    -1.4105120    -0.1972350
  C        2.5603930    -0.4317450     0.7423750
  C       -1.5568536     1.1238937     0.1563172
  C       -1.8319680    -1.2780450     0.0712850
  C       -2.3551590     0.0280850     0.2487950
  H        1.8855710    -1.4559800    -1.0561060
  H        2.0595230     0.3051280    -1.2266110
  H       -0.0197130    -2.3738180    -0.3527730
  H        2.4186300     0.5432120     1.2108420
  H        2.2423160    -1.2153800     1.4354410
  H        3.6255180    -0.5665000     0.5315230
  H       -1.9126600     2.1320090     0.2855670
  H       -2.4591310    -2.1595270     0.1391440
  H       -3.4140320     0.1624990     0.4585800
units angstrom
no_reorient  #important for SAPT in psi4, default
symmetry c1  #important for SAPT in psi4, default
}

set PROPERTIES_ORIGIN ["COM"]
properties('MP2/aug-cc-pvtz', properties = ['dipole'])
--------------------------------------------------------------------------

    Molecular point group: c1
  Charge       = 0
  Multiplicity = 1
  Basis Set: AUG-CC-PVTZ
    Blend: AUG-CC-PVTZ
  Basis Set: (AUG-CC-PVTZ AUX)
    Blend: AUG-CC-PVTZ-JKFIT

    Orbital Energies [Eh]
    ---------------------

    Doubly Occupied:

       1A    -20.508402     2A    -15.624808     3A    -11.352169
       4A    -11.308076     5A    -11.273745     6A    -11.268060
       7A    -11.239651     8A    -11.237471     9A    -11.221128
      10A     -1.369577    11A     -1.278320    12A     -1.119307
      13A     -1.031718    14A     -1.016654    15A     -0.894011
      16A     -0.871202    17A     -0.823393    18A     -0.714447
      19A     -0.699919    20A     -0.667469    21A     -0.640942
      22A     -0.614023    23A     -0.607170    24A     -0.605172
      25A     -0.559938    26A     -0.540715    27A     -0.529430
      28A     -0.525953    29A     -0.505691    30A     -0.475222
      31A     -0.420976    32A     -0.409158    33A     -0.308785

  @DF-RHF Final Energy:  -399.77169357606846

   => Energetics <=

    Nuclear Repulsion Energy =            437.1743425402772232
    One-Electron Energy =               -1409.3666687125776207
    Two-Electron Energy =                 572.4206325962320534
    Total Energy =                       -399.7716935760684009
  Basis Set: (AUG-CC-PVTZ AUX)
    Blend: AUG-CC-PVTZ-RI
    Molecular point group: c1

    Geometry (in Angstrom), charge = 0, multiplicity = 1:

       Center              X                  Y                   Z               Mass
    ------------   -----------------  -----------------  -----------------  -----------------
         O            0.720786626947     1.914059035540    -0.173986936066    15.994914619570
         N            0.359740626947    -0.358052964460    -0.286835936066    14.003074004430
         C            1.795669626947    -0.532944964460    -0.538068936066    12.000000000000
         C           -0.083490373053     0.971678035540    -0.100671936066    12.000000000000
         C           -0.459731373053    -1.447889964460    -0.186098936066    12.000000000000
         C            2.598006626947    -0.469122964460     0.753511063934    12.000000000000
         C           -1.519239973053     1.086515735540     0.167453263934    12.000000000000
         C           -1.794354373053    -1.315422964460     0.082421063934    12.000000000000
         C           -2.317545373053    -0.009292964460     0.259931063934    12.000000000000
         H            1.923184626947    -1.493357964460    -1.044969936066     1.007825032230
         H            2.097136626947     0.267750035540    -1.215474936066     1.007825032230
         H            0.017900626947    -2.411195964460    -0.341636936066     1.007825032230
         H            2.456243626947     0.505834035540     1.221978063934     1.007825032230
         H            2.279929626947    -1.252757964460     1.446577063934     1.007825032230
         H            3.663131626947    -0.603877964460     0.542659063934     1.007825032230
         H           -1.875046373053     2.094631035540     0.296703063934     1.007825032230
         H           -2.421517373053    -2.196904964460     0.150280063934     1.007825032230
         H           -3.376418373053     0.125121035540     0.469716063934     1.007825032230

  Basis Set: AUG-CC-PVTZ
    Blend: AUG-CC-PVTZ
  Basis Set: (AUG-CC-PVTZ AUX)
    Blend: AUG-CC-PVTZ-JKFIT
	 Reference Energy          =    -399.7716935760684578 [Eh]
	 Singles Energy            =      -0.0000000000000000 [Eh]
	 Same-Spin Energy          =      -0.4230567094924138 [Eh]
	 Opposite-Spin Energy      =      -1.3395153076619084 [Eh]
	 Correlation Energy        =      -1.7625720171543222 [Eh]
	 Total Energy              =    -401.5342655932227558 [Eh]

	 ================> DF-SCS-MP2 Energies <==================
	-----------------------------------------------------------
	 SCS Same-Spin Scale       =       0.3333333333333333 [-]
	 SCS Opposite-Spin Scale   =       1.2000000000000000 [-]
	 SCS Same-Spin Energy      =      -0.1410189031641379 [Eh]
	 SCS Opposite-Spin Energy  =      -1.6074183691942900 [Eh]
	 SCS Correlation Energy    =      -1.7484372723584281 [Eh]
	 SCS Total Energy          =    -401.5201308484269020 [Eh]
	-----------------------------------------------------------

  Dipole Moment: [D]
     X:    -0.7278      Y:    -3.7656      Z:     0.0285     Total:     3.8354

*** Psi4 exiting successfully. Buy a developer a beer!
