                               Psi4 1.3.2 release

  ==> Input File <==

--------------------------------------------------------------------------
#psi4
#
memory 32 gb

molecule  {
0 1
  O        0.6831730     1.9514370    -0.1851230
  N        0.3221270    -0.3206750    -0.2979720
  C        1.7580560    -0.4955670    -0.5492050
  C       -0.1211040     1.0090560    -0.1118080
  C       -0.4973450    -1.4105120    -0.1972350
  C        2.5603930    -0.4317450     0.7423750
  C       -1.5372540     1.1223260     0.1526570
  C       -1.8319680    -1.2780450     0.0712850
  C       -2.3551590     0.0280850     0.2487950
  H        1.8855710    -1.4559800    -1.0561060
  H        2.0595230     0.3051280    -1.2266110
  H       -0.0636773    -2.2851491    -0.3384563
  H        2.4186300     0.5432120     1.2108420
  H        2.2423160    -1.2153800     1.4354410
  H        3.6255180    -0.5665000     0.5315230
  H       -1.9126600     2.1320090     0.2855670
  H       -2.4591310    -2.1595270     0.1391440
  H       -3.4140320     0.1624990     0.4585800
units angstrom
no_reorient  #important for SAPT in psi4, default
symmetry c1  #important for SAPT in psi4, default
}

set PROPERTIES_ORIGIN ["COM"]
properties('MP2/aug-cc-pvtz', properties = ['dipole'])
--------------------------------------------------------------------------

    Molecular point group: c1
  Charge       = 0
  Multiplicity = 1
  Basis Set: AUG-CC-PVTZ
    Blend: AUG-CC-PVTZ
  Basis Set: (AUG-CC-PVTZ AUX)
    Blend: AUG-CC-PVTZ-JKFIT

    Orbital Energies [Eh]
    ---------------------

    Doubly Occupied:

       1A    -20.505895     2A    -15.624750     3A    -11.349329
       4A    -11.297489     5A    -11.273931     6A    -11.270165
       7A    -11.239790     8A    -11.237031     9A    -11.221235
      10A     -1.368735    11A     -1.278709    12A     -1.118942
      13A     -1.034765    14A     -1.019127    15A     -0.897517
      16A     -0.876043    17A     -0.824929    18A     -0.724834
      19A     -0.700936    20A     -0.674386    21A     -0.641013
      22A     -0.615317    23A     -0.609301    24A     -0.605739
      25A     -0.560269    26A     -0.540138    27A     -0.530239
      28A     -0.525873    29A     -0.505592    30A     -0.474708
      31A     -0.421181    32A     -0.407421    33A     -0.308613

  @DF-RHF Final Energy:  -399.76579012005095

   => Energetics <=

    Nuclear Repulsion Energy =            437.9864575725736699
    One-Electron Energy =               -1410.9366117832560121
    Two-Electron Energy =                 573.1843640906313340
    Total Energy =                       -399.7657901200509514
  Basis Set: (AUG-CC-PVTZ AUX)
    Blend: AUG-CC-PVTZ-RI
    Molecular point group: c1

    Geometry (in Angstrom), charge = 0, multiplicity = 1:

       Center              X                  Y                   Z               Mass
    ------------   -----------------  -----------------  -----------------  -----------------
         O            0.719235563828     1.913485774419    -0.173747283417    15.994914619570
         N            0.358189563828    -0.358626225581    -0.286596283417    14.003074004430
         C            1.794118563828    -0.533518225581    -0.537829283417    12.000000000000
         C           -0.085041436172     0.971104774419    -0.100432283417    12.000000000000
         C           -0.461282436172    -1.448463225581    -0.185859283417    12.000000000000
         C            2.596455563828    -0.469696225581     0.753750716583    12.000000000000
         C           -1.501191436172     1.084374774419     0.164032716583    12.000000000000
         C           -1.795905436172    -1.315996225581     0.082660716583    12.000000000000
         C           -2.319096436172    -0.009866225581     0.260170716583    12.000000000000
         H            1.921633563828    -1.493931225581    -1.044730283417     1.007825032230
         H            2.095585563828     0.267176774419    -1.215235283417     1.007825032230
         H           -0.027614736172    -2.323100325581    -0.327080583417     1.007825032230
         H            2.454692563828     0.505260774419     1.222217716583     1.007825032230
         H            2.278378563828    -1.253331225581     1.446816716583     1.007825032230
         H            3.661580563828    -0.604451225581     0.542898716583     1.007825032230
         H           -1.876597436172     2.094057774419     0.296942716583     1.007825032230
         H           -2.423068436172    -2.197478225581     0.150519716583     1.007825032230
         H           -3.377969436172     0.124547774419     0.469955716583     1.007825032230

  Basis Set: AUG-CC-PVTZ
    Blend: AUG-CC-PVTZ
  Basis Set: (AUG-CC-PVTZ AUX)
    Blend: AUG-CC-PVTZ-JKFIT
	 Reference Energy          =    -399.7657901200509514 [Eh]
	 Singles Energy            =      -0.0000000000000000 [Eh]
	 Same-Spin Energy          =      -0.4231814103604820 [Eh]
	 Opposite-Spin Energy      =      -1.3392181162028529 [Eh]
	 Correlation Energy        =      -1.7623995265633350 [Eh]
	 Total Energy              =    -401.5281896466142939 [Eh]

	 ================> DF-SCS-MP2 Energies <==================
	-----------------------------------------------------------
	 SCS Same-Spin Scale       =       0.3333333333333333 [-]
	 SCS Opposite-Spin Scale   =       1.2000000000000000 [-]
	 SCS Same-Spin Energy      =      -0.1410604701201607 [Eh]
	 SCS Opposite-Spin Energy  =      -1.6070617394434235 [Eh]
	 SCS Correlation Energy    =      -1.7481222095635842 [Eh]
	 SCS Total Energy          =    -401.5139123296145272 [Eh]
	-----------------------------------------------------------

  Dipole Moment: [D]
     X:    -0.7576      Y:    -3.8239      Z:     0.0311     Total:     3.8984

*** Psi4 exiting successfully. Buy a developer a beer!
