                               Psi4 1.3.2 release

  ==> Input File <==

--------------------------------------------------------------------------
#psi4
#
memory 32 gb

molecule  {
0 1
  O        0.6831730     1.9514370    -0.1851230
  N        0.2290258    -0.3500674    -0.2835282
  C        1.7580560    -0.4955670    -0.5492050
  C       -0.1211040     1.0090560    -0.1118080
  C       -0.4973450    -1.4105120    -0.1972350
  C        2.5603930    -0.4317450     0.7423750
  C       -1.5372540     1.1223260     0.1526570
  C       -1.8319680    -1.2780450     0.0712850
  C       -2.3551590     0.0280850     0.2487950
  H        1.8855710    -1.4559800    -1.0561060
  H        2.0595230     0.3051280    -1.2266110
  H       -0.0197130    -2.3738180    -0.3527730
  H        2.4186300     0.5432120     1.2108420
  H        2.2423160    -1.2153800     1.4354410
  H        3.6255180    -0.5665000     0.5315230
  H       -1.9126600     2.1320090     0.2855670
  H       -2.4591310    -2.1595270     0.1391440
  H       -3.4140320     0.1624990     0.4585800
units angstrom
no_reorient  #important for SAPT in psi4, default
symmetry c1  #important for SAPT in psi4, default
}

set PROPERTIES_ORIGIN ["COM"]
properties('MP2/aug-cc-pvtz', properties = ['dipole'])
--------------------------------------------------------------------------

    Molecular point group: c1
  Charge       = 0
  Multiplicity = 1
  Basis Set: AUG-CC-PVTZ
    Blend: AUG-CC-PVTZ
  Basis Set: (AUG-CC-PVTZ AUX)
    Blend: AUG-CC-PVTZ-JKFIT

    Orbital Energies [Eh]
    ---------------------

    Doubly Occupied:

       1A    -20.508323     2A    -15.628601     3A    -11.350731
       4A    -11.302054     5A    -11.284472     6A    -11.266053
       7A    -11.231804     8A    -11.230351     9A    -11.226517
      10A     -1.370143    11A     -1.294165    12A     -1.109350
      13A     -1.038232    14A     -1.019938    15A     -0.888120
      16A     -0.876108    17A     -0.829903    18A     -0.720538
      19A     -0.696639    20A     -0.658422    21A     -0.640370
      22A     -0.618661    23A     -0.608846    24A     -0.603932
      25A     -0.561793    26A     -0.539333    27A     -0.531566
      28A     -0.516257    29A     -0.510201    30A     -0.482438
      31A     -0.419015    32A     -0.409882    33A     -0.302658

  @DF-RHF Final Energy:  -399.75840878008341

   => Energetics <=

    Nuclear Repulsion Energy =            437.8163316992665273
    One-Electron Energy =               -1410.5986444738323371
    Two-Electron Energy =                 573.0239039944823389
    Total Energy =                       -399.7584087800834141
  Basis Set: (AUG-CC-PVTZ AUX)
    Blend: AUG-CC-PVTZ-RI
    Molecular point group: c1

    Geometry (in Angstrom), charge = 0, multiplicity = 1:

       Center              X                  Y                   Z               Mass
    ------------   -----------------  -----------------  -----------------  -----------------
         O            0.729468853032     1.917556247690    -0.175273498517    15.994914619570
         N            0.275321653032    -0.383948152310    -0.273678698517    14.003074004430
         C            1.804351853032    -0.529447752310    -0.539355498517    12.000000000000
         C           -0.074808146968     0.975175247690    -0.101958498517    12.000000000000
         C           -0.451049146968    -1.444392752310    -0.187385498517    12.000000000000
         C            2.606688853032    -0.465625752310     0.752224501483    12.000000000000
         C           -1.490958146968     1.088445247690     0.162506501483    12.000000000000
         C           -1.785672146968    -1.311925752310     0.081134501483    12.000000000000
         C           -2.308863146968    -0.005795752310     0.258644501483    12.000000000000
         H            1.931866853032    -1.489860752310    -1.046256498517     1.007825032230
         H            2.105818853032     0.271247247690    -1.216761498517     1.007825032230
         H            0.026582853032    -2.407698752310    -0.342923498517     1.007825032230
         H            2.464925853032     0.509331247690     1.220691501483     1.007825032230
         H            2.288611853032    -1.249260752310     1.445290501483     1.007825032230
         H            3.671813853032    -0.600380752310     0.541372501483     1.007825032230
         H           -1.866364146968     2.098128247690     0.295416501483     1.007825032230
         H           -2.412835146968    -2.193407752310     0.148993501483     1.007825032230
         H           -3.367736146968     0.128618247690     0.468429501483     1.007825032230

  Basis Set: AUG-CC-PVTZ
    Blend: AUG-CC-PVTZ
  Basis Set: (AUG-CC-PVTZ AUX)
    Blend: AUG-CC-PVTZ-JKFIT
	 Reference Energy          =    -399.7584087800834141 [Eh]
	 Singles Energy            =      -0.0000000000000000 [Eh]
	 Same-Spin Energy          =      -0.4245317489464494 [Eh]
	 Opposite-Spin Energy      =      -1.3405338332542909 [Eh]
	 Correlation Energy        =      -1.7650655822007404 [Eh]
	 Total Energy              =    -401.5234743622841620 [Eh]

	 ================> DF-SCS-MP2 Energies <==================
	-----------------------------------------------------------
	 SCS Same-Spin Scale       =       0.3333333333333333 [-]
	 SCS Opposite-Spin Scale   =       1.2000000000000000 [-]
	 SCS Same-Spin Energy      =      -0.1415105829821498 [Eh]
	 SCS Opposite-Spin Energy  =      -1.6086405999051490 [Eh]
	 SCS Correlation Energy    =      -1.7501511828872989 [Eh]
	 SCS Total Energy          =    -401.5085599629707076 [Eh]
	-----------------------------------------------------------

  Dipole Moment: [D]
     X:    -0.3767      Y:    -3.8338      Z:    -0.0051     Total:     3.8523

*** Psi4 exiting successfully. Buy a developer a beer!
