                               Psi4 1.3.2 release

  ==> Input File <==

--------------------------------------------------------------------------
#psi4
#
memory 32 gb

molecule  {
0 1
  O        0.6831730     1.9514370    -0.1851230
  N        0.1818069    -0.3622883    -0.2759881
  C        1.7580560    -0.4955670    -0.5492050
  C       -0.1211040     1.0090560    -0.1118080
  C       -0.4973450    -1.4105120    -0.1972350
  C        2.5603930    -0.4317450     0.7423750
  C       -1.5372540     1.1223260     0.1526570
  C       -1.8319680    -1.2780450     0.0712850
  C       -2.3551590     0.0280850     0.2487950
  H        1.8855710    -1.4559800    -1.0561060
  H        2.0595230     0.3051280    -1.2266110
  H       -0.0197130    -2.3738180    -0.3527730
  H        2.4186300     0.5432120     1.2108420
  H        2.2423160    -1.2153800     1.4354410
  H        3.6255180    -0.5665000     0.5315230
  H       -1.9126600     2.1320090     0.2855670
  H       -2.4591310    -2.1595270     0.1391440
  H       -3.4140320     0.1624990     0.4585800
units angstrom
no_reorient  #important for SAPT in psi4, default
symmetry c1  #important for SAPT in psi4, default
}

set PROPERTIES_ORIGIN ["COM"]
properties('MP2/aug-cc-pvtz', properties = ['dipole'])
--------------------------------------------------------------------------

    Molecular point group: c1
  Charge       = 0
  Multiplicity = 1
  Basis Set: AUG-CC-PVTZ
    Blend: AUG-CC-PVTZ
  Basis Set: (AUG-CC-PVTZ AUX)
    Blend: AUG-CC-PVTZ-JKFIT

    Orbital Energies [Eh]
    ---------------------

    Doubly Occupied:

       1A    -20.509351     2A    -15.629523     3A    -11.351554
       4A    -11.298527     5A    -11.289560     6A    -11.263699
       7A    -11.229157     8A    -11.227845     9A    -11.227156
      10A     -1.371795    11A     -1.303556    12A     -1.104881
      13A     -1.041906    14A     -1.021125    15A     -0.884992
      16A     -0.878912    17A     -0.831393    18A     -0.724809
      19A     -0.694868    20A     -0.655153    21A     -0.640978
      22A     -0.621723    23A     -0.609207    24A     -0.602817
      25A     -0.562943    26A     -0.538954    27A     -0.533007
      28A     -0.516646    29A     -0.504930    30A     -0.486378
      31A     -0.417123    32A     -0.409730    33A     -0.299611

  @DF-RHF Final Energy:  -399.74194425559961

   => Energetics <=

    Nuclear Repulsion Energy =            438.0827514587618339
    One-Electron Energy =               -1411.0817710984210862
    Two-Electron Energy =                 573.2570753840597035
    Total Energy =                       -399.7419442555996056
  Basis Set: (AUG-CC-PVTZ AUX)
    Blend: AUG-CC-PVTZ-RI
    Molecular point group: c1

    Geometry (in Angstrom), charge = 0, multiplicity = 1:

       Center              X                  Y                   Z               Mass
    ------------   -----------------  -----------------  -----------------  -----------------
         O            0.734841553712     1.918946776434    -0.176131432531    15.994914619570
         N            0.233475453712    -0.394778523566    -0.266996532531    14.003074004430
         C            1.809724553712    -0.528057223566    -0.540213432531    12.000000000000
         C           -0.069435446288     0.976565776434    -0.102816432531    12.000000000000
         C           -0.445676446288    -1.443002223566    -0.188243432531    12.000000000000
         C            2.612061553712    -0.464235223566     0.751366567469    12.000000000000
         C           -1.485585446288     1.089835776434     0.161648567469    12.000000000000
         C           -1.780299446288    -1.310535223566     0.080276567469    12.000000000000
         C           -2.303490446288    -0.004405223566     0.257786567469    12.000000000000
         H            1.937239553712    -1.488470223566    -1.047114432531     1.007825032230
         H            2.111191553712     0.272637776434    -1.217619432531     1.007825032230
         H            0.031955553712    -2.406308223566    -0.343781432531     1.007825032230
         H            2.470298553712     0.510721776434     1.219833567469     1.007825032230
         H            2.293984553712    -1.247870223566     1.444432567469     1.007825032230
         H            3.677186553712    -0.598990223566     0.540514567469     1.007825032230
         H           -1.860991446288     2.099518776434     0.294558567469     1.007825032230
         H           -2.407462446288    -2.192017223566     0.148135567469     1.007825032230
         H           -3.362363446288     0.130008776434     0.467571567469     1.007825032230

  Basis Set: AUG-CC-PVTZ
    Blend: AUG-CC-PVTZ
  Basis Set: (AUG-CC-PVTZ AUX)
    Blend: AUG-CC-PVTZ-JKFIT
	 Reference Energy          =    -399.7419442555996056 [Eh]
	 Singles Energy            =      -0.0000000000000000 [Eh]
	 Same-Spin Energy          =      -0.4254121818581768 [Eh]
	 Opposite-Spin Energy      =      -1.3415834475825079 [Eh]
	 Correlation Energy        =      -1.7669956294406846 [Eh]
	 Total Energy              =    -401.5089398850402631 [Eh]

	 ================> DF-SCS-MP2 Energies <==================
	-----------------------------------------------------------
	 SCS Same-Spin Scale       =       0.3333333333333333 [-]
	 SCS Opposite-Spin Scale   =       1.2000000000000000 [-]
	 SCS Same-Spin Energy      =      -0.1418040606193922 [Eh]
	 SCS Opposite-Spin Energy  =      -1.6099001370990094 [Eh]
	 SCS Correlation Energy    =      -1.7517041977184016 [Eh]
	 SCS Total Energy          =    -401.4936484533180305 [Eh]
	-----------------------------------------------------------

  Dipole Moment: [D]
     X:    -0.1959      Y:    -3.8483      Z:    -0.0226     Total:     3.8534

*** Psi4 exiting successfully. Buy a developer a beer!
