                               Psi4 1.3.2 release

  ==> Input File <==

--------------------------------------------------------------------------
#psi4
#
memory 32 gb

molecule  {
0 1
  O        0.6990798     1.9372985    -0.1891568
  N        0.3221270    -0.3206750    -0.2979720
  C        1.7580560    -0.4955670    -0.5492050
  C       -0.1211040     1.0090560    -0.1118080
  C       -0.4973450    -1.4105120    -0.1972350
  C        2.5603930    -0.4317450     0.7423750
  C       -1.5372540     1.1223260     0.1526570
  C       -1.8319680    -1.2780450     0.0712850
  C       -2.3551590     0.0280850     0.2487950
  H        1.8855710    -1.4559800    -1.0561060
  H        2.0595230     0.3051280    -1.2266110
  H       -0.0197130    -2.3738180    -0.3527730
  H        2.4186300     0.5432120     1.2108420
  H        2.2423160    -1.2153800     1.4354410
  H        3.6255180    -0.5665000     0.5315230
  H       -1.9126600     2.1320090     0.2855670
  H       -2.4591310    -2.1595270     0.1391440
  H       -3.4140320     0.1624990     0.4585800
units angstrom
no_reorient  #important for SAPT in psi4, default
symmetry c1  #important for SAPT in psi4, default
}

set PROPERTIES_ORIGIN ["COM"]
properties('MP2/aug-cc-pvtz', properties = ['dipole'])
--------------------------------------------------------------------------

    Molecular point group: c1
  Charge       = 0
  Multiplicity = 1
  Basis Set: AUG-CC-PVTZ
    Blend: AUG-CC-PVTZ
  Basis Set: (AUG-CC-PVTZ AUX)
    Blend: AUG-CC-PVTZ-JKFIT

    Orbital Energies [Eh]
    ---------------------

    Doubly Occupied:

       1A    -20.505882     2A    -15.624902     3A    -11.349854
       4A    -11.308839     5A    -11.273182     6A    -11.271238
       7A    -11.240049     8A    -11.237577     9A    -11.220648
      10A     -1.369481    11A     -1.277383    12A     -1.119236
      13A     -1.031300    14A     -1.017841    15A     -0.895578
      16A     -0.870034    17A     -0.824791    18A     -0.714313
      19A     -0.700620    20A     -0.667415    21A     -0.639883
      22A     -0.613809    23A     -0.607151    24A     -0.605060
      25A     -0.560453    26A     -0.538435    27A     -0.529514
      28A     -0.525544    29A     -0.505065    30A     -0.474687
      31A     -0.421206    32A     -0.407682    33A     -0.308926

  @DF-RHF Final Energy:  -399.77136909833882

   => Energetics <=

    Nuclear Repulsion Energy =            437.6076232763153939
    One-Electron Energy =               -1410.2428316883313073
    Two-Electron Energy =                 572.8638393136770901
    Total Energy =                       -399.7713690983388233
  Basis Set: (AUG-CC-PVTZ AUX)
    Blend: AUG-CC-PVTZ-RI
    Molecular point group: c1

    Geometry (in Angstrom), charge = 0, multiplicity = 1:

       Center              X                  Y                   Z               Mass
    ------------   -----------------  -----------------  -----------------  -----------------
         O            0.732714964137     1.901910944716    -0.177139578317    15.994914619570
         N            0.355762164137    -0.356062555284    -0.285954778317    14.003074004430
         C            1.791691164137    -0.530954555284    -0.537187778317    12.000000000000
         C           -0.087468835863     0.973668444716    -0.099790778317    12.000000000000
         C           -0.463709835863    -1.445899555284    -0.185217778317    12.000000000000
         C            2.594028164137    -0.467132555284     0.754392221683    12.000000000000
         C           -1.503618835863     1.086938444716     0.164674221683    12.000000000000
         C           -1.798332835863    -1.313432555284     0.083302221683    12.000000000000
         C           -2.321523835863    -0.007302555284     0.260812221683    12.000000000000
         H            1.919206164137    -1.491367555284    -1.044088778317     1.007825032230
         H            2.093158164137     0.269740444716    -1.214593778317     1.007825032230
         H            0.013922164137    -2.409205555284    -0.340755778317     1.007825032230
         H            2.452265164137     0.507824444716     1.222859221683     1.007825032230
         H            2.275951164137    -1.250767555284     1.447458221683     1.007825032230
         H            3.659153164137    -0.601887555284     0.543540221683     1.007825032230
         H           -1.879024835863     2.096621444716     0.297584221683     1.007825032230
         H           -2.425495835863    -2.194914555284     0.151161221683     1.007825032230
         H           -3.380396835863     0.127111444716     0.470597221683     1.007825032230

  Basis Set: AUG-CC-PVTZ
    Blend: AUG-CC-PVTZ
  Basis Set: (AUG-CC-PVTZ AUX)
    Blend: AUG-CC-PVTZ-JKFIT
	 Reference Energy          =    -399.7713690983388233 [Eh]
	 Singles Energy            =      -0.0000000000000000 [Eh]
	 Same-Spin Energy          =      -0.4235323678328730 [Eh]
	 Opposite-Spin Energy      =      -1.3398641824033262 [Eh]
	 Correlation Energy        =      -1.7633965502361990 [Eh]
	 Total Energy              =    -401.5347656485750463 [Eh]

	 ================> DF-SCS-MP2 Energies <==================
	-----------------------------------------------------------
	 SCS Same-Spin Scale       =       0.3333333333333333 [-]
	 SCS Opposite-Spin Scale   =       1.2000000000000000 [-]
	 SCS Same-Spin Energy      =      -0.1411774559442910 [Eh]
	 SCS Opposite-Spin Energy  =      -1.6078370188839914 [Eh]
	 SCS Correlation Energy    =      -1.7490144748282823 [Eh]
	 SCS Total Energy          =    -401.5203835731671234 [Eh]
	-----------------------------------------------------------

  Dipole Moment: [D]
     X:    -0.7961      Y:    -3.7868      Z:     0.0383     Total:     3.8697

*** Psi4 exiting successfully. Buy a developer a beer!
