                               Psi4 1.3.2 release

  ==> Input File <==

--------------------------------------------------------------------------
#psi4
#
memory 32 gb

molecule  {
0 1
  O        0.6831730     1.9514370    -0.1851230
  N        0.4130688    -0.2848042    -0.3115088
  C        1.7580560    -0.4955670    -0.5492050
  C       -0.1211040     1.0090560    -0.1118080
  C       -0.4973450    -1.4105120    -0.1972350
  C        2.5603930    -0.4317450     0.7423750
  C       -1.5372540     1.1223260     0.1526570
  C       -1.8319680    -1.2780450     0.0712850
  C       -2.3551590     0.0280850     0.2487950
  H        1.8855710    -1.4559800    -1.0561060
  H        2.0595230     0.3051280    -1.2266110
  H       -0.0197130    -2.3738180    -0.3527730
  H        2.4186300     0.5432120     1.2108420
  H        2.2423160    -1.2153800     1.4354410
  H        3.6255180    -0.5665000     0.5315230
  H       -1.9126600     2.1320090     0.2855670
  H       -2.4591310    -2.1595270     0.1391440
  H       -3.4140320     0.1624990     0.4585800
units angstrom
no_reorient  #important for SAPT in psi4, default
symmetry c1  #important for SAPT in psi4, default
}

set PROPERTIES_ORIGIN ["COM"]
properties('MP2/aug-cc-pvtz', properties = ['dipole'])
--------------------------------------------------------------------------

    Molecular point group: c1
  Charge       = 0
  Multiplicity = 1
  Basis Set: AUG-CC-PVTZ
    Blend: AUG-CC-PVTZ
  Basis Set: (AUG-CC-PVTZ AUX)
    Blend: AUG-CC-PVTZ-JKFIT

    Orbital Energies [Eh]
    ---------------------

    Doubly Occupied:

       1A    -20.504109     2A    -15.620943     3A    -11.350067
       4A    -11.314559     5A    -11.274781     6A    -11.263270
       7A    -11.248317     8A    -11.243800     9A    -11.215816
      10A     -1.370120    11A     -1.269472    12A     -1.128840
      13A     -1.025943    14A     -1.015822    15A     -0.903451
      16A     -0.867085    17A     -0.817095    18A     -0.711951
      19A     -0.704345    20A     -0.678503    21A     -0.639298
      22A     -0.614061    23A     -0.606047    24A     -0.603499
      25A     -0.558877    26A     -0.540188    27A     -0.530360
      28A     -0.526449    29A     -0.498304    30A     -0.469413
      31A     -0.421332    32A     -0.401189    33A     -0.314377

  @DF-RHF Final Energy:  -399.75805615401731

   => Energetics <=

    Nuclear Repulsion Energy =            437.2675311171103658
    One-Electron Energy =               -1409.5478042915237893
    Two-Electron Energy =                 572.5222170203960559
    Total Energy =                       -399.7580561540173676
  Basis Set: (AUG-CC-PVTZ AUX)
    Blend: AUG-CC-PVTZ-RI
    Molecular point group: c1

    Geometry (in Angstrom), charge = 0, multiplicity = 1:

       Center              X                  Y                   Z               Mass
    ------------   -----------------  -----------------  -----------------  -----------------
         O            0.708527917279     1.910130415258    -0.172089786304    15.994914619570
         N            0.438423717279    -0.326110784742    -0.298475586304    14.003074004430
         C            1.783410917279    -0.536873584742    -0.536171786304    12.000000000000
         C           -0.095749082721     0.967749415258    -0.098774786304    12.000000000000
         C           -0.471990082721    -1.451818584742    -0.184201786304    12.000000000000
         C            2.585747917279    -0.473051584742     0.755408213696    12.000000000000
         C           -1.511899082721     1.081019415258     0.165690213696    12.000000000000
         C           -1.806613082721    -1.319351584742     0.084318213696    12.000000000000
         C           -2.329804082721    -0.013221584742     0.261828213696    12.000000000000
         H            1.910925917279    -1.497286584742    -1.043072786304     1.007825032230
         H            2.084877917279     0.263821415258    -1.213577786304     1.007825032230
         H            0.005641917279    -2.415124584742    -0.339739786304     1.007825032230
         H            2.443984917279     0.501905415258     1.223875213696     1.007825032230
         H            2.267670917279    -1.256686584742     1.448474213696     1.007825032230
         H            3.650872917279    -0.607806584742     0.544556213696     1.007825032230
         H           -1.887305082721     2.090702415258     0.298600213696     1.007825032230
         H           -2.433776082721    -2.200833584742     0.152177213696     1.007825032230
         H           -3.388677082721     0.121192415258     0.471613213696     1.007825032230

  Basis Set: AUG-CC-PVTZ
    Blend: AUG-CC-PVTZ
  Basis Set: (AUG-CC-PVTZ AUX)
    Blend: AUG-CC-PVTZ-JKFIT
	 Reference Energy          =    -399.7580561540173107 [Eh]
	 Singles Energy            =      -0.0000000000000000 [Eh]
	 Same-Spin Energy          =      -0.4233693773157742 [Eh]
	 Opposite-Spin Energy      =      -1.3410908062258728 [Eh]
	 Correlation Energy        =      -1.7644601835416469 [Eh]
	 Total Energy              =    -401.5225163375589545 [Eh]

	 ================> DF-SCS-MP2 Energies <==================
	-----------------------------------------------------------
	 SCS Same-Spin Scale       =       0.3333333333333333 [-]
	 SCS Opposite-Spin Scale   =       1.2000000000000000 [-]
	 SCS Same-Spin Energy      =      -0.1411231257719247 [Eh]
	 SCS Opposite-Spin Energy  =      -1.6093089674710475 [Eh]
	 SCS Correlation Energy    =      -1.7504320932429722 [Eh]
	 SCS Total Energy          =    -401.5084882472602885 [Eh]
	-----------------------------------------------------------

  Dipole Moment: [D]
     X:    -1.1352      Y:    -3.8088      Z:     0.0677     Total:     3.9750

*** Psi4 exiting successfully. Buy a developer a beer!
