                               Psi4 1.3.2 release

  ==> Input File <==

--------------------------------------------------------------------------
#psi4
#
memory 32 gb

molecule  {
0 1
  O        0.6670212     1.9652884    -0.1810669
  N        0.3221270    -0.3206750    -0.2979720
  C        1.7580560    -0.4955670    -0.5492050
  C       -0.1211040     1.0090560    -0.1118080
  C       -0.4973450    -1.4105120    -0.1972350
  C        2.5603930    -0.4317450     0.7423750
  C       -1.5372540     1.1223260     0.1526570
  C       -1.8319680    -1.2780450     0.0712850
  C       -2.3551590     0.0280850     0.2487950
  H        1.8855710    -1.4559800    -1.0561060
  H        2.0595230     0.3051280    -1.2266110
  H       -0.0197130    -2.3738180    -0.3527730
  H        2.4186300     0.5432120     1.2108420
  H        2.2423160    -1.2153800     1.4354410
  H        3.6255180    -0.5665000     0.5315230
  H       -1.9126600     2.1320090     0.2855670
  H       -2.4591310    -2.1595270     0.1391440
  H       -3.4140320     0.1624990     0.4585800
units angstrom
no_reorient  #important for SAPT in psi4, default
symmetry c1  #important for SAPT in psi4, default
}

set PROPERTIES_ORIGIN ["COM"]
properties('MP2/aug-cc-pvtz', properties = ['dipole'])
--------------------------------------------------------------------------

    Molecular point group: c1
  Charge       = 0
  Multiplicity = 1
  Basis Set: AUG-CC-PVTZ
    Blend: AUG-CC-PVTZ
  Basis Set: (AUG-CC-PVTZ AUX)
    Blend: AUG-CC-PVTZ-JKFIT

    Orbital Energies [Eh]
    ---------------------

    Doubly Occupied:

       1A    -20.506541     2A    -15.626041     3A    -11.349857
       4A    -11.308799     5A    -11.274404     6A    -11.269931
       7A    -11.240209     8A    -11.236537     9A    -11.221606
      10A     -1.368594    11A     -1.279180    12A     -1.118955
      13A     -1.031408    14A     -1.018122    15A     -0.895643
      16A     -0.870650    17A     -0.824910    18A     -0.714379
      19A     -0.700313    20A     -0.667416    21A     -0.640025
      22A     -0.614007    23A     -0.607938    24A     -0.605190
      25A     -0.560481    26A     -0.538604    27A     -0.529974
      28A     -0.526084    29A     -0.506069    30A     -0.475135
      31A     -0.421009    32A     -0.407760    33A     -0.308598

  @DF-RHF Final Energy:  -399.77149210766743

   => Energetics <=

    Nuclear Repulsion Energy =            437.2695803685415967
    One-Electron Energy =               -1409.5534020673760551
    Two-Electron Energy =                 572.5123295911670311
    Total Energy =                       -399.7714921076674273
  Basis Set: (AUG-CC-PVTZ AUX)
    Blend: AUG-CC-PVTZ-RI
    Molecular point group: c1

    Geometry (in Angstrom), charge = 0, multiplicity = 1:

       Center              X                  Y                   Z               Mass
    ------------   -----------------  -----------------  -----------------  -----------------
         O            0.704822945582     1.926263062718    -0.170101103745    15.994914619570
         N            0.359928745582    -0.359700337282    -0.287006203745    14.003074004430
         C            1.795857745582    -0.534592337282    -0.538239203745    12.000000000000
         C           -0.083302254418     0.970030662718    -0.100842203745    12.000000000000
         C           -0.459543254418    -1.449537337282    -0.186269203745    12.000000000000
         C            2.598194745582    -0.470770337282     0.753340796255    12.000000000000
         C           -1.499452254418     1.083300662718     0.163622796255    12.000000000000
         C           -1.794166254418    -1.317070337282     0.082250796255    12.000000000000
         C           -2.317357254418    -0.010940337282     0.259760796255    12.000000000000
         H            1.923372745582    -1.495005337282    -1.045140203745     1.007825032230
         H            2.097324745582     0.266102662718    -1.215645203745     1.007825032230
         H            0.018088745582    -2.412843337282    -0.341807203745     1.007825032230
         H            2.456431745582     0.504186662718     1.221807796255     1.007825032230
         H            2.280117745582    -1.254405337282     1.446406796255     1.007825032230
         H            3.663319745582    -0.605525337282     0.542488796255     1.007825032230
         H           -1.874858254418     2.092983662718     0.296532796255     1.007825032230
         H           -2.421329254418    -2.198552337282     0.150109796255     1.007825032230
         H           -3.376230254418     0.123473662718     0.469545796255     1.007825032230

  Basis Set: AUG-CC-PVTZ
    Blend: AUG-CC-PVTZ
  Basis Set: (AUG-CC-PVTZ AUX)
    Blend: AUG-CC-PVTZ-JKFIT
	 Reference Energy          =    -399.7714921076674273 [Eh]
	 Singles Energy            =      -0.0000000000000000 [Eh]
	 Same-Spin Energy          =      -0.4233867588260072 [Eh]
	 Opposite-Spin Energy      =      -1.3398319687069691 [Eh]
	 Correlation Energy        =      -1.7632187275329763 [Eh]
	 Total Energy              =    -401.5347108352004284 [Eh]

	 ================> DF-SCS-MP2 Energies <==================
	-----------------------------------------------------------
	 SCS Same-Spin Scale       =       0.3333333333333333 [-]
	 SCS Opposite-Spin Scale   =       1.2000000000000000 [-]
	 SCS Same-Spin Energy      =      -0.1411289196086691 [Eh]
	 SCS Opposite-Spin Energy  =      -1.6077983624483629 [Eh]
	 SCS Correlation Energy    =      -1.7489272820570321 [Eh]
	 SCS Total Energy          =    -401.5204193897244522 [Eh]
	-----------------------------------------------------------

  Dipole Moment: [D]
     X:    -0.7199      Y:    -3.8380      Z:     0.0257     Total:     3.9050

*** Psi4 exiting successfully. Buy a developer a beer!
