                               Psi4 1.3.2 release

  ==> Input File <==

--------------------------------------------------------------------------
#psi4
#
memory 32 gb

molecule  {
0 1
  O        0.6831730     1.9514370    -0.1851230
  N        0.3221270    -0.3206750    -0.2979720
  C        1.7580560    -0.4955670    -0.5492050
  C       -0.1211040     1.0090560    -0.1118080
  C       -0.4973450    -1.4105120    -0.1972350
  C        2.5603930    -0.4317450     0.7423750
  C       -1.6137485     1.1768757     0.1702788
  C       -1.8319680    -1.2780450     0.0712850
  C       -2.3551590     0.0280850     0.2487950
  H        1.8855710    -1.4559800    -1.0561060
  H        2.0595230     0.3051280    -1.2266110
  H       -0.0197130    -2.3738180    -0.3527730
  H        2.4186300     0.5432120     1.2108420
  H        2.2423160    -1.2153800     1.4354410
  H        3.6255180    -0.5665000     0.5315230
  H       -1.9126600     2.1320090     0.2855670
  H       -2.4591310    -2.1595270     0.1391440
  H       -3.4140320     0.1624990     0.4585800
units angstrom
no_reorient  #important for SAPT in psi4, default
symmetry c1  #important for SAPT in psi4, default
}

set PROPERTIES_ORIGIN ["COM"]
properties('MP2/aug-cc-pvtz', properties = ['dipole'])
--------------------------------------------------------------------------

    Molecular point group: c1
  Charge       = 0
  Multiplicity = 1
  Basis Set: AUG-CC-PVTZ
    Blend: AUG-CC-PVTZ
  Basis Set: (AUG-CC-PVTZ AUX)
    Blend: AUG-CC-PVTZ-JKFIT

    Orbital Energies [Eh]
    ---------------------

    Doubly Occupied:

       1A    -20.510956     2A    -15.624532     3A    -11.356584
       4A    -11.308382     5A    -11.274243     6A    -11.267423
       7A    -11.239827     8A    -11.239473     9A    -11.221276
      10A     -1.369648    11A     -1.278070    12A     -1.114974
      13A     -1.031034    14A     -1.013171    15A     -0.890243
      16A     -0.875484    17A     -0.819142    18A     -0.716588
      19A     -0.696600    20A     -0.673469    21A     -0.644400
      22A     -0.613677    23A     -0.607490    24A     -0.603076
      25A     -0.558144    26A     -0.549912    27A     -0.527917
      28A     -0.526635    29A     -0.506079    30A     -0.475224
      31A     -0.416745    32A     -0.408551    33A     -0.307163

  @DF-RHF Final Energy:  -399.76231794248139

   => Energetics <=

    Nuclear Repulsion Energy =            435.7258834876174092
    One-Electron Energy =               -1406.4441381835940774
    Two-Electron Energy =                 570.9559367534952798
    Total Energy =                       -399.7623179424813316
  Basis Set: (AUG-CC-PVTZ AUX)
    Blend: AUG-CC-PVTZ-RI
    Molecular point group: c1

    Geometry (in Angstrom), charge = 0, multiplicity = 1:

       Center              X                  Y                   Z               Mass
    ------------   -----------------  -----------------  -----------------  -----------------
         O            0.726334263244     1.908892933372    -0.175348286185    15.994914619570
         N            0.365288263244    -0.363219066628    -0.288197286185    14.003074004430
         C            1.801217263244    -0.538111066628    -0.539430286185    12.000000000000
         C           -0.077942736756     0.966511933372    -0.102033286185    12.000000000000
         C           -0.454183736756    -1.453056066628    -0.187460286185    12.000000000000
         C            2.603554263244    -0.474289066628     0.752149713815    12.000000000000
         C           -1.570587236756     1.134331633372     0.180053513815    12.000000000000
         C           -1.788806736756    -1.320589066628     0.081059713815    12.000000000000
         C           -2.311997736756    -0.014459066628     0.258569713815    12.000000000000
         H            1.928732263244    -1.498524066628    -1.046331286185     1.007825032230
         H            2.102684263244     0.262583933372    -1.216836286185     1.007825032230
         H            0.023448263244    -2.416362066628    -0.342998286185     1.007825032230
         H            2.461791263244     0.500667933372     1.220616713815     1.007825032230
         H            2.285477263244    -1.257924066628     1.445215713815     1.007825032230
         H            3.668679263244    -0.609044066628     0.541297713815     1.007825032230
         H           -1.869498736756     2.089464933372     0.295341713815     1.007825032230
         H           -2.415969736756    -2.202071066628     0.148918713815     1.007825032230
         H           -3.370870736756     0.119954933372     0.468354713815     1.007825032230

  Basis Set: AUG-CC-PVTZ
    Blend: AUG-CC-PVTZ
  Basis Set: (AUG-CC-PVTZ AUX)
    Blend: AUG-CC-PVTZ-JKFIT
	 Reference Energy          =    -399.7623179424813884 [Eh]
	 Singles Energy            =      -0.0000000000000000 [Eh]
	 Same-Spin Energy          =      -0.4221945746295287 [Eh]
	 Opposite-Spin Energy      =      -1.3393291540517702 [Eh]
	 Correlation Energy        =      -1.7615237286812988 [Eh]
	 Total Energy              =    -401.5238416711626996 [Eh]

	 ================> DF-SCS-MP2 Energies <==================
	-----------------------------------------------------------
	 SCS Same-Spin Scale       =       0.3333333333333333 [-]
	 SCS Opposite-Spin Scale   =       1.2000000000000000 [-]
	 SCS Same-Spin Energy      =      -0.1407315248765096 [Eh]
	 SCS Opposite-Spin Energy  =      -1.6071949848621243 [Eh]
	 SCS Correlation Energy    =      -1.7479265097386338 [Eh]
	 SCS Total Energy          =    -401.5102444522200358 [Eh]
	-----------------------------------------------------------

  Dipole Moment: [D]
     X:    -0.6329      Y:    -3.6585      Z:     0.0161     Total:     3.7129

*** Psi4 exiting successfully. Buy a developer a beer!
