                               Psi4 1.4a3.dev225

  ==> Input File <==

--------------------------------------------------------------------------
#psi4
#
memory 32 gb

molecule  {
0 1
  O        0.6831730     1.9514370    -0.1851230
  N        0.3221270    -0.3206750    -0.2979720
  C        1.7580560    -0.4955670    -0.5492050
  C       -0.1211040     1.0090560    -0.1118080
  C       -0.4973450    -1.4105120    -0.1972350
  C        2.5603930    -0.4317450     0.7423750
  C       -1.5372540     1.1223260     0.1526570
  C       -1.8319680    -1.2780450     0.0712850
  C       -2.3551590     0.0280850     0.2487950
  H        1.8855710    -1.4559800    -1.0561060
  H        2.0595230     0.3051280    -1.2266110
  H       -0.0197130    -2.3738180    -0.3527730
  H        2.4186300     0.5432120     1.2108420
  H        2.2423160    -1.2153800     1.4354410
  H        3.6255180    -0.5665000     0.5315230
  H       -1.9126600     2.1320090     0.2855670
  H       -2.4475592    -2.1432628     0.1378919
  H       -3.4140320     0.1624990     0.4585800
units angstrom
no_reorient  #important for SAPT in psi4, default
symmetry c1  #important for SAPT in psi4, default
}

set PROPERTIES_ORIGIN ["COM"]
properties('MP2/aug-cc-pvtz', properties = ['dipole'])
--------------------------------------------------------------------------

    Molecular point group: c1
  Charge       = 0
  Multiplicity = 1
  Basis Set: AUG-CC-PVTZ
    Blend: AUG-CC-PVTZ
  Basis Set: (AUG-CC-PVTZ AUX)
    Blend: AUG-CC-PVTZ-JKFIT

    Orbital Energies [Eh]
    ---------------------

    Doubly Occupied:

       1A    -20.506172     2A    -15.625387     3A    -11.349789
       4A    -11.308702     5A    -11.273746     6A    -11.270403
       7A    -11.237825     8A    -11.236936     9A    -11.221099
      10A     -1.368957    11A     -1.278218    12A     -1.119270
      13A     -1.031363    14A     -1.018427    15A     -0.895609
      16A     -0.870809    17A     -0.825331    18A     -0.715222
      19A     -0.701318    20A     -0.667617    21A     -0.640442
      22A     -0.613852    23A     -0.607554    24A     -0.605951
      25A     -0.561255    26A     -0.539319    27A     -0.529682
      28A     -0.525789    29A     -0.505570    30A     -0.474840
      31A     -0.421076    32A     -0.407629    33A     -0.308707

  @DF-RHF Final Energy:  -399.77163529015218

   => Energetics <=

    Nuclear Repulsion Energy =            437.5393421242828822
    One-Electron Energy =               -1410.0942233579414733
    Two-Electron Energy =                 572.7832459435063583
    Total Energy =                       -399.7716352901521759
  Basis Set: (AUG-CC-PVTZ AUX)
    Blend: AUG-CC-PVTZ-RI
    Molecular point group: c1

    Geometry (in Angstrom), charge = 0, multiplicity = 1:

       Center              X                  Y                   Z               Mass
    ------------   -----------------  -----------------  -----------------  -----------------
         O            0.718780770677     1.914078706974    -0.173619788263    15.994914619570
         N            0.357734770677    -0.358033293026    -0.286468788263    14.003074004430
         C            1.793663770677    -0.532925293026    -0.537701788263    12.000000000000
         C           -0.085496229323     0.971697706974    -0.100304788263    12.000000000000
         C           -0.461737229323    -1.447870293026    -0.185731788263    12.000000000000
         C            2.596000770677    -0.469103293026     0.753878211737    12.000000000000
         C           -1.501646229323     1.084967706974     0.164160211737    12.000000000000
         C           -1.796360229323    -1.315403293026     0.082788211737    12.000000000000
         C           -2.319551229323    -0.009273293026     0.260298211737    12.000000000000
         H            1.921178770677    -1.493338293026    -1.044602788263     1.007825032230
         H            2.095130770677     0.267769706974    -1.215107788263     1.007825032230
         H            0.015894770677    -2.411176293026    -0.341269788263     1.007825032230
         H            2.454237770677     0.505853706974     1.222345211737     1.007825032230
         H            2.277923770677    -1.252738293026     1.446944211737     1.007825032230
         H            3.661125770677    -0.603858293026     0.543026211737     1.007825032230
         H           -1.877052229323     2.094650706974     0.297070211737     1.007825032230
         H           -2.411951429323    -2.180621093026     0.149395111737     1.007825032230
         H           -3.378424229323     0.125140706974     0.470083211737     1.007825032230

  Basis Set: AUG-CC-PVTZ
    Blend: AUG-CC-PVTZ
  Basis Set: (AUG-CC-PVTZ AUX)
    Blend: AUG-CC-PVTZ-JKFIT
	 Reference Energy          =    -399.7716352901521759 [Eh]
	 Singles Energy            =      -0.0000000000000000 [Eh]
	 Same-Spin Energy          =      -0.4234244823808351 [Eh]
	 Opposite-Spin Energy      =      -1.3397110932206677 [Eh]
	 Correlation Energy        =      -1.7631355756015028 [Eh]
	 Total Energy              =    -401.5347708657536714 [Eh]

	 ================> DF-SCS-MP2 Energies <==================
	-----------------------------------------------------------
	 SCS Same-Spin Scale       =       0.3333333333333333 [-]
	 SCS Opposite-Spin Scale   =       1.2000000000000000 [-]
	 SCS Same-Spin Energy      =      -0.1411414941269450 [Eh]
	 SCS Opposite-Spin Energy  =      -1.6076533118648013 [Eh]
	 SCS Correlation Energy    =      -1.7487948059917464 [Eh]
	 SCS Total Energy          =    -401.5204300961439117 [Eh]
	-----------------------------------------------------------

  Dipole Moment: [D]
     X:    -0.7593      Y:    -3.8162      Z:     0.0318     Total:     3.8912

*** Psi4 exiting successfully. Buy a developer a beer!
