                               Psi4 1.3.2 release

  ==> Input File <==

--------------------------------------------------------------------------
#psi4
#
memory 32 gb

molecule  {
0 1
  O        0.6831730     1.9514370    -0.1851230
  N        0.3221270    -0.3206750    -0.2979720
  C        1.7580560    -0.4955670    -0.5492050
  C       -0.1211040     1.0090560    -0.1118080
  C       -0.4973450    -1.4105120    -0.1972350
  C        2.5603930    -0.4317450     0.7423750
  C       -1.5372540     1.1223260     0.1526570
  C       -1.8319680    -1.2780450     0.0712850
  C       -2.3364218     0.0139449     0.2442902
  H        1.8855710    -1.4559800    -1.0561060
  H        2.0595230     0.3051280    -1.2266110
  H       -0.0197130    -2.3738180    -0.3527730
  H        2.4186300     0.5432120     1.2108420
  H        2.2423160    -1.2153800     1.4354410
  H        3.6255180    -0.5665000     0.5315230
  H       -1.9126600     2.1320090     0.2855670
  H       -2.4591310    -2.1595270     0.1391440
  H       -3.4140320     0.1624990     0.4585800
units angstrom
no_reorient  #important for SAPT in psi4, default
symmetry c1  #important for SAPT in psi4, default
}

set PROPERTIES_ORIGIN ["COM"]
properties('MP2/aug-cc-pvtz', properties = ['dipole'])
--------------------------------------------------------------------------

    Molecular point group: c1
  Charge       = 0
  Multiplicity = 1
  Basis Set: AUG-CC-PVTZ
    Blend: AUG-CC-PVTZ
  Basis Set: (AUG-CC-PVTZ AUX)
    Blend: AUG-CC-PVTZ-JKFIT

    Orbital Energies [Eh]
    ---------------------

    Doubly Occupied:

       1A    -20.505018     2A    -15.626521     3A    -11.348692
       4A    -11.310072     5A    -11.274159     6A    -11.269999
       7A    -11.238801     8A    -11.236016     9A    -11.221368
      10A     -1.368560    11A     -1.278839    12A     -1.121832
      13A     -1.031132    14A     -1.019308    15A     -0.895661
      16A     -0.871373    17A     -0.823507    18A     -0.715369
      19A     -0.701598    20A     -0.665358    21A     -0.640292
      22A     -0.612360    23A     -0.608174    24A     -0.605262
      25A     -0.557102    26A     -0.542076    27A     -0.529544
      28A     -0.525764    29A     -0.506100    30A     -0.475720
      31A     -0.419786    32A     -0.408831    33A     -0.308356

  @DF-RHF Final Energy:  -399.77061891775361

   => Energetics <=

    Nuclear Repulsion Energy =            437.8310751134098950
    One-Electron Energy =               -1410.6782845823454409
    Two-Electron Energy =                 573.0765905511818801
    Total Energy =                       -399.7706189177536089
  Basis Set: (AUG-CC-PVTZ AUX)
    Blend: AUG-CC-PVTZ-RI
    Molecular point group: c1

    Geometry (in Angstrom), charge = 0, multiplicity = 1:

       Center              X                  Y                   Z               Mass
    ------------   -----------------  -----------------  -----------------  -----------------
         O            0.717048530507     1.915590651931    -0.173190793523    15.994914619570
         N            0.356002530507    -0.356521348069    -0.286039793523    14.003074004430
         C            1.791931530507    -0.531413348069    -0.537272793523    12.000000000000
         C           -0.087228469493     0.973209651931    -0.099875793523    12.000000000000
         C           -0.463469469493    -1.446358348069    -0.185302793523    12.000000000000
         C            2.594268530507    -0.467591348069     0.754307206477    12.000000000000
         C           -1.503378469493     1.086479651931     0.164589206477    12.000000000000
         C           -1.798092469493    -1.313891348069     0.083217206477    12.000000000000
         C           -2.302546269493    -0.021901448069     0.256222406477    12.000000000000
         H            1.919446530507    -1.491826348069    -1.044173793523     1.007825032230
         H            2.093398530507     0.269281651931    -1.214678793523     1.007825032230
         H            0.014162530507    -2.409664348069    -0.340840793523     1.007825032230
         H            2.452505530507     0.507365651931     1.222774206477     1.007825032230
         H            2.276191530507    -1.251226348069     1.447373206477     1.007825032230
         H            3.659393530507    -0.602346348069     0.543455206477     1.007825032230
         H           -1.878784469493     2.096162651931     0.297499206477     1.007825032230
         H           -2.425255469493    -2.195373348069     0.151076206477     1.007825032230
         H           -3.380156469493     0.126652651931     0.470512206477     1.007825032230

  Basis Set: AUG-CC-PVTZ
    Blend: AUG-CC-PVTZ
  Basis Set: (AUG-CC-PVTZ AUX)
    Blend: AUG-CC-PVTZ-JKFIT
	 Reference Energy          =    -399.7706189177536089 [Eh]
	 Singles Energy            =      -0.0000000000000000 [Eh]
	 Same-Spin Energy          =      -0.4237441090978113 [Eh]
	 Opposite-Spin Energy      =      -1.3399163659006716 [Eh]
	 Correlation Energy        =      -1.7636604749984830 [Eh]
	 Total Energy              =    -401.5342793927520688 [Eh]

	 ================> DF-SCS-MP2 Energies <==================
	-----------------------------------------------------------
	 SCS Same-Spin Scale       =       0.3333333333333333 [-]
	 SCS Opposite-Spin Scale   =       1.2000000000000000 [-]
	 SCS Same-Spin Energy      =      -0.1412480363659371 [Eh]
	 SCS Opposite-Spin Energy  =      -1.6078996390808060 [Eh]
	 SCS Correlation Energy    =      -1.7491476754467432 [Eh]
	 SCS Total Energy          =    -401.5197665932003588 [Eh]
	-----------------------------------------------------------

  Dipole Moment: [D]
     X:    -0.7363      Y:    -3.8511      Z:     0.0264     Total:     3.9210

*** Psi4 exiting successfully. Buy a developer a beer!
