                               Psi4 1.3.2 release

  ==> Input File <==

--------------------------------------------------------------------------
#psi4
#
memory 32 gb

molecule  {
0 1
  O        0.6831730     1.9514370    -0.1851230
  N        0.3136164    -0.3660240    -0.3202722
  C        1.7580560    -0.4955670    -0.5492050
  C       -0.1211040     1.0090560    -0.1118080
  C       -0.4973450    -1.4105120    -0.1972350
  C        2.5603930    -0.4317450     0.7423750
  C       -1.5372540     1.1223260     0.1526570
  C       -1.8319680    -1.2780450     0.0712850
  C       -2.3551590     0.0280850     0.2487950
  H        1.8855710    -1.4559800    -1.0561060
  H        2.0595230     0.3051280    -1.2266110
  H       -0.0197130    -2.3738180    -0.3527730
  H        2.4186300     0.5432120     1.2108420
  H        2.2423160    -1.2153800     1.4354410
  H        3.6255180    -0.5665000     0.5315230
  H       -1.9126600     2.1320090     0.2855670
  H       -2.4591310    -2.1595270     0.1391440
  H       -3.4140320     0.1624990     0.4585800
units angstrom
no_reorient  #important for SAPT in psi4, default
symmetry c1  #important for SAPT in psi4, default
}

set PROPERTIES_ORIGIN ["COM"]
properties('MP2/aug-cc-pvtz', properties = ['dipole'])
--------------------------------------------------------------------------

    Molecular point group: c1
  Charge       = 0
  Multiplicity = 1
  Basis Set: AUG-CC-PVTZ
    Blend: AUG-CC-PVTZ
  Basis Set: (AUG-CC-PVTZ AUX)
    Blend: AUG-CC-PVTZ-JKFIT

    Orbital Energies [Eh]
    ---------------------

    Doubly Occupied:

       1A    -20.512557     2A    -15.626963     3A    -11.355239
       4A    -11.306514     5A    -11.275295     6A    -11.270448
       7A    -11.235177     8A    -11.234303     9A    -11.222788
      10A     -1.369169    11A     -1.286906    12A     -1.117714
      13A     -1.035689    14A     -1.012738    15A     -0.896656
      16A     -0.866584    17A     -0.828908    18A     -0.714004
      19A     -0.700021    20A     -0.664629    21A     -0.641993
      22A     -0.616699    23A     -0.607746    24A     -0.603018
      25A     -0.562145    26A     -0.538972    27A     -0.531623
      28A     -0.525865    29A     -0.506375    30A     -0.480059
      31A     -0.422409    32A     -0.409087    33A     -0.304552

  @DF-RHF Final Energy:  -399.76773042141599

   => Energetics <=

    Nuclear Repulsion Energy =            437.1463476844929232
    One-Electron Energy =               -1409.2624626859296768
    Two-Electron Energy =                 572.3483845800208201
    Total Energy =                       -399.7677304214159903
  Basis Set: (AUG-CC-PVTZ AUX)
    Blend: AUG-CC-PVTZ-RI
    Molecular point group: c1

    Geometry (in Angstrom), charge = 0, multiplicity = 1:

       Center              X                  Y                   Z               Mass
    ------------   -----------------  -----------------  -----------------  -----------------
         O            0.719843894083     1.919371835001    -0.171092661738    15.994914619570
         N            0.350287294083    -0.398089164999    -0.306241861738    14.003074004430
         C            1.794726894083    -0.527632164999    -0.535174661738    12.000000000000
         C           -0.084433105917     0.976990835001    -0.097777661738    12.000000000000
         C           -0.460674105917    -1.442577164999    -0.183204661738    12.000000000000
         C            2.597063894083    -0.463810164999     0.756405338262    12.000000000000
         C           -1.500583105917     1.090260835001     0.166687338262    12.000000000000
         C           -1.795297105917    -1.310110164999     0.085315338262    12.000000000000
         C           -2.318488105917    -0.003980164999     0.262825338262    12.000000000000
         H            1.922241894083    -1.488045164999    -1.042075661738     1.007825032230
         H            2.096193894083     0.273062835001    -1.212580661738     1.007825032230
         H            0.016957894083    -2.405883164999    -0.338742661738     1.007825032230
         H            2.455300894083     0.511146835001     1.224872338262     1.007825032230
         H            2.278986894083    -1.247445164999     1.449471338262     1.007825032230
         H            3.662188894083    -0.598565164999     0.545553338262     1.007825032230
         H           -1.875989105917     2.099943835001     0.299597338262     1.007825032230
         H           -2.422460105917    -2.191592164999     0.153174338262     1.007825032230
         H           -3.377361105917     0.130433835001     0.472610338262     1.007825032230

  Basis Set: AUG-CC-PVTZ
    Blend: AUG-CC-PVTZ
  Basis Set: (AUG-CC-PVTZ AUX)
    Blend: AUG-CC-PVTZ-JKFIT
	 Reference Energy          =    -399.7677304214159903 [Eh]
	 Singles Energy            =      -0.0000000000000000 [Eh]
	 Same-Spin Energy          =      -0.4240906017695483 [Eh]
	 Opposite-Spin Energy      =      -1.3403284191969922 [Eh]
	 Correlation Energy        =      -1.7644190209665405 [Eh]
	 Total Energy              =    -401.5321494423825470 [Eh]

	 ================> DF-SCS-MP2 Energies <==================
	-----------------------------------------------------------
	 SCS Same-Spin Scale       =       0.3333333333333333 [-]
	 SCS Opposite-Spin Scale   =       1.2000000000000000 [-]
	 SCS Same-Spin Energy      =      -0.1413635339231827 [Eh]
	 SCS Opposite-Spin Energy  =      -1.6083941030363906 [Eh]
	 SCS Correlation Energy    =      -1.7497576369595733 [Eh]
	 SCS Total Energy          =    -401.5174880583755908 [Eh]
	-----------------------------------------------------------

  Dipole Moment: [D]
     X:    -0.5896      Y:    -3.6534      Z:     0.0350     Total:     3.7009

*** Psi4 exiting successfully. Buy a developer a beer!
