                               Psi4 1.3.2 release

  ==> Input File <==

--------------------------------------------------------------------------
#psi4
#
memory 32 gb

molecule  {
0 1
  O        0.6831730     1.9514370    -0.1851230
  N        0.3221270    -0.3206750    -0.2979720
  C        1.7580560    -0.4955670    -0.5492050
  C       -0.1211040     1.0090560    -0.1118080
  C       -0.4973450    -1.4105120    -0.1972350
  C        2.5603930    -0.4317450     0.7423750
  C       -1.5372540     1.1223260     0.1526570
  C       -1.8400049    -1.4207817     0.0635868
  C       -2.3551590     0.0280850     0.2487950
  H        1.8855710    -1.4559800    -1.0561060
  H        2.0595230     0.3051280    -1.2266110
  H       -0.0197130    -2.3738180    -0.3527730
  H        2.4186300     0.5432120     1.2108420
  H        2.2423160    -1.2153800     1.4354410
  H        3.6255180    -0.5665000     0.5315230
  H       -1.9126600     2.1320090     0.2855670
  H       -2.4591310    -2.1595270     0.1391440
  H       -3.4140320     0.1624990     0.4585800
units angstrom
no_reorient  #important for SAPT in psi4, default
symmetry c1  #important for SAPT in psi4, default
}

set PROPERTIES_ORIGIN ["COM"]
properties('MP2/aug-cc-pvtz', properties = ['dipole'])
--------------------------------------------------------------------------

    Molecular point group: c1
  Charge       = 0
  Multiplicity = 1
  Basis Set: AUG-CC-PVTZ
    Blend: AUG-CC-PVTZ
  Basis Set: (AUG-CC-PVTZ AUX)
    Blend: AUG-CC-PVTZ-JKFIT

    Orbital Energies [Eh]
    ---------------------

    Doubly Occupied:

       1A    -20.512670     2A    -15.623546     3A    -11.353709
       4A    -11.308004     5A    -11.280559     6A    -11.273729
       7A    -11.241392     8A    -11.240053     9A    -11.220630
      10A     -1.372090    11A     -1.276953    12A     -1.105253
      13A     -1.032972    14A     -1.017975    15A     -0.889685
      16A     -0.871307    17A     -0.828719    18A     -0.722193
      19A     -0.702559    20A     -0.666224    21A     -0.642359
      22A     -0.618739    23A     -0.609799    24A     -0.600302
      25A     -0.575154    26A     -0.537190    27A     -0.527651
      28A     -0.509611    29A     -0.504527    30A     -0.472258
      31A     -0.423351    32A     -0.399973    33A     -0.316985

  @DF-RHF Final Energy:  -399.74865589459279

   => Energetics <=

    Nuclear Repulsion Energy =            435.3602758497158902
    One-Electron Energy =               -1405.6616182081286297
    Two-Electron Energy =                 570.5526864638200095
    Total Energy =                       -399.7486558945927300
  Basis Set: (AUG-CC-PVTZ AUX)
    Blend: AUG-CC-PVTZ-RI
    Molecular point group: c1

    Geometry (in Angstrom), charge = 0, multiplicity = 1:

       Center              X                  Y                   Z               Mass
    ------------   -----------------  -----------------  -----------------  -----------------
         O            0.719659185750     1.928129687342    -0.172879415495    15.994914619570
         N            0.358613185750    -0.343982312658    -0.285728415495    14.003074004430
         C            1.794542185750    -0.518874312658    -0.536961415495    12.000000000000
         C           -0.084617814250     0.985748687342    -0.099564415495    12.000000000000
         C           -0.460858814250    -1.433819312658    -0.184991415495    12.000000000000
         C            2.596879185750    -0.455052312658     0.754618584505    12.000000000000
         C           -1.500767814250     1.099018687342     0.164900584505    12.000000000000
         C           -1.803518714250    -1.444089012658     0.075830384505    12.000000000000
         C           -2.318672814250     0.004777687342     0.261038584505    12.000000000000
         H            1.922057185750    -1.479287312658    -1.043862415495     1.007825032230
         H            2.096009185750     0.281820687342    -1.214367415495     1.007825032230
         H            0.016773185750    -2.397125312658    -0.340529415495     1.007825032230
         H            2.455116185750     0.519904687342     1.223085584505     1.007825032230
         H            2.278802185750    -1.238687312658     1.447684584505     1.007825032230
         H            3.662004185750    -0.589807312658     0.543766584505     1.007825032230
         H           -1.876173814250     2.108701687342     0.297810584505     1.007825032230
         H           -2.422644814250    -2.182834312658     0.151387584505     1.007825032230
         H           -3.377545814250     0.139191687342     0.470823584505     1.007825032230

  Basis Set: AUG-CC-PVTZ
    Blend: AUG-CC-PVTZ
  Basis Set: (AUG-CC-PVTZ AUX)
    Blend: AUG-CC-PVTZ-JKFIT
	 Reference Energy          =    -399.7486558945927868 [Eh]
	 Singles Energy            =      -0.0000000000000000 [Eh]
	 Same-Spin Energy          =      -0.4213148532568937 [Eh]
	 Opposite-Spin Energy      =      -1.3394316508249720 [Eh]
	 Correlation Energy        =      -1.7607465040818657 [Eh]
	 Total Energy              =    -401.5094023986746379 [Eh]

	 ================> DF-SCS-MP2 Energies <==================
	-----------------------------------------------------------
	 SCS Same-Spin Scale       =       0.3333333333333333 [-]
	 SCS Opposite-Spin Scale   =       1.2000000000000000 [-]
	 SCS Same-Spin Energy      =      -0.1404382844189646 [Eh]
	 SCS Opposite-Spin Energy  =      -1.6073179809899663 [Eh]
	 SCS Correlation Energy    =      -1.7477562654089307 [Eh]
	 SCS Total Energy          =    -401.4964121600017393 [Eh]
	-----------------------------------------------------------

  Dipole Moment: [D]
     X:    -0.7494      Y:    -3.5946      Z:     0.0401     Total:     3.6721

*** Psi4 exiting successfully. Buy a developer a beer!
