                               Psi4 1.3.2 release

  ==> Input File <==

--------------------------------------------------------------------------
#psi4
#
memory 32 gb

molecule  {
0 1
  O        0.6831730     1.9514370    -0.1851230
  N        0.3221270    -0.3206750    -0.2979720
  C        1.7580560    -0.4955670    -0.5492050
  C       -0.1211040     1.0090560    -0.1118080
  C       -0.4973450    -1.4105120    -0.1972350
  C        2.5603930    -0.4317450     0.7423750
  C       -1.6533743     1.2020674     0.1792386
  C       -1.8319680    -1.2780450     0.0712850
  C       -2.3551590     0.0280850     0.2487950
  H        1.8855710    -1.4559800    -1.0561060
  H        2.0595230     0.3051280    -1.2266110
  H       -0.0197130    -2.3738180    -0.3527730
  H        2.4186300     0.5432120     1.2108420
  H        2.2423160    -1.2153800     1.4354410
  H        3.6255180    -0.5665000     0.5315230
  H       -1.9126600     2.1320090     0.2855670
  H       -2.4591310    -2.1595270     0.1391440
  H       -3.4140320     0.1624990     0.4585800
units angstrom
no_reorient  #important for SAPT in psi4, default
symmetry c1  #important for SAPT in psi4, default
}

set PROPERTIES_ORIGIN ["COM"]
properties('MP2/aug-cc-pvtz', properties = ['dipole'])
--------------------------------------------------------------------------

    Molecular point group: c1
  Charge       = 0
  Multiplicity = 1
  Basis Set: AUG-CC-PVTZ
    Blend: AUG-CC-PVTZ
  Basis Set: (AUG-CC-PVTZ AUX)
    Blend: AUG-CC-PVTZ-JKFIT

    Orbital Energies [Eh]
    ---------------------

    Doubly Occupied:

       1A    -20.512968     2A    -15.624114     3A    -11.359044
       4A    -11.308470     5A    -11.274429     6A    -11.266692
       7A    -11.241039     8A    -11.239940     9A    -11.221340
      10A     -1.369843    11A     -1.277992    12A     -1.113344
      13A     -1.031279    14A     -1.011351    15A     -0.888784
      16A     -0.877862    17A     -0.817293    18A     -0.718335
      19A     -0.697374    20A     -0.675908    21A     -0.645396
      22A     -0.613535    23A     -0.607816    24A     -0.601360
      25A     -0.563074    26A     -0.548284    27A     -0.527008
      28A     -0.525783    29A     -0.506177    30A     -0.475399
      31A     -0.413314    32A     -0.408800    33A     -0.306704

  @DF-RHF Final Energy:  -399.74940112624091

   => Energetics <=

    Nuclear Repulsion Energy =            434.9114214346876679
    One-Electron Energy =               -1404.7815454302933631
    Two-Electron Energy =                 570.1207228693648403
    Total Energy =                       -399.7494011262408549
  Basis Set: (AUG-CC-PVTZ AUX)
    Blend: AUG-CC-PVTZ-RI
    Molecular point group: c1

    Geometry (in Angstrom), charge = 0, multiplicity = 1:

       Center              X                  Y                   Z               Mass
    ------------   -----------------  -----------------  -----------------  -----------------
         O            0.730198045874     1.906436572796    -0.176221927086    15.994914619570
         N            0.369152045874    -0.365675427204    -0.289070927086    14.003074004430
         C            1.805081045874    -0.540567427204    -0.540303927086    12.000000000000
         C           -0.074078954126     0.964055572796    -0.102906927086    12.000000000000
         C           -0.450319954126    -1.455512427204    -0.188333927086    12.000000000000
         C            2.607418045874    -0.476745427204     0.751276072914    12.000000000000
         C           -1.606349254126     1.157066972796     0.188139672914    12.000000000000
         C           -1.784942954126    -1.323045427204     0.080186072914    12.000000000000
         C           -2.308133954126    -0.016915427204     0.257696072914    12.000000000000
         H            1.932596045874    -1.500980427204    -1.047204927086     1.007825032230
         H            2.106548045874     0.260127572796    -1.217709927086     1.007825032230
         H            0.027312045874    -2.418818427204    -0.343871927086     1.007825032230
         H            2.465655045874     0.498211572796     1.219743072914     1.007825032230
         H            2.289341045874    -1.260380427204     1.444342072914     1.007825032230
         H            3.672543045874    -0.611500427204     0.540424072914     1.007825032230
         H           -1.865634954126     2.087008572796     0.294468072914     1.007825032230
         H           -2.412105954126    -2.204527427204     0.148045072914     1.007825032230
         H           -3.367006954126     0.117498572796     0.467481072914     1.007825032230

  Basis Set: AUG-CC-PVTZ
    Blend: AUG-CC-PVTZ
  Basis Set: (AUG-CC-PVTZ AUX)
    Blend: AUG-CC-PVTZ-JKFIT
	 Reference Energy          =    -399.7494011262409117 [Eh]
	 Singles Energy            =      -0.0000000000000000 [Eh]
	 Same-Spin Energy          =      -0.4218138371126965 [Eh]
	 Opposite-Spin Energy      =      -1.3396142286455852 [Eh]
	 Correlation Energy        =      -1.7614280657582817 [Eh]
	 Total Energy              =    -401.5108291919992212 [Eh]

	 ================> DF-SCS-MP2 Energies <==================
	-----------------------------------------------------------
	 SCS Same-Spin Scale       =       0.3333333333333333 [-]
	 SCS Opposite-Spin Scale   =       1.2000000000000000 [-]
	 SCS Same-Spin Energy      =      -0.1406046123708988 [Eh]
	 SCS Opposite-Spin Energy  =      -1.6075370743747022 [Eh]
	 SCS Correlation Energy    =      -1.7481416867456010 [Eh]
	 SCS Total Energy          =    -401.4975428129865236 [Eh]
	-----------------------------------------------------------

  Dipole Moment: [D]
     X:    -0.5686      Y:    -3.5939      Z:     0.0075     Total:     3.6386

*** Psi4 exiting successfully. Buy a developer a beer!
