                               Psi4 1.3.2 release

  ==> Input File <==

--------------------------------------------------------------------------
#psi4
#
memory 32 gb

molecule  {
0 1
  O        0.6831730     1.9514370    -0.1851230
  N        0.3587116    -0.3500393    -0.3067419
  C        1.7580560    -0.4955670    -0.5492050
  C       -0.1211040     1.0090560    -0.1118080
  C       -0.4973450    -1.4105120    -0.1972350
  C        2.5603930    -0.4317450     0.7423750
  C       -1.5372540     1.1223260     0.1526570
  C       -1.8319680    -1.2780450     0.0712850
  C       -2.3551590     0.0280850     0.2487950
  H        1.8855710    -1.4559800    -1.0561060
  H        2.0595230     0.3051280    -1.2266110
  H       -0.0197130    -2.3738180    -0.3527730
  H        2.4186300     0.5432120     1.2108420
  H        2.2423160    -1.2153800     1.4354410
  H        3.6255180    -0.5665000     0.5315230
  H       -1.9126600     2.1320090     0.2855670
  H       -2.4591310    -2.1595270     0.1391440
  H       -3.4140320     0.1624990     0.4585800
units angstrom
no_reorient  #important for SAPT in psi4, default
symmetry c1  #important for SAPT in psi4, default
}

set PROPERTIES_ORIGIN ["COM"]
properties('MP2/aug-cc-pvtz', properties = ['dipole'])
--------------------------------------------------------------------------

    Molecular point group: c1
  Charge       = 0
  Multiplicity = 1
  Basis Set: AUG-CC-PVTZ
    Blend: AUG-CC-PVTZ
  Basis Set: (AUG-CC-PVTZ AUX)
    Blend: AUG-CC-PVTZ-JKFIT

    Orbital Energies [Eh]
    ---------------------

    Doubly Occupied:

       1A    -20.511289     2A    -15.625038     3A    -11.354809
       4A    -11.309874     5A    -11.272428     6A    -11.270118
       7A    -11.239401     8A    -11.237639     9A    -11.219747
      10A     -1.369101    11A     -1.280691    12A     -1.122435
      13A     -1.032544    14A     -1.012402    15A     -0.899622
      16A     -0.864402    17A     -0.826394    18A     -0.712750
      19A     -0.701810    20A     -0.670075    21A     -0.641448
      22A     -0.614986    23A     -0.606998    24A     -0.603081
      25A     -0.562000    26A     -0.537205    27A     -0.532611
      28A     -0.527687    29A     -0.503654    30A     -0.476182
      31A     -0.422868    32A     -0.407004    33A     -0.307559

  @DF-RHF Final Energy:  -399.76782830674944

   => Energetics <=

    Nuclear Repulsion Energy =            437.1042501925542183
    One-Electron Energy =               -1409.1924479840793083
    Two-Electron Energy =                 572.3203694847757106
    Total Energy =                       -399.7678283067493794
  Basis Set: (AUG-CC-PVTZ AUX)
    Blend: AUG-CC-PVTZ-RI
    Molecular point group: c1

    Geometry (in Angstrom), charge = 0, multiplicity = 1:

       Center              X                  Y                   Z               Mass
    ------------   -----------------  -----------------  -----------------  -----------------
         O            0.714712834027     1.917553050392    -0.172632177737    15.994914619570
         N            0.390251434027    -0.383923249608    -0.294251077737    14.003074004430
         C            1.789595834027    -0.529450949608    -0.536714177737    12.000000000000
         C           -0.089564165973     0.975172050392    -0.099317177737    12.000000000000
         C           -0.465805165973    -1.444395949608    -0.184744177737    12.000000000000
         C            2.591932834027    -0.465628949608     0.754865822263    12.000000000000
         C           -1.505714165973     1.088442050392     0.165147822263    12.000000000000
         C           -1.800428165973    -1.311928949608     0.083775822263    12.000000000000
         C           -2.323619165973    -0.005798949608     0.261285822263    12.000000000000
         H            1.917110834027    -1.489863949608    -1.043615177737     1.007825032230
         H            2.091062834027     0.271244050392    -1.214120177737     1.007825032230
         H            0.011826834027    -2.407701949608    -0.340282177737     1.007825032230
         H            2.450169834027     0.509328050392     1.223332822263     1.007825032230
         H            2.273855834027    -1.249263949608     1.447931822263     1.007825032230
         H            3.657057834027    -0.600383949608     0.544013822263     1.007825032230
         H           -1.881120165973     2.098125050392     0.298057822263     1.007825032230
         H           -2.427591165973    -2.193410949608     0.151634822263     1.007825032230
         H           -3.382492165973     0.128615050392     0.471070822263     1.007825032230

  Basis Set: AUG-CC-PVTZ
    Blend: AUG-CC-PVTZ
  Basis Set: (AUG-CC-PVTZ AUX)
    Blend: AUG-CC-PVTZ-JKFIT
	 Reference Energy          =    -399.7678283067494363 [Eh]
	 Singles Energy            =      -0.0000000000000000 [Eh]
	 Same-Spin Energy          =      -0.4238975154510346 [Eh]
	 Opposite-Spin Energy      =      -1.3405478186641793 [Eh]
	 Correlation Energy        =      -1.7644453341152140 [Eh]
	 Total Energy              =    -401.5322736408646733 [Eh]

	 ================> DF-SCS-MP2 Energies <==================
	-----------------------------------------------------------
	 SCS Same-Spin Scale       =       0.3333333333333333 [-]
	 SCS Opposite-Spin Scale   =       1.2000000000000000 [-]
	 SCS Same-Spin Energy      =      -0.1412991718170115 [Eh]
	 SCS Opposite-Spin Energy  =      -1.6086573823970152 [Eh]
	 SCS Correlation Energy    =      -1.7499565542140267 [Eh]
	 SCS Total Energy          =    -401.5177848609634452 [Eh]
	-----------------------------------------------------------

  Dipole Moment: [D]
     X:    -0.7817      Y:    -3.6563      Z:     0.0391     Total:     3.7392

*** Psi4 exiting successfully. Buy a developer a beer!
