                               Psi4 1.4a3.dev225

  ==> Input File <==

--------------------------------------------------------------------------
#psi4
#
memory 32 gb

molecule  {
0 1
  O        0.6831730     1.9514370    -0.1851230
  N        0.3221270    -0.3206750    -0.2979720
  C        1.7580560    -0.4955670    -0.5492050
  C       -0.1273733     1.0278646    -0.1091748
  C       -0.4973450    -1.4105120    -0.1972350
  C        2.5603930    -0.4317450     0.7423750
  C       -1.5372540     1.1223260     0.1526570
  C       -1.8319680    -1.2780450     0.0712850
  C       -2.3551590     0.0280850     0.2487950
  H        1.8855710    -1.4559800    -1.0561060
  H        2.0595230     0.3051280    -1.2266110
  H       -0.0197130    -2.3738180    -0.3527730
  H        2.4186300     0.5432120     1.2108420
  H        2.2423160    -1.2153800     1.4354410
  H        3.6255180    -0.5665000     0.5315230
  H       -1.9126600     2.1320090     0.2855670
  H       -2.4591310    -2.1595270     0.1391440
  H       -3.4140320     0.1624990     0.4585800
units angstrom
no_reorient  #important for SAPT in psi4, default
symmetry c1  #important for SAPT in psi4, default
}

set PROPERTIES_ORIGIN ["COM"]
properties('MP2/aug-cc-pvtz', properties = ['dipole'])
--------------------------------------------------------------------------

    Molecular point group: c1
  Charge       = 0
  Multiplicity = 1
  Basis Set: AUG-CC-PVTZ
    Blend: AUG-CC-PVTZ
  Basis Set: (AUG-CC-PVTZ AUX)
    Blend: AUG-CC-PVTZ-JKFIT

    Orbital Energies [Eh]
    ---------------------

    Doubly Occupied:

       1A    -20.509143     2A    -15.623434     3A    -11.350609
       4A    -11.308577     5A    -11.272907     6A    -11.271463
       7A    -11.238557     8A    -11.235557     9A    -11.220684
      10A     -1.373338    11A     -1.277016    12A     -1.118486
      13A     -1.031430    14A     -1.016035    15A     -0.895597
      16A     -0.866028    17A     -0.825579    18A     -0.712853
      19A     -0.700825    20A     -0.667227    21A     -0.638663
      22A     -0.613180    23A     -0.608166    24A     -0.605675
      25A     -0.561789    26A     -0.537779    27A     -0.530757
      28A     -0.525968    29A     -0.504778    30A     -0.477482
      31A     -0.422858    32A     -0.406652    33A     -0.308180

  @DF-RHF Final Energy:  -399.77112869516759

   => Energetics <=

    Nuclear Repulsion Energy =            437.2732794202008222
    One-Electron Energy =               -1409.5742721354019977
    Two-Electron Energy =                 572.5298640200335285
    Total Energy =                       -399.7711286951675902
  Basis Set: (AUG-CC-PVTZ AUX)
    Blend: AUG-CC-PVTZ-RI
    Molecular point group: c1

    Geometry (in Angstrom), charge = 0, multiplicity = 1:

       Center              X                  Y                   Z               Mass
    ------------   -----------------  -----------------  -----------------  -----------------
         O            0.719486832834     1.912377931564    -0.173886796642    15.994914619570
         N            0.358440832834    -0.359734068436    -0.286735796642    14.003074004430
         C            1.794369832834    -0.534626068436    -0.537968796642    12.000000000000
         C           -0.091059467166     0.988805531564    -0.097938596642    12.000000000000
         C           -0.461031167166    -1.449571068436    -0.185998796642    12.000000000000
         C            2.596706832834    -0.470804068436     0.753611203358    12.000000000000
         C           -1.500940167166     1.083266931564     0.163893203358    12.000000000000
         C           -1.795654167166    -1.317104068436     0.082521203358    12.000000000000
         C           -2.318845167166    -0.010974068436     0.260031203358    12.000000000000
         H            1.921884832834    -1.495039068436    -1.044869796642     1.007825032230
         H            2.095836832834     0.266068931564    -1.215374796642     1.007825032230
         H            0.016600832834    -2.412877068436    -0.341536796642     1.007825032230
         H            2.454943832834     0.504152931564     1.222078203358     1.007825032230
         H            2.278629832834    -1.254439068436     1.446677203358     1.007825032230
         H            3.661831832834    -0.605559068436     0.542759203358     1.007825032230
         H           -1.876346167166     2.092949931564     0.296803203358     1.007825032230
         H           -2.422817167166    -2.198586068436     0.150380203358     1.007825032230
         H           -3.377718167166     0.123439931564     0.469816203358     1.007825032230

  Basis Set: AUG-CC-PVTZ
    Blend: AUG-CC-PVTZ
  Basis Set: (AUG-CC-PVTZ AUX)
    Blend: AUG-CC-PVTZ-JKFIT
	 Reference Energy          =    -399.7711286951675902 [Eh]
	 Singles Energy            =      -0.0000000000000000 [Eh]
	 Same-Spin Energy          =      -0.4235318726354929 [Eh]
	 Opposite-Spin Energy      =      -1.3398056067986046 [Eh]
	 Correlation Energy        =      -1.7633374794340975 [Eh]
	 Total Energy              =    -401.5344661746016754 [Eh]

	 ================> DF-SCS-MP2 Energies <==================
	-----------------------------------------------------------
	 SCS Same-Spin Scale       =       0.3333333333333333 [-]
	 SCS Opposite-Spin Scale   =       1.2000000000000000 [-]
	 SCS Same-Spin Energy      =      -0.1411772908784976 [Eh]
	 SCS Opposite-Spin Energy  =      -1.6077667281583254 [Eh]
	 SCS Correlation Energy    =      -1.7489440190368231 [Eh]
	 SCS Total Energy          =    -401.5200727142043888 [Eh]
	-----------------------------------------------------------

  Dipole Moment: [D]
     X:    -0.7293      Y:    -3.7123      Z:     0.0315     Total:     3.7834

*** Psi4 exiting successfully. Buy a developer a beer!
