                               Psi4 1.4a3.dev225

  ==> Input File <==

--------------------------------------------------------------------------
#psi4
#
memory 32 gb

molecule  {
0 1
  O        0.6831730     1.9514370    -0.1851230
  N        0.3221270    -0.3206750    -0.2979720
  C        1.7580560    -0.4955670    -0.5492050
  C       -0.1211040     1.0090560    -0.1118080
  C       -0.4973450    -1.4105120    -0.1972350
  C        2.5603930    -0.4317450     0.7423750
  C       -1.5372540     1.1223260     0.1526570
  C       -1.8319680    -1.2780450     0.0712850
  C       -2.3551590     0.0280850     0.2487950
  H        1.8855710    -1.4559800    -1.0561060
  H        2.0595230     0.3051280    -1.2266110
  H       -0.0197130    -2.3738180    -0.3527730
  H        2.4186300     0.5432120     1.2108420
  H        2.2423160    -1.2153800     1.4354410
  H        3.6255180    -0.5665000     0.5315230
  H       -1.9126600     2.1320090     0.2855670
  H       -2.4707028    -2.1757912     0.1403961
  H       -3.4140320     0.1624990     0.4585800
units angstrom
no_reorient  #important for SAPT in psi4, default
symmetry c1  #important for SAPT in psi4, default
}

set PROPERTIES_ORIGIN ["COM"]
properties('MP2/aug-cc-pvtz', properties = ['dipole'])
--------------------------------------------------------------------------

    Molecular point group: c1
  Charge       = 0
  Multiplicity = 1
  Basis Set: AUG-CC-PVTZ
    Blend: AUG-CC-PVTZ
  Basis Set: (AUG-CC-PVTZ AUX)
    Blend: AUG-CC-PVTZ-JKFIT

    Orbital Energies [Eh]
    ---------------------

    Doubly Occupied:

       1A    -20.506271     2A    -15.625568     3A    -11.349919
       4A    -11.308963     5A    -11.273855     6A    -11.270791
       7A    -11.242410     8A    -11.237188     9A    -11.221161
      10A     -1.369081    11A     -1.278368    12A     -1.118959
      13A     -1.031365    14A     -1.017585    15A     -0.895623
      16A     -0.869936    17A     -0.824420    18A     -0.713649
      19A     -0.699576    20A     -0.667223    21A     -0.639483
      22A     -0.613969    23A     -0.607343    24A     -0.604496
      25A     -0.559694    26A     -0.537583    27A     -0.529809
      28A     -0.525881    29A     -0.505560    30A     -0.474998
      31A     -0.421198    32A     -0.407830    33A     -0.308839

  @DF-RHF Final Energy:  -399.77087951089328

   => Energetics <=

    Nuclear Repulsion Energy =            437.3329421508214523
    One-Electron Energy =               -1409.6904552627447629
    Two-Electron Energy =                 572.5866336010299165
    Total Energy =                       -399.7708795108933373
  Basis Set: (AUG-CC-PVTZ AUX)
    Blend: AUG-CC-PVTZ-RI
    Molecular point group: c1

    Geometry (in Angstrom), charge = 0, multiplicity = 1:

       Center              X                  Y                   Z               Mass
    ------------   -----------------  -----------------  -----------------  -----------------
         O            0.718970296963     1.914345086744    -0.173640295519    15.994914619570
         N            0.357924296963    -0.357766913256    -0.286489295519    14.003074004430
         C            1.793853296963    -0.532658913256    -0.537722295519    12.000000000000
         C           -0.085306703037     0.971964086744    -0.100325295519    12.000000000000
         C           -0.461547703037    -1.447603913256    -0.185752295519    12.000000000000
         C            2.596190296963    -0.468836913256     0.753857704481    12.000000000000
         C           -1.501456703037     1.085234086744     0.164139704481    12.000000000000
         C           -1.796170703037    -1.315136913256     0.082767704481    12.000000000000
         C           -2.319361703037    -0.009006913256     0.260277704481    12.000000000000
         H            1.921368296963    -1.493071913256    -1.044623295519     1.007825032230
         H            2.095320296963     0.268036086744    -1.215128295519     1.007825032230
         H            0.016084296963    -2.410909913256    -0.341290295519     1.007825032230
         H            2.454427296963     0.506120086744     1.222324704481     1.007825032230
         H            2.278113296963    -1.252471913256     1.446923704481     1.007825032230
         H            3.661315296963    -0.603591913256     0.543005704481     1.007825032230
         H           -1.876862703037     2.094917086744     0.297049704481     1.007825032230
         H           -2.434905503037    -2.212883113256     0.151878804481     1.007825032230
         H           -3.378234703037     0.125407086744     0.470062704481     1.007825032230

  Basis Set: AUG-CC-PVTZ
    Blend: AUG-CC-PVTZ
  Basis Set: (AUG-CC-PVTZ AUX)
    Blend: AUG-CC-PVTZ-JKFIT
	 Reference Energy          =    -399.7708795108932804 [Eh]
	 Singles Energy            =      -0.0000000000000000 [Eh]
	 Same-Spin Energy          =      -0.4234885211338190 [Eh]
	 Opposite-Spin Energy      =      -1.3399869308564316 [Eh]
	 Correlation Energy        =      -1.7634754519902507 [Eh]
	 Total Energy              =    -401.5343549628835262 [Eh]

	 ================> DF-SCS-MP2 Energies <==================
	-----------------------------------------------------------
	 SCS Same-Spin Scale       =       0.3333333333333333 [-]
	 SCS Opposite-Spin Scale   =       1.2000000000000000 [-]
	 SCS Same-Spin Energy      =      -0.1411628403779396 [Eh]
	 SCS Opposite-Spin Energy  =      -1.6079843170277179 [Eh]
	 SCS Correlation Energy    =      -1.7491471574056576 [Eh]
	 SCS Total Energy          =    -401.5200266682989536 [Eh]
	-----------------------------------------------------------

  Dipole Moment: [D]
     X:    -0.7570      Y:    -3.8091      Z:     0.0322     Total:     3.8837

*** Psi4 exiting successfully. Buy a developer a beer!
