                               Psi4 1.3.2 release

  ==> Input File <==

--------------------------------------------------------------------------
#psi4
#
memory 32 gb

molecule  {
0 1
  O        0.6831730     1.9514370    -0.1851230
  N        0.3221270    -0.3206750    -0.2979720
  C        1.7580560    -0.4955670    -0.5492050
  C       -0.1211040     1.0090560    -0.1118080
  C       -0.4973450    -1.4105120    -0.1972350
  C        2.5603930    -0.4317450     0.7423750
  C       -1.5372540     1.1223260     0.1526570
  C       -2.0271173    -1.2586756     0.1105481
  C       -2.3551590     0.0280850     0.2487950
  H        1.8855710    -1.4559800    -1.0561060
  H        2.0595230     0.3051280    -1.2266110
  H       -0.0197130    -2.3738180    -0.3527730
  H        2.4186300     0.5432120     1.2108420
  H        2.2423160    -1.2153800     1.4354410
  H        3.6255180    -0.5665000     0.5315230
  H       -1.9126600     2.1320090     0.2855670
  H       -2.4591310    -2.1595270     0.1391440
  H       -3.4140320     0.1624990     0.4585800
units angstrom
no_reorient  #important for SAPT in psi4, default
symmetry c1  #important for SAPT in psi4, default
}

set PROPERTIES_ORIGIN ["COM"]
properties('MP2/aug-cc-pvtz', properties = ['dipole'])
--------------------------------------------------------------------------

    Molecular point group: c1
  Charge       = 0
  Multiplicity = 1
  Basis Set: AUG-CC-PVTZ
    Blend: AUG-CC-PVTZ
  Basis Set: (AUG-CC-PVTZ AUX)
    Blend: AUG-CC-PVTZ-JKFIT

    Orbital Energies [Eh]
    ---------------------

    Doubly Occupied:

       1A    -20.500093     2A    -15.647344     3A    -11.345733
       4A    -11.342697     5A    -11.281447     6A    -11.259286
       7A    -11.246867     8A    -11.226709     9A    -11.223767
      10A     -1.368652    11A     -1.282445    12A     -1.119523
      13A     -1.034717    14A     -1.007659    15A     -0.904318
      16A     -0.879786    17A     -0.821109    18A     -0.720063
      19A     -0.700690    20A     -0.673979    21A     -0.651337
      22A     -0.621394    23A     -0.615149    24A     -0.590954
      25A     -0.564250    26A     -0.548095    27A     -0.531804
      28A     -0.511678    29A     -0.503529    30A     -0.468135
      31A     -0.420802    32A     -0.414312    33A     -0.288354

  @DF-RHF Final Energy:  -399.72227093380906

   => Energetics <=

    Nuclear Repulsion Energy =            435.1153957380109887
    One-Electron Energy =               -1405.0419803324425629
    Two-Electron Energy =                 570.2043136606224607
    Total Energy =                       -399.7222709338091136
  Basis Set: (AUG-CC-PVTZ AUX)
    Blend: AUG-CC-PVTZ-RI
    Molecular point group: c1

    Geometry (in Angstrom), charge = 0, multiplicity = 1:

       Center              X                  Y                   Z               Mass
    ------------   -----------------  -----------------  -----------------  -----------------
         O            0.737903906134     1.912323249783    -0.177458458826    15.994914619570
         N            0.376857906134    -0.359788750217    -0.290307458826    14.003074004430
         C            1.812786906134    -0.534680750217    -0.541540458826    12.000000000000
         C           -0.066373093866     0.969942249783    -0.104143458826    12.000000000000
         C           -0.442614093866    -1.449625750217    -0.189570458826    12.000000000000
         C            2.615123906134    -0.470858750217     0.750039541174    12.000000000000
         C           -1.482523093866     1.083212249783     0.160321541174    12.000000000000
         C           -1.972386393866    -1.297789350217     0.118212641174    12.000000000000
         C           -2.300428093866    -0.011028750217     0.256459541174    12.000000000000
         H            1.940301906134    -1.495093750217    -1.048441458826     1.007825032230
         H            2.114253906134     0.266014249783    -1.218946458826     1.007825032230
         H            0.035017906134    -2.412931750217    -0.345108458826     1.007825032230
         H            2.473360906134     0.504098249783     1.218506541174     1.007825032230
         H            2.297046906134    -1.254493750217     1.443105541174     1.007825032230
         H            3.680248906134    -0.605613750217     0.539187541174     1.007825032230
         H           -1.857929093866     2.092895249783     0.293231541174     1.007825032230
         H           -2.404400093866    -2.198640750217     0.146808541174     1.007825032230
         H           -3.359301093866     0.123385249783     0.466244541174     1.007825032230

  Basis Set: AUG-CC-PVTZ
    Blend: AUG-CC-PVTZ
  Basis Set: (AUG-CC-PVTZ AUX)
    Blend: AUG-CC-PVTZ-JKFIT
	 Reference Energy          =    -399.7222709338090567 [Eh]
	 Singles Energy            =      -0.0000000000000000 [Eh]
	 Same-Spin Energy          =      -0.4266253313016287 [Eh]
	 Opposite-Spin Energy      =      -1.3441358972888289 [Eh]
	 Correlation Energy        =      -1.7707612285904575 [Eh]
	 Total Energy              =    -401.4930321623995155 [Eh]

	 ================> DF-SCS-MP2 Energies <==================
	-----------------------------------------------------------
	 SCS Same-Spin Scale       =       0.3333333333333333 [-]
	 SCS Opposite-Spin Scale   =       1.2000000000000000 [-]
	 SCS Same-Spin Energy      =      -0.1422084437672096 [Eh]
	 SCS Opposite-Spin Energy  =      -1.6129630767465946 [Eh]
	 SCS Correlation Energy    =      -1.7551715205138041 [Eh]
	 SCS Total Energy          =    -401.4774424543228406 [Eh]
	-----------------------------------------------------------

  Dipole Moment: [D]
     X:    -0.4847      Y:    -4.0462      Z:    -0.0072     Total:     4.0751

*** Psi4 exiting successfully. Buy a developer a beer!
