                               Psi4 1.3.2 release

  ==> Input File <==

--------------------------------------------------------------------------
#psi4
#
memory 32 gb

molecule  {
0 1
  O        0.6831730     1.9514370    -0.1851230
  N        0.3221270    -0.3206750    -0.2979720
  C        1.7580560    -0.4955670    -0.5492050
  C       -0.1211040     1.0090560    -0.1118080
  C       -0.4973450    -1.4105120    -0.1972350
  C        2.5603930    -0.4317450     0.7423750
  C       -1.5372540     1.1223260     0.1526570
  C       -1.8319680    -1.2780450     0.0712850
  C       -2.3551590     0.0280850     0.2487950
  H        1.8855710    -1.4559800    -1.0561060
  H        2.0595230     0.3051280    -1.2266110
  H       -0.0197130    -2.3738180    -0.3527730
  H        2.4186300     0.5432120     1.2108420
  H        2.2423160    -1.2153800     1.4354410
  H        3.6255180    -0.5665000     0.5315230
  H       -1.8780726     2.0389834     0.2733215
  H       -2.4591310    -2.1595270     0.1391440
  H       -3.4140320     0.1624990     0.4585800
units angstrom
no_reorient  #important for SAPT in psi4, default
symmetry c1  #important for SAPT in psi4, default
}

set PROPERTIES_ORIGIN ["COM"]
properties('MP2/aug-cc-pvtz', properties = ['dipole'])
--------------------------------------------------------------------------

    Molecular point group: c1
  Charge       = 0
  Multiplicity = 1
  Basis Set: AUG-CC-PVTZ
    Blend: AUG-CC-PVTZ
  Basis Set: (AUG-CC-PVTZ AUX)
    Blend: AUG-CC-PVTZ-JKFIT

    Orbital Energies [Eh]
    ---------------------

    Doubly Occupied:

       1A    -20.506246     2A    -15.624971     3A    -11.349141
       4A    -11.308725     5A    -11.273562     6A    -11.270218
       7A    -11.239707     8A    -11.225623     9A    -11.221014
      10A     -1.368960    11A     -1.278031    12A     -1.119978
      13A     -1.033717    14A     -1.018311    15A     -0.896403
      16A     -0.875142    17A     -0.825468    18A     -0.718721
      19A     -0.700334    20A     -0.674191    21A     -0.644539
      22A     -0.615280    23A     -0.607693    24A     -0.605841
      25A     -0.560180    26A     -0.544816    27A     -0.530454
      28A     -0.526847    29A     -0.505650    30A     -0.474808
      31A     -0.420877    32A     -0.407433    33A     -0.308662

  @DF-RHF Final Energy:  -399.76556027754117

   => Energetics <=

    Nuclear Repulsion Energy =            437.9901753926923789
    One-Electron Energy =               -1410.9483827361086696
    Two-Electron Energy =                 573.1926470658750077
    Total Energy =                       -399.7655602775412262
  Basis Set: (AUG-CC-PVTZ AUX)
    Blend: AUG-CC-PVTZ-RI
    Molecular point group: c1

    Geometry (in Angstrom), charge = 0, multiplicity = 1:

       Center              X                  Y                   Z               Mass
    ------------   -----------------  -----------------  -----------------  -----------------
         O            0.718592292602     1.914973696945    -0.173529761721    15.994914619570
         N            0.357546292602    -0.357138303055    -0.286378761721    14.003074004430
         C            1.793475292602    -0.532030303055    -0.537611761721    12.000000000000
         C           -0.085684707398     0.972592696945    -0.100214761721    12.000000000000
         C           -0.461925707398    -1.446975303055    -0.185641761721    12.000000000000
         C            2.595812292602    -0.468208303055     0.753968238279    12.000000000000
         C           -1.501834707398     1.085862696945     0.164250238279    12.000000000000
         C           -1.796548707398    -1.314508303055     0.082878238279    12.000000000000
         C           -2.319739707398    -0.008378303055     0.260388238279    12.000000000000
         H            1.920990292602    -1.492443303055    -1.044512761721     1.007825032230
         H            2.094942292602     0.268664696945    -1.215017761721     1.007825032230
         H            0.015706292602    -2.410281303055    -0.341179761721     1.007825032230
         H            2.454049292602     0.506748696945     1.222435238279     1.007825032230
         H            2.277735292602    -1.251843303055     1.447034238279     1.007825032230
         H            3.660937292602    -0.602963303055     0.543116238279     1.007825032230
         H           -1.842653307398     2.002520096945     0.284914738279     1.007825032230
         H           -2.423711707398    -2.195990303055     0.150737238279     1.007825032230
         H           -3.378612707398     0.126035696945     0.470173238279     1.007825032230

  Basis Set: AUG-CC-PVTZ
    Blend: AUG-CC-PVTZ
  Basis Set: (AUG-CC-PVTZ AUX)
    Blend: AUG-CC-PVTZ-JKFIT
	 Reference Energy          =    -399.7655602775411694 [Eh]
	 Singles Energy            =      -0.0000000000000000 [Eh]
	 Same-Spin Energy          =      -0.4232728470559673 [Eh]
	 Opposite-Spin Energy      =      -1.3393725419607543 [Eh]
	 Correlation Energy        =      -1.7626453890167215 [Eh]
	 Total Energy              =    -401.5282056665578807 [Eh]

	 ================> DF-SCS-MP2 Energies <==================
	-----------------------------------------------------------
	 SCS Same-Spin Scale       =       0.3333333333333333 [-]
	 SCS Opposite-Spin Scale   =       1.2000000000000000 [-]
	 SCS Same-Spin Energy      =      -0.1410909490186558 [Eh]
	 SCS Opposite-Spin Energy  =      -1.6072470503529050 [Eh]
	 SCS Correlation Energy    =      -1.7483379993715609 [Eh]
	 SCS Total Energy          =    -401.5138982769127551 [Eh]
	-----------------------------------------------------------

  Dipole Moment: [D]
     X:    -0.7658      Y:    -3.8175      Z:     0.0323     Total:     3.8937

*** Psi4 exiting successfully. Buy a developer a beer!
