                               Psi4 1.3.2 release

  ==> Input File <==

--------------------------------------------------------------------------
#psi4
#
memory 32 gb

molecule  {
0 1
  O        0.6831730     1.9514370    -0.1851230
  N        0.3221270    -0.3206750    -0.2979720
  C        1.7680209    -0.3938162    -0.5421822
  C       -0.1211040     1.0090560    -0.1118080
  C       -0.4973450    -1.4105120    -0.1972350
  C        2.5603930    -0.4317450     0.7423750
  C       -1.5372540     1.1223260     0.1526570
  C       -1.8319680    -1.2780450     0.0712850
  C       -2.3551590     0.0280850     0.2487950
  H        1.8855710    -1.4559800    -1.0561060
  H        2.0595230     0.3051280    -1.2266110
  H       -0.0197130    -2.3738180    -0.3527730
  H        2.4186300     0.5432120     1.2108420
  H        2.2423160    -1.2153800     1.4354410
  H        3.6255180    -0.5665000     0.5315230
  H       -1.9126600     2.1320090     0.2855670
  H       -2.4591310    -2.1595270     0.1391440
  H       -3.4140320     0.1624990     0.4585800
units angstrom
no_reorient  #important for SAPT in psi4, default
symmetry c1  #important for SAPT in psi4, default
}

set PROPERTIES_ORIGIN ["COM"]
properties('MP2/aug-cc-pvtz', properties = ['dipole'])
--------------------------------------------------------------------------

    Molecular point group: c1
  Charge       = 0
  Multiplicity = 1
  Basis Set: AUG-CC-PVTZ
    Blend: AUG-CC-PVTZ
  Basis Set: (AUG-CC-PVTZ AUX)
    Blend: AUG-CC-PVTZ-JKFIT

    Orbital Energies [Eh]
    ---------------------

    Doubly Occupied:

       1A    -20.506945     2A    -15.625839     3A    -11.349108
       4A    -11.310456     5A    -11.276801     6A    -11.270902
       7A    -11.241138     8A    -11.236911     9A    -11.221460
      10A     -1.370832    11A     -1.277818    12A     -1.120074
      13A     -1.033994    14A     -1.018687    15A     -0.898236
      16A     -0.866536    17A     -0.827306    18A     -0.716144
      19A     -0.702375    20A     -0.667115    21A     -0.644032
      22A     -0.617885    23A     -0.606941    24A     -0.598307
      25A     -0.561432    26A     -0.541277    27A     -0.534320
      28A     -0.528340    29A     -0.497010    30A     -0.470088
      31A     -0.421767    32A     -0.408854    33A     -0.309525

  @DF-RHF Final Energy:  -399.75893447947004

   => Energetics <=

    Nuclear Repulsion Energy =            437.8606673087545573
    One-Electron Energy =               -1410.6822937611880207
    Two-Electron Energy =                 573.0626919729635347
    Total Energy =                       -399.7589344794699855
  Basis Set: (AUG-CC-PVTZ AUX)
    Blend: AUG-CC-PVTZ-RI
    Molecular point group: c1

    Geometry (in Angstrom), charge = 0, multiplicity = 1:

       Center              X                  Y                   Z               Mass
    ------------   -----------------  -----------------  -----------------  -----------------
         O            0.717903888894     1.904290507924    -0.174314812234    15.994914619570
         N            0.356857888894    -0.367821492076    -0.287163812234    14.003074004430
         C            1.802751788894    -0.440962692076    -0.531374012234    12.000000000000
         C           -0.086373111106     0.961909507924    -0.100999812234    12.000000000000
         C           -0.462614111106    -1.457658492076    -0.186426812234    12.000000000000
         C            2.595123888894    -0.478891492076     0.753183187766    12.000000000000
         C           -1.502523111106     1.075179507924     0.163465187766    12.000000000000
         C           -1.797237111106    -1.325191492076     0.082093187766    12.000000000000
         C           -2.320428111106    -0.019061492076     0.259603187766    12.000000000000
         H            1.920301888894    -1.503126492076    -1.045297812234     1.007825032230
         H            2.094253888894     0.257981507924    -1.215802812234     1.007825032230
         H            0.015017888894    -2.420964492076    -0.341964812234     1.007825032230
         H            2.453360888894     0.496065507924     1.221650187766     1.007825032230
         H            2.277046888894    -1.262526492076     1.446249187766     1.007825032230
         H            3.660248888894    -0.613646492076     0.542331187766     1.007825032230
         H           -1.877929111106     2.084862507924     0.296375187766     1.007825032230
         H           -2.424400111106    -2.206673492076     0.149952187766     1.007825032230
         H           -3.379301111106     0.115352507924     0.469388187766     1.007825032230

  Basis Set: AUG-CC-PVTZ
    Blend: AUG-CC-PVTZ
  Basis Set: (AUG-CC-PVTZ AUX)
    Blend: AUG-CC-PVTZ-JKFIT
	 Reference Energy          =    -399.7589344794700423 [Eh]
	 Singles Energy            =      -0.0000000000000000 [Eh]
	 Same-Spin Energy          =      -0.4236906750021755 [Eh]
	 Opposite-Spin Energy      =      -1.3405776581240532 [Eh]
	 Correlation Energy        =      -1.7642683331262288 [Eh]
	 Total Energy              =    -401.5232028125962529 [Eh]

	 ================> DF-SCS-MP2 Energies <==================
	-----------------------------------------------------------
	 SCS Same-Spin Scale       =       0.3333333333333333 [-]
	 SCS Opposite-Spin Scale   =       1.2000000000000000 [-]
	 SCS Same-Spin Energy      =      -0.1412302250007252 [Eh]
	 SCS Opposite-Spin Energy  =      -1.6086931897488637 [Eh]
	 SCS Correlation Energy    =      -1.7499234147495888 [Eh]
	 SCS Total Energy          =    -401.5088578942196591 [Eh]
	-----------------------------------------------------------

  Dipole Moment: [D]
     X:    -0.7871      Y:    -3.7203      Z:     0.0768     Total:     3.8034

*** Psi4 exiting successfully. Buy a developer a beer!
