                               Psi4 1.3.2 release

  ==> Input File <==

--------------------------------------------------------------------------
#psi4
#
memory 32 gb

molecule  {
0 1
  O        0.6831730     1.9514370    -0.1851230
  N        0.3221270    -0.3206750    -0.2979720
  C        1.6602537    -0.4836550    -0.5320933
  C       -0.1211040     1.0090560    -0.1118080
  C       -0.4973450    -1.4105120    -0.1972350
  C        2.5603930    -0.4317450     0.7423750
  C       -1.5372540     1.1223260     0.1526570
  C       -1.8319680    -1.2780450     0.0712850
  C       -2.3551590     0.0280850     0.2487950
  H        1.8855710    -1.4559800    -1.0561060
  H        2.0595230     0.3051280    -1.2266110
  H       -0.0197130    -2.3738180    -0.3527730
  H        2.4186300     0.5432120     1.2108420
  H        2.2423160    -1.2153800     1.4354410
  H        3.6255180    -0.5665000     0.5315230
  H       -1.9126600     2.1320090     0.2855670
  H       -2.4591310    -2.1595270     0.1391440
  H       -3.4140320     0.1624990     0.4585800
units angstrom
no_reorient  #important for SAPT in psi4, default
symmetry c1  #important for SAPT in psi4, default
}

set PROPERTIES_ORIGIN ["COM"]
properties('MP2/aug-cc-pvtz', properties = ['dipole'])
--------------------------------------------------------------------------

    Molecular point group: c1
  Charge       = 0
  Multiplicity = 1
  Basis Set: AUG-CC-PVTZ
    Blend: AUG-CC-PVTZ
  Basis Set: (AUG-CC-PVTZ AUX)
    Blend: AUG-CC-PVTZ-JKFIT

    Orbital Energies [Eh]
    ---------------------

    Doubly Occupied:

       1A    -20.510313     2A    -15.628244     3A    -11.353392
       4A    -11.311316     5A    -11.273335     6A    -11.270924
       7A    -11.243491     8A    -11.240209     9A    -11.219191
      10A     -1.378384    11A     -1.294831    12A     -1.126952
      13A     -1.032186    14A     -1.010871    15A     -0.904242
      16A     -0.876885    17A     -0.822732    18A     -0.718808
      19A     -0.705729    20A     -0.676473    21A     -0.645812
      22A     -0.623365    23A     -0.609536    24A     -0.593950
      25A     -0.562065    26A     -0.541175    27A     -0.537534
      28A     -0.514916    29A     -0.491559    30A     -0.473415
      31A     -0.425740    32A     -0.403977    33A     -0.311537

  @DF-RHF Final Energy:  -399.76101064761292

   => Energetics <=

    Nuclear Repulsion Energy =            439.1721562755341779
    One-Electron Energy =               -1413.2001544061838558
    Two-Electron Energy =                 574.2669874830367007
    Total Energy =                       -399.7610106476129204
  Basis Set: (AUG-CC-PVTZ AUX)
    Blend: AUG-CC-PVTZ-RI
    Molecular point group: c1

    Geometry (in Angstrom), charge = 0, multiplicity = 1:

       Center              X                  Y                   Z               Mass
    ------------   -----------------  -----------------  -----------------  -----------------
         O            0.728411917387     1.913050396556    -0.175298547997    15.994914619570
         N            0.367365917387    -0.359061603444    -0.288147547997    14.003074004430
         C            1.705492617387    -0.522041603444    -0.522268847997    12.000000000000
         C           -0.075865082613     0.970669396556    -0.101983547997    12.000000000000
         C           -0.452106082613    -1.448898603444    -0.187410547997    12.000000000000
         C            2.605631917387    -0.470131603444     0.752199452003    12.000000000000
         C           -1.492015082613     1.083939396556     0.162481452003    12.000000000000
         C           -1.786729082613    -1.316431603444     0.081109452003    12.000000000000
         C           -2.309920082613    -0.010301603444     0.258619452003    12.000000000000
         H            1.930809917387    -1.494366603444    -1.046281547997     1.007825032230
         H            2.104761917387     0.266741396556    -1.216786547997     1.007825032230
         H            0.025525917387    -2.412204603444    -0.342948547997     1.007825032230
         H            2.463868917387     0.504825396556     1.220666452003     1.007825032230
         H            2.287554917387    -1.253766603444     1.445265452003     1.007825032230
         H            3.670756917387    -0.604886603444     0.541347452003     1.007825032230
         H           -1.867421082613     2.093622396556     0.295391452003     1.007825032230
         H           -2.413892082613    -2.197913603444     0.148968452003     1.007825032230
         H           -3.368793082613     0.124112396556     0.468404452003     1.007825032230

  Basis Set: AUG-CC-PVTZ
    Blend: AUG-CC-PVTZ
  Basis Set: (AUG-CC-PVTZ AUX)
    Blend: AUG-CC-PVTZ-JKFIT
	 Reference Energy          =    -399.7610106476129204 [Eh]
	 Singles Energy            =      -0.0000000000000000 [Eh]
	 Same-Spin Energy          =      -0.4242573922012524 [Eh]
	 Opposite-Spin Energy      =      -1.3406741650012817 [Eh]
	 Correlation Energy        =      -1.7649315572025341 [Eh]
	 Total Energy              =    -401.5259422048154647 [Eh]

	 ================> DF-SCS-MP2 Energies <==================
	-----------------------------------------------------------
	 SCS Same-Spin Scale       =       0.3333333333333333 [-]
	 SCS Opposite-Spin Scale   =       1.2000000000000000 [-]
	 SCS Same-Spin Energy      =      -0.1414191307337508 [Eh]
	 SCS Opposite-Spin Energy  =      -1.6088089980015379 [Eh]
	 SCS Correlation Energy    =      -1.7502281287352885 [Eh]
	 SCS Total Energy          =    -401.5112387763481934 [Eh]
	-----------------------------------------------------------

  Dipole Moment: [D]
     X:    -1.0592      Y:    -3.7220      Z:     0.0500     Total:     3.8701

*** Psi4 exiting successfully. Buy a developer a beer!
