                               Psi4 1.4a3.dev225

  ==> Input File <==

--------------------------------------------------------------------------
#psi4
#
memory 32 gb

molecule  {
0 1
  O        0.6831730     1.9514370    -0.1851230
  N        0.3221270    -0.3206750    -0.2979720
  C        1.7580560    -0.4955670    -0.5492050
  C       -0.1211040     1.0090560    -0.1118080
  C       -0.4973450    -1.4105120    -0.1972350
  C        2.5603930    -0.4317450     0.7423750
  C       -1.5372540     1.1223260     0.1526570
  C       -1.8319680    -1.2780450     0.0712850
  C       -2.3551590     0.0280850     0.2487950
  H        1.8855710    -1.4559800    -1.0561060
  H        2.0595230     0.3051280    -1.2266110
  H       -0.0197130    -2.3738180    -0.3527730
  H        2.4186300     0.5432120     1.2108420
  H        2.2423160    -1.2153800     1.4354410
  H        3.6255180    -0.5665000     0.5315230
  H       -1.9299537     2.1785218     0.2916897
  H       -2.4591310    -2.1595270     0.1391440
  H       -3.4140320     0.1624990     0.4585800
units angstrom
no_reorient  #important for SAPT in psi4, default
symmetry c1  #important for SAPT in psi4, default
}

set PROPERTIES_ORIGIN ["COM"]
properties('MP2/aug-cc-pvtz', properties = ['dipole'])
--------------------------------------------------------------------------

    Molecular point group: c1
  Charge       = 0
  Multiplicity = 1
  Basis Set: AUG-CC-PVTZ
    Blend: AUG-CC-PVTZ
  Basis Set: (AUG-CC-PVTZ AUX)
    Blend: AUG-CC-PVTZ-JKFIT

    Orbital Energies [Eh]
    ---------------------

    Doubly Occupied:

       1A    -20.506228     2A    -15.625782     3A    -11.350280
       4A    -11.308944     5A    -11.273950     6A    -11.270882
       7A    -11.242503     8A    -11.240402     9A    -11.221207
      10A     -1.369080    11A     -1.278460    12A     -1.118893
      13A     -1.030603    14A     -1.017894    15A     -0.895487
      16A     -0.868490    17A     -0.824657    18A     -0.713020
      19A     -0.700604    20A     -0.665129    21A     -0.637417
      22A     -0.613220    23A     -0.607285    24A     -0.604587
      25A     -0.560660    26A     -0.535966    27A     -0.529212
      28A     -0.524012    29A     -0.505438    30A     -0.474998
      31A     -0.421277    32A     -0.407942    33A     -0.308893

  @DF-RHF Final Energy:  -399.76902829511471

   => Energetics <=

    Nuclear Repulsion Energy =            437.1806964172331504
    One-Electron Energy =               -1409.3926468991203365
    Two-Electron Energy =                 572.4429221867725346
    Total Energy =                       -399.7690282951147083
  Basis Set: (AUG-CC-PVTZ AUX)
    Blend: AUG-CC-PVTZ-RI
    Molecular point group: c1

    Geometry (in Angstrom), charge = 0, multiplicity = 1:

       Center              X                  Y                   Z               Mass
    ------------   -----------------  -----------------  -----------------  -----------------
         O            0.719017154430     1.913830996816    -0.173680181566    15.994914619570
         N            0.357971154430    -0.358281003184    -0.286529181566    14.003074004430
         C            1.793900154430    -0.533173003184    -0.537762181566    12.000000000000
         C           -0.085259845570     0.971449996816    -0.100365181566    12.000000000000
         C           -0.461500845570    -1.448118003184    -0.185792181566    12.000000000000
         C            2.596237154430    -0.469351003184     0.753817818434    12.000000000000
         C           -1.501409845570     1.084719996816     0.164099818434    12.000000000000
         C           -1.796123845570    -1.315651003184     0.082727818434    12.000000000000
         C           -2.319314845570    -0.009521003184     0.260237818434    12.000000000000
         H            1.921415154430    -1.493586003184    -1.044663181566     1.007825032230
         H            2.095367154430     0.267521996816    -1.215168181566     1.007825032230
         H            0.016131154430    -2.411424003184    -0.341330181566     1.007825032230
         H            2.454474154430     0.505605996816     1.222284818434     1.007825032230
         H            2.278160154430    -1.252986003184     1.446883818434     1.007825032230
         H            3.661362154430    -0.604106003184     0.542965818434     1.007825032230
         H           -1.894109545570     2.140915796816     0.303132518434     1.007825032230
         H           -2.423286845570    -2.197133003184     0.150586818434     1.007825032230
         H           -3.378187845570     0.124892996816     0.470022818434     1.007825032230

  Basis Set: AUG-CC-PVTZ
    Blend: AUG-CC-PVTZ
  Basis Set: (AUG-CC-PVTZ AUX)
    Blend: AUG-CC-PVTZ-JKFIT
	 Reference Energy          =    -399.7690282951147083 [Eh]
	 Singles Energy            =      -0.0000000000000000 [Eh]
	 Same-Spin Energy          =      -0.4235758655082352 [Eh]
	 Opposite-Spin Energy      =      -1.3402343652040756 [Eh]
	 Correlation Energy        =      -1.7638102307123107 [Eh]
	 Total Energy              =    -401.5328385258270032 [Eh]

	 ================> DF-SCS-MP2 Energies <==================
	-----------------------------------------------------------
	 SCS Same-Spin Scale       =       0.3333333333333333 [-]
	 SCS Opposite-Spin Scale   =       1.2000000000000000 [-]
	 SCS Same-Spin Energy      =      -0.1411919551694117 [Eh]
	 SCS Opposite-Spin Energy  =      -1.6082812382448906 [Eh]
	 SCS Correlation Energy    =      -1.7494731934143022 [Eh]
	 SCS Total Energy          =    -401.5185014885290116 [Eh]
	-----------------------------------------------------------

  Dipole Moment: [D]
     X:    -0.7522      Y:    -3.8144      Z:     0.0313     Total:     3.8880

*** Psi4 exiting successfully. Buy a developer a beer!
