                               Psi4 1.3.2 release

  ==> Input File <==

--------------------------------------------------------------------------
#psi4
#
memory 32 gb

molecule  {
0 1
  O        0.6831730     1.9514370    -0.1851230
  N        0.3221270    -0.3206750    -0.2979720
  C        1.7580560    -0.4955670    -0.5492050
  C       -0.1211040     1.0090560    -0.1118080
  C       -0.4973450    -1.4105120    -0.1972350
  C        2.5603930    -0.4317450     0.7423750
  C       -1.5372540     1.1223260     0.1526570
  C       -1.8319680    -1.2780450     0.0712850
  C       -2.3736471     0.0425584     0.2532705
  H        1.8855710    -1.4559800    -1.0561060
  H        2.0595230     0.3051280    -1.2266110
  H       -0.0197130    -2.3738180    -0.3527730
  H        2.4186300     0.5432120     1.2108420
  H        2.2423160    -1.2153800     1.4354410
  H        3.6255180    -0.5665000     0.5315230
  H       -1.9126600     2.1320090     0.2855670
  H       -2.4591310    -2.1595270     0.1391440
  H       -3.4140320     0.1624990     0.4585800
units angstrom
no_reorient  #important for SAPT in psi4, default
symmetry c1  #important for SAPT in psi4, default
}

set PROPERTIES_ORIGIN ["COM"]
properties('MP2/aug-cc-pvtz', properties = ['dipole'])
--------------------------------------------------------------------------

    Molecular point group: c1
  Charge       = 0
  Multiplicity = 1
  Basis Set: AUG-CC-PVTZ
    Blend: AUG-CC-PVTZ
  Basis Set: (AUG-CC-PVTZ AUX)
    Blend: AUG-CC-PVTZ-JKFIT

    Orbital Energies [Eh]
    ---------------------

    Doubly Occupied:

       1A    -20.507436     2A    -15.624466     3A    -11.351027
       4A    -11.307637     5A    -11.273460     6A    -11.271210
       7A    -11.241441     8A    -11.238169     9A    -11.220905
      10A     -1.369512    11A     -1.277784    12A     -1.116565
      13A     -1.031605    14A     -1.016721    15A     -0.895860
      16A     -0.869215    17A     -0.826268    18A     -0.713402
      19A     -0.699425    20A     -0.669837    21A     -0.639651
      22A     -0.615498    23A     -0.606926    24A     -0.605064
      25A     -0.563730    26A     -0.535222    27A     -0.529462
      28A     -0.525431    29A     -0.505037    30A     -0.474167
      31A     -0.422455    32A     -0.406673    33A     -0.309186

  @DF-RHF Final Energy:  -399.77094398924970

   => Energetics <=

    Nuclear Repulsion Energy =            437.0479881563727531
    One-Electron Energy =               -1409.1169668813531644
    Two-Electron Energy =                 572.2980347357307664
    Total Energy =                       -399.7709439892496448
  Basis Set: (AUG-CC-PVTZ AUX)
    Blend: AUG-CC-PVTZ-RI
    Molecular point group: c1

    Geometry (in Angstrom), charge = 0, multiplicity = 1:

       Center              X                  Y                   Z               Mass
    ------------   -----------------  -----------------  -----------------  -----------------
         O            0.720678248204     1.912800642789    -0.174066433312    15.994914619570
         N            0.359632248204    -0.359311357211    -0.286915433312    14.003074004430
         C            1.795561248204    -0.534203357211    -0.538148433312    12.000000000000
         C           -0.083598751796     0.970419642789    -0.100751433312    12.000000000000
         C           -0.459839751796    -1.449148357211    -0.186178433312    12.000000000000
         C            2.597898248204    -0.470381357211     0.753431566688    12.000000000000
         C           -1.499748751796     1.083689642789     0.163713566688    12.000000000000
         C           -1.794462751796    -1.316681357211     0.082341566688    12.000000000000
         C           -2.336141851796     0.003922042789     0.264327066688    12.000000000000
         H            1.923076248204    -1.494616357211    -1.045049433312     1.007825032230
         H            2.097028248204     0.266491642789    -1.215554433312     1.007825032230
         H            0.017792248204    -2.412454357211    -0.341716433312     1.007825032230
         H            2.456135248204     0.504575642789     1.221898566688     1.007825032230
         H            2.279821248204    -1.254016357211     1.446497566688     1.007825032230
         H            3.663023248204    -0.605136357211     0.542579566688     1.007825032230
         H           -1.875154751796     2.093372642789     0.296623566688     1.007825032230
         H           -2.421625751796    -2.198163357211     0.150200566688     1.007825032230
         H           -3.376526751796     0.123862642789     0.469636566688     1.007825032230

  Basis Set: AUG-CC-PVTZ
    Blend: AUG-CC-PVTZ
  Basis Set: (AUG-CC-PVTZ AUX)
    Blend: AUG-CC-PVTZ-JKFIT
	 Reference Energy          =    -399.7709439892497016 [Eh]
	 Singles Energy            =      -0.0000000000000000 [Eh]
	 Same-Spin Energy          =      -0.4231899546183552 [Eh]
	 Opposite-Spin Energy      =      -1.3398450529720287 [Eh]
	 Correlation Energy        =      -1.7630350075903840 [Eh]
	 Total Energy              =    -401.5339789968400623 [Eh]

	 ================> DF-SCS-MP2 Energies <==================
	-----------------------------------------------------------
	 SCS Same-Spin Scale       =       0.3333333333333333 [-]
	 SCS Opposite-Spin Scale   =       1.2000000000000000 [-]
	 SCS Same-Spin Energy      =      -0.1410633182061184 [Eh]
	 SCS Opposite-Spin Energy  =      -1.6078140635664344 [Eh]
	 SCS Correlation Energy    =      -1.7488773817725529 [Eh]
	 SCS Total Energy          =    -401.5198213710222603 [Eh]
	-----------------------------------------------------------

  Dipole Moment: [D]
     X:    -0.7774      Y:    -3.7743      Z:     0.0371     Total:     3.8537

*** Psi4 exiting successfully. Buy a developer a beer!
