                               Psi4 1.3.2 release

  ==> Input File <==

--------------------------------------------------------------------------
#psi4
#
memory 32 gb

molecule  {
0 1
  O        0.6831730     1.9514370    -0.1851230
  N        0.3221270    -0.3206750    -0.2979720
  C        1.7580560    -0.4955670    -0.5492050
  C       -0.1234834     0.9839599    -0.1125979
  C       -0.4973450    -1.4105120    -0.1972350
  C        2.5603930    -0.4317450     0.7423750
  C       -1.5372540     1.1223260     0.1526570
  C       -1.8319680    -1.2780450     0.0712850
  C       -2.3551590     0.0280850     0.2487950
  H        1.8855710    -1.4559800    -1.0561060
  H        2.0595230     0.3051280    -1.2266110
  H       -0.0197130    -2.3738180    -0.3527730
  H        2.4186300     0.5432120     1.2108420
  H        2.2423160    -1.2153800     1.4354410
  H        3.6255180    -0.5665000     0.5315230
  H       -1.9126600     2.1320090     0.2855670
  H       -2.4591310    -2.1595270     0.1391440
  H       -3.4140320     0.1624990     0.4585800
units angstrom
no_reorient  #important for SAPT in psi4, default
symmetry c1  #important for SAPT in psi4, default
}

set PROPERTIES_ORIGIN ["COM"]
properties('MP2/aug-cc-pvtz', properties = ['dipole'])
--------------------------------------------------------------------------

    Molecular point group: c1
  Charge       = 0
  Multiplicity = 1
  Basis Set: AUG-CC-PVTZ
    Blend: AUG-CC-PVTZ
  Basis Set: (AUG-CC-PVTZ AUX)
    Blend: AUG-CC-PVTZ-JKFIT

    Orbital Energies [Eh]
    ---------------------

    Doubly Occupied:

       1A    -20.500652     2A    -15.628682     3A    -11.348472
       4A    -11.309766     5A    -11.275044     6A    -11.270752
       7A    -11.242684     8A    -11.238751     9A    -11.221552
      10A     -1.361423    11A     -1.276351    12A     -1.121007
      13A     -1.032151    14A     -1.021067    15A     -0.896615
      16A     -0.875557    17A     -0.825031    18A     -0.716611
      19A     -0.700478    20A     -0.667941    21A     -0.641685
      22A     -0.615775    23A     -0.608813    24A     -0.600553
      25A     -0.557968    26A     -0.539302    27A     -0.528351
      28A     -0.525347    29A     -0.506425    30A     -0.469498
      31A     -0.417804    32A     -0.409294    33A     -0.309949

  @DF-RHF Final Energy:  -399.77004298014634

   => Energetics <=

    Nuclear Repulsion Energy =            437.6072691116330020
    One-Electron Energy =               -1410.2319189582728995
    Two-Electron Energy =                 572.8546068664934410
    Total Energy =                       -399.7700429801463997
  Basis Set: (AUG-CC-PVTZ AUX)
    Blend: AUG-CC-PVTZ-RI
    Molecular point group: c1

    Geometry (in Angstrom), charge = 0, multiplicity = 1:

       Center              X                  Y                   Z               Mass
    ------------   -----------------  -----------------  -----------------  -----------------
         O            0.719107541361     1.916658935789    -0.173553021316    15.994914619570
         N            0.358061541361    -0.355453064211    -0.286402021316    14.003074004430
         C            1.793990541361    -0.530345064211    -0.537635021316    12.000000000000
         C           -0.087548858639     0.949181835789    -0.101027921316    12.000000000000
         C           -0.461410458639    -1.445290064211    -0.185665021316    12.000000000000
         C            2.596327541361    -0.466523064211     0.753944978684    12.000000000000
         C           -1.501319458639     1.087547935789     0.164226978684    12.000000000000
         C           -1.796033458639    -1.312823064211     0.082854978684    12.000000000000
         C           -2.319224458639    -0.006693064211     0.260364978684    12.000000000000
         H            1.921505541361    -1.490758064211    -1.044536021316     1.007825032230
         H            2.095457541361     0.270349935789    -1.215041021316     1.007825032230
         H            0.016221541361    -2.408596064211    -0.341203021316     1.007825032230
         H            2.454564541361     0.508433935789     1.222411978684     1.007825032230
         H            2.278250541361    -1.250158064211     1.447010978684     1.007825032230
         H            3.661452541361    -0.601278064211     0.543092978684     1.007825032230
         H           -1.876725458639     2.097230935789     0.297136978684     1.007825032230
         H           -2.423196458639    -2.194305064211     0.150713978684     1.007825032230
         H           -3.378097458639     0.127720935789     0.470149978684     1.007825032230

  Basis Set: AUG-CC-PVTZ
    Blend: AUG-CC-PVTZ
  Basis Set: (AUG-CC-PVTZ AUX)
    Blend: AUG-CC-PVTZ-JKFIT
	 Reference Energy          =    -399.7700429801463429 [Eh]
	 Singles Energy            =      -0.0000000000000000 [Eh]
	 Same-Spin Energy          =      -0.4236526276248844 [Eh]
	 Opposite-Spin Energy      =      -1.3402733158490825 [Eh]
	 Correlation Energy        =      -1.7639259434739669 [Eh]
	 Total Energy              =    -401.5339689236203071 [Eh]

	 ================> DF-SCS-MP2 Energies <==================
	-----------------------------------------------------------
	 SCS Same-Spin Scale       =       0.3333333333333333 [-]
	 SCS Opposite-Spin Scale   =       1.2000000000000000 [-]
	 SCS Same-Spin Energy      =      -0.1412175425416281 [Eh]
	 SCS Opposite-Spin Energy  =      -1.6083279790188989 [Eh]
	 SCS Correlation Energy    =      -1.7495455215605271 [Eh]
	 SCS Total Energy          =    -401.5195885017068917 [Eh]
	-----------------------------------------------------------

  Dipole Moment: [D]
     X:    -0.8410      Y:    -3.9855      Z:     0.0391     Total:     4.0734

*** Psi4 exiting successfully. Buy a developer a beer!
