                               Psi4 1.3.2 release

  ==> Input File <==

--------------------------------------------------------------------------
#psi4
#
memory 32 gb

molecule  {
0 1
  O        0.7452824     1.8932042    -0.2011118
  N        0.3221270    -0.3206750    -0.2979720
  C        1.7580560    -0.4955670    -0.5492050
  C       -0.1211040     1.0090560    -0.1118080
  C       -0.4973450    -1.4105120    -0.1972350
  C        2.5603930    -0.4317450     0.7423750
  C       -1.5372540     1.1223260     0.1526570
  C       -1.8319680    -1.2780450     0.0712850
  C       -2.3551590     0.0280850     0.2487950
  H        1.8855710    -1.4559800    -1.0561060
  H        2.0595230     0.3051280    -1.2266110
  H       -0.0197130    -2.3738180    -0.3527730
  H        2.4186300     0.5432120     1.2108420
  H        2.2423160    -1.2153800     1.4354410
  H        3.6255180    -0.5665000     0.5315230
  H       -1.9126600     2.1320090     0.2855670
  H       -2.4591310    -2.1595270     0.1391440
  H       -3.4140320     0.1624990     0.4585800
units angstrom
no_reorient  #important for SAPT in psi4, default
symmetry c1  #important for SAPT in psi4, default
}

set PROPERTIES_ORIGIN ["COM"]
properties('MP2/aug-cc-pvtz', properties = ['dipole'])
--------------------------------------------------------------------------

    Molecular point group: c1
  Charge       = 0
  Multiplicity = 1
  Basis Set: AUG-CC-PVTZ
    Blend: AUG-CC-PVTZ
  Basis Set: (AUG-CC-PVTZ AUX)
    Blend: AUG-CC-PVTZ-JKFIT

    Orbital Energies [Eh]
    ---------------------

    Doubly Occupied:

       1A    -20.504775     2A    -15.623155     3A    -11.349918
       4A    -11.308789     5A    -11.273083     6A    -11.271269
       7A    -11.239755     8A    -11.239095     9A    -11.219192
      10A     -1.371132    11A     -1.274562    12A     -1.119591
      13A     -1.031101    14A     -1.017323    15A     -0.895485
      16A     -0.869028    17A     -0.824500    18A     -0.714172
      19A     -0.701122    20A     -0.667429    21A     -0.639700
      22A     -0.613561    23A     -0.607923    24A     -0.602820
      25A     -0.560385    26A     -0.538257    27A     -0.528779
      28A     -0.524470    29A     -0.503574    30A     -0.473943
      31A     -0.421084    32A     -0.407484    33A     -0.309315

  @DF-RHF Final Energy:  -399.76979281910451

   => Energetics <=

    Nuclear Repulsion Energy =            438.1705446478694057
    One-Electron Energy =               -1411.3891363219001960
    Two-Electron Energy =                 573.4487988549262809
    Total Energy =                       -399.7697928191045094
  Basis Set: (AUG-CC-PVTZ AUX)
    Blend: AUG-CC-PVTZ-RI
    Molecular point group: c1

    Geometry (in Angstrom), charge = 0, multiplicity = 1:

       Center              X                  Y                   Z               Mass
    ------------   -----------------  -----------------  -----------------  -----------------
         O            0.772912720013     1.863547478009    -0.187540814859    15.994914619570
         N            0.349757320013    -0.350331721991    -0.284401014859    14.003074004430
         C            1.785686320013    -0.525223721991    -0.535634014859    12.000000000000
         C           -0.093473679987     0.979399278009    -0.098237014859    12.000000000000
         C           -0.469714679987    -1.440168721991    -0.183664014859    12.000000000000
         C            2.588023320013    -0.461401721991     0.755945985141    12.000000000000
         C           -1.509623679987     1.092669278009     0.166227985141    12.000000000000
         C           -1.804337679987    -1.307701721991     0.084855985141    12.000000000000
         C           -2.327528679987    -0.001571721991     0.262365985141    12.000000000000
         H            1.913201320013    -1.485636721991    -1.042535014859     1.007825032230
         H            2.087153320013     0.275471278009    -1.213040014859     1.007825032230
         H            0.007917320013    -2.403474721991    -0.339202014859     1.007825032230
         H            2.446260320013     0.513555278009     1.224412985141     1.007825032230
         H            2.269946320013    -1.245036721991     1.449011985141     1.007825032230
         H            3.653148320013    -0.596156721991     0.545093985141     1.007825032230
         H           -1.885029679987     2.102352278009     0.299137985141     1.007825032230
         H           -2.431500679987    -2.189183721991     0.152714985141     1.007825032230
         H           -3.386401679987     0.132842278009     0.472150985141     1.007825032230

  Basis Set: AUG-CC-PVTZ
    Blend: AUG-CC-PVTZ
  Basis Set: (AUG-CC-PVTZ AUX)
    Blend: AUG-CC-PVTZ-JKFIT
	 Reference Energy          =    -399.7697928191045094 [Eh]
	 Singles Energy            =      -0.0000000000000000 [Eh]
	 Same-Spin Energy          =      -0.4238168929487722 [Eh]
	 Opposite-Spin Energy      =      -1.3400231346855338 [Eh]
	 Correlation Energy        =      -1.7638400276343060 [Eh]
	 Total Energy              =    -401.5336328467388398 [Eh]

	 ================> DF-SCS-MP2 Energies <==================
	-----------------------------------------------------------
	 SCS Same-Spin Scale       =       0.3333333333333333 [-]
	 SCS Opposite-Spin Scale   =       1.2000000000000000 [-]
	 SCS Same-Spin Energy      =      -0.1412722976495907 [Eh]
	 SCS Opposite-Spin Energy  =      -1.6080277616226406 [Eh]
	 SCS Correlation Energy    =      -1.7493000592722314 [Eh]
	 SCS Total Energy          =    -401.5190928783767390 [Eh]
	-----------------------------------------------------------

  Dipole Moment: [D]
     X:    -0.9051      Y:    -3.7028      Z:     0.0566     Total:     3.8123

*** Psi4 exiting successfully. Buy a developer a beer!
