                               Psi4 1.3.2 release

  ==> Input File <==

--------------------------------------------------------------------------
#psi4
#
memory 32 gb

molecule  {
0 1
  O        0.6831730     1.9514370    -0.1851230
  N        0.3221270    -0.3206750    -0.2979720
  C        1.7580560    -0.4955670    -0.5492050
  C       -0.1859078     0.9331246    -0.1059007
  C       -0.4973450    -1.4105120    -0.1972350
  C        2.5603930    -0.4317450     0.7423750
  C       -1.5372540     1.1223260     0.1526570
  C       -1.8319680    -1.2780450     0.0712850
  C       -2.3551590     0.0280850     0.2487950
  H        1.8855710    -1.4559800    -1.0561060
  H        2.0595230     0.3051280    -1.2266110
  H       -0.0197130    -2.3738180    -0.3527730
  H        2.4186300     0.5432120     1.2108420
  H        2.2423160    -1.2153800     1.4354410
  H        3.6255180    -0.5665000     0.5315230
  H       -1.9126600     2.1320090     0.2855670
  H       -2.4591310    -2.1595270     0.1391440
  H       -3.4140320     0.1624990     0.4585800
units angstrom
no_reorient  #important for SAPT in psi4, default
symmetry c1  #important for SAPT in psi4, default
}

set PROPERTIES_ORIGIN ["COM"]
properties('MP2/aug-cc-pvtz', properties = ['dipole'])
--------------------------------------------------------------------------

    Molecular point group: c1
  Charge       = 0
  Multiplicity = 1
  Basis Set: AUG-CC-PVTZ
    Blend: AUG-CC-PVTZ
  Basis Set: (AUG-CC-PVTZ AUX)
    Blend: AUG-CC-PVTZ-JKFIT

    Orbital Energies [Eh]
    ---------------------

    Doubly Occupied:

       1A    -20.481046     2A    -15.638217     3A    -11.342530
       4A    -11.315096     5A    -11.277951     6A    -11.277840
       7A    -11.249705     8A    -11.239331     9A    -11.221464
      10A     -1.347379    11A     -1.245399    12A     -1.130813
      13A     -1.038532    14A     -1.027571    15A     -0.903253
      16A     -0.882940    17A     -0.831348    18A     -0.722162
      19A     -0.704744    20A     -0.671132    21A     -0.646300
      22A     -0.621455    23A     -0.611720    24A     -0.590629
      25A     -0.552451    26A     -0.534789    27A     -0.525659
      28A     -0.521319    29A     -0.506097    30A     -0.449447
      31A     -0.415243    32A     -0.401090    33A     -0.313347

  @DF-RHF Final Energy:  -399.75237222209739

   => Energetics <=

    Nuclear Repulsion Energy =            437.7772902995570803
    One-Electron Energy =               -1410.5833265095141087
    Two-Electron Energy =                 573.0536639878596361
    Total Energy =                       -399.7523722220973923
  Basis Set: (AUG-CC-PVTZ AUX)
    Blend: AUG-CC-PVTZ-RI
    Molecular point group: c1

    Geometry (in Angstrom), charge = 0, multiplicity = 1:

       Center              X                  Y                   Z               Mass
    ------------   -----------------  -----------------  -----------------  -----------------
         O            0.725194341183     1.921615720236    -0.174206043464    15.994914619570
         N            0.364148341183    -0.350496279764    -0.287055043464    14.003074004430
         C            1.800077341183    -0.525388279764    -0.538288043464    12.000000000000
         C           -0.143886458817     0.903303320236    -0.094983743464    12.000000000000
         C           -0.455323658817    -1.440333279764    -0.186318043464    12.000000000000
         C            2.602414341183    -0.461566279764     0.753291956536    12.000000000000
         C           -1.495232658817     1.092504720236     0.163573956536    12.000000000000
         C           -1.789946658817    -1.307866279764     0.082201956536    12.000000000000
         C           -2.313137658817    -0.001736279764     0.259711956536    12.000000000000
         H            1.927592341183    -1.485801279764    -1.045189043464     1.007825032230
         H            2.101544341183     0.275306720236    -1.215694043464     1.007825032230
         H            0.022308341183    -2.403639279764    -0.341856043464     1.007825032230
         H            2.460651341183     0.513390720236     1.221758956536     1.007825032230
         H            2.284337341183    -1.245201279764     1.446357956536     1.007825032230
         H            3.667539341183    -0.596321279764     0.542439956536     1.007825032230
         H           -1.870638658817     2.102187720236     0.296483956536     1.007825032230
         H           -2.417109658817    -2.189348279764     0.150060956536     1.007825032230
         H           -3.372010658817     0.132677720236     0.469496956536     1.007825032230

  Basis Set: AUG-CC-PVTZ
    Blend: AUG-CC-PVTZ
  Basis Set: (AUG-CC-PVTZ AUX)
    Blend: AUG-CC-PVTZ-JKFIT
	 Reference Energy          =    -399.7523722220973923 [Eh]
	 Singles Energy            =      -0.0000000000000000 [Eh]
	 Same-Spin Energy          =      -0.4254495442756402 [Eh]
	 Opposite-Spin Energy      =      -1.3428922219900659 [Eh]
	 Correlation Energy        =      -1.7683417662657059 [Eh]
	 Total Energy              =    -401.5207139883630703 [Eh]

	 ================> DF-SCS-MP2 Energies <==================
	-----------------------------------------------------------
	 SCS Same-Spin Scale       =       0.3333333333333333 [-]
	 SCS Opposite-Spin Scale   =       1.2000000000000000 [-]
	 SCS Same-Spin Energy      =      -0.1418165147585467 [Eh]
	 SCS Opposite-Spin Energy  =      -1.6114706663880789 [Eh]
	 SCS Correlation Energy    =      -1.7532871811466255 [Eh]
	 SCS Total Energy          =    -401.5056594032440103 [Eh]
	-----------------------------------------------------------

  Dipole Moment: [D]
     X:    -1.2177      Y:    -4.5152      Z:     0.0800     Total:     4.6772

*** Psi4 exiting successfully. Buy a developer a beer!
