                               Psi4 1.4a3.dev225

  ==> Input File <==

--------------------------------------------------------------------------
#psi4
#
memory 32 gb

molecule  {
0 1
  O        0.6831730     1.9514370    -0.1851230
  N        0.3221270    -0.3206750    -0.2979720
  C        1.7776165    -0.4979494    -0.5526273
  C       -0.1211040     1.0090560    -0.1118080
  C       -0.4973450    -1.4105120    -0.1972350
  C        2.5603930    -0.4317450     0.7423750
  C       -1.5372540     1.1223260     0.1526570
  C       -1.8319680    -1.2780450     0.0712850
  C       -2.3551590     0.0280850     0.2487950
  H        1.8855710    -1.4559800    -1.0561060
  H        2.0595230     0.3051280    -1.2266110
  H       -0.0197130    -2.3738180    -0.3527730
  H        2.4186300     0.5432120     1.2108420
  H        2.2423160    -1.2153800     1.4354410
  H        3.6255180    -0.5665000     0.5315230
  H       -1.9126600     2.1320090     0.2855670
  H       -2.4591310    -2.1595270     0.1391440
  H       -3.4140320     0.1624990     0.4585800
units angstrom
no_reorient  #important for SAPT in psi4, default
symmetry c1  #important for SAPT in psi4, default
}

set PROPERTIES_ORIGIN ["COM"]
properties('MP2/aug-cc-pvtz', properties = ['dipole'])
--------------------------------------------------------------------------

    Molecular point group: c1
  Charge       = 0
  Multiplicity = 1
  Basis Set: AUG-CC-PVTZ
    Blend: AUG-CC-PVTZ
  Basis Set: (AUG-CC-PVTZ AUX)
    Blend: AUG-CC-PVTZ-JKFIT

    Orbital Energies [Eh]
    ---------------------

    Doubly Occupied:

       1A    -20.505423     2A    -15.624610     3A    -11.349107
       4A    -11.308257     5A    -11.274770     6A    -11.270011
       7A    -11.239446     8A    -11.236413     9A    -11.221619
      10A     -1.367487    11A     -1.275327    12A     -1.117673
      13A     -1.031996    14A     -1.018676    15A     -0.894150
      16A     -0.869198    17A     -0.825288    18A     -0.713424
      19A     -0.699573    20A     -0.665731    21A     -0.638936
      22A     -0.612753    23A     -0.609656    24A     -0.604240
      25A     -0.560244    26A     -0.537977    27A     -0.532209
      28A     -0.523925    29A     -0.508070    30A     -0.474814
      31A     -0.420182    32A     -0.407881    33A     -0.308144

  @DF-RHF Final Energy:  -399.77117152520685

   => Energetics <=

    Nuclear Repulsion Energy =            437.1031521759127259
    One-Electron Energy =               -1409.2542187754845600
    Two-Electron Energy =                 572.3798950743648675
    Total Energy =                       -399.7711715252069098
  Basis Set: (AUG-CC-PVTZ AUX)
    Blend: AUG-CC-PVTZ-RI
    Molecular point group: c1

    Geometry (in Angstrom), charge = 0, multiplicity = 1:

       Center              X                  Y                   Z               Mass
    ------------   -----------------  -----------------  -----------------  -----------------
         O            0.716968253207     1.914444196919    -0.173296344570    15.994914619570
         N            0.355922253207    -0.357667803081    -0.286145344570    14.003074004430
         C            1.811411753207    -0.534942203081    -0.540800644570    12.000000000000
         C           -0.087308746793     0.972063196919    -0.099981344570    12.000000000000
         C           -0.463549746793    -1.447504803081    -0.185408344570    12.000000000000
         C            2.594188253207    -0.468737803081     0.754201655430    12.000000000000
         C           -1.503458746793     1.085333196919     0.164483655430    12.000000000000
         C           -1.798172746793    -1.315037803081     0.083111655430    12.000000000000
         C           -2.321363746793    -0.008907803081     0.260621655430    12.000000000000
         H            1.919366253207    -1.492972803081    -1.044279344570     1.007825032230
         H            2.093318253207     0.268135196919    -1.214784344570     1.007825032230
         H            0.014082253207    -2.410810803081    -0.340946344570     1.007825032230
         H            2.452425253207     0.506219196919     1.222668655430     1.007825032230
         H            2.276111253207    -1.252372803081     1.447267655430     1.007825032230
         H            3.659313253207    -0.603492803081     0.543349655430     1.007825032230
         H           -1.878864746793     2.095016196919     0.297393655430     1.007825032230
         H           -2.425335746793    -2.196519803081     0.150970655430     1.007825032230
         H           -3.380236746793     0.125506196919     0.470406655430     1.007825032230

  Basis Set: AUG-CC-PVTZ
    Blend: AUG-CC-PVTZ
  Basis Set: (AUG-CC-PVTZ AUX)
    Blend: AUG-CC-PVTZ-JKFIT
	 Reference Energy          =    -399.7711715252068529 [Eh]
	 Singles Energy            =      -0.0000000000000000 [Eh]
	 Same-Spin Energy          =      -0.4234065517105516 [Eh]
	 Opposite-Spin Energy      =      -1.3398505146132438 [Eh]
	 Correlation Energy        =      -1.7632570663237954 [Eh]
	 Total Energy              =    -401.5344285915306273 [Eh]

	 ================> DF-SCS-MP2 Energies <==================
	-----------------------------------------------------------
	 SCS Same-Spin Scale       =       0.3333333333333333 [-]
	 SCS Opposite-Spin Scale   =       1.2000000000000000 [-]
	 SCS Same-Spin Energy      =      -0.1411355172368505 [Eh]
	 SCS Opposite-Spin Energy  =      -1.6078206175358924 [Eh]
	 SCS Correlation Energy    =      -1.7489561347727429 [Eh]
	 SCS Total Energy          =    -401.5201276599796074 [Eh]
	-----------------------------------------------------------

  Dipole Moment: [D]
     X:    -0.6957      Y:    -3.8302      Z:     0.0297     Total:     3.8930

*** Psi4 exiting successfully. Buy a developer a beer!
