                               Psi4 1.4a3.dev225

  ==> Input File <==

--------------------------------------------------------------------------
#psi4
#
memory 32 gb

molecule  {
0 1
  O        0.6831730     1.9514370    -0.1851230
  N        0.3221270    -0.3206750    -0.2979720
  C        1.7580560    -0.4955670    -0.5492050
  C       -0.1211040     1.0090560    -0.1118080
  C       -0.4853580    -1.3945702    -0.1987085
  C        2.5603930    -0.4317450     0.7423750
  C       -1.5372540     1.1223260     0.1526570
  C       -1.8319680    -1.2780450     0.0712850
  C       -2.3551590     0.0280850     0.2487950
  H        1.8855710    -1.4559800    -1.0561060
  H        2.0595230     0.3051280    -1.2266110
  H       -0.0197130    -2.3738180    -0.3527730
  H        2.4186300     0.5432120     1.2108420
  H        2.2423160    -1.2153800     1.4354410
  H        3.6255180    -0.5665000     0.5315230
  H       -1.9126600     2.1320090     0.2855670
  H       -2.4591310    -2.1595270     0.1391440
  H       -3.4140320     0.1624990     0.4585800
units angstrom
no_reorient  #important for SAPT in psi4, default
symmetry c1  #important for SAPT in psi4, default
}

set PROPERTIES_ORIGIN ["COM"]
properties('MP2/aug-cc-pvtz', properties = ['dipole'])
--------------------------------------------------------------------------

    Molecular point group: c1
  Charge       = 0
  Multiplicity = 1
  Basis Set: AUG-CC-PVTZ
    Blend: AUG-CC-PVTZ
  Basis Set: (AUG-CC-PVTZ AUX)
    Blend: AUG-CC-PVTZ-JKFIT

    Orbital Energies [Eh]
    ---------------------

    Doubly Occupied:

       1A    -20.506200     2A    -15.627752     3A    -11.350026
       4A    -11.310030     5A    -11.275183     6A    -11.269888
       7A    -11.239556     8A    -11.235355     9A    -11.222200
      10A     -1.370707    11A     -1.283920    12A     -1.118287
      13A     -1.032184    14A     -1.017206    15A     -0.896113
      16A     -0.872213    17A     -0.826109    18A     -0.714770
      19A     -0.700985    20A     -0.665941    21A     -0.641858
      22A     -0.615845    23A     -0.607847    24A     -0.603888
      25A     -0.560997    26A     -0.538984    27A     -0.529800
      28A     -0.525687    29A     -0.506777    30A     -0.475457
      31A     -0.421098    32A     -0.409145    33A     -0.306055

  @DF-RHF Final Energy:  -399.77111540844646

   => Energetics <=

    Nuclear Repulsion Energy =            437.7553420471058416
    One-Electron Energy =               -1410.4967843971539878
    Two-Electron Energy =                 572.9703269416016838
    Total Energy =                       -399.7711154084464624
  Basis Set: (AUG-CC-PVTZ AUX)
    Blend: AUG-CC-PVTZ-RI
    Molecular point group: c1

    Geometry (in Angstrom), charge = 0, multiplicity = 1:

       Center              X                  Y                   Z               Mass
    ------------   -----------------  -----------------  -----------------  -----------------
         O            0.717706720512     1.912657463890    -0.173486365708    15.994914619570
         N            0.356660720512    -0.359454536110    -0.286335365708    14.003074004430
         C            1.792589720512    -0.534346536110    -0.537568365708    12.000000000000
         C           -0.086570279488     0.970276463890    -0.100171365708    12.000000000000
         C           -0.450824279488    -1.433349736110    -0.187071865708    12.000000000000
         C            2.594926720512    -0.470524536110     0.754011634292    12.000000000000
         C           -1.502720279488     1.083546463890     0.164293634292    12.000000000000
         C           -1.797434279488    -1.316824536110     0.082921634292    12.000000000000
         C           -2.320625279488    -0.010694536110     0.260431634292    12.000000000000
         H            1.920104720512    -1.494759536110    -1.044469365708     1.007825032230
         H            2.094056720512     0.266348463890    -1.214974365708     1.007825032230
         H            0.014820720512    -2.412597536110    -0.341136365708     1.007825032230
         H            2.453163720512     0.504432463890     1.222478634292     1.007825032230
         H            2.276849720512    -1.254159536110     1.447077634292     1.007825032230
         H            3.660051720512    -0.605279536110     0.543159634292     1.007825032230
         H           -1.878126279488     2.093229463890     0.297203634292     1.007825032230
         H           -2.424597279488    -2.198306536110     0.150780634292     1.007825032230
         H           -3.379498279488     0.123719463890     0.470216634292     1.007825032230

  Basis Set: AUG-CC-PVTZ
    Blend: AUG-CC-PVTZ
  Basis Set: (AUG-CC-PVTZ AUX)
    Blend: AUG-CC-PVTZ-JKFIT
	 Reference Energy          =    -399.7711154084464624 [Eh]
	 Singles Energy            =      -0.0000000000000000 [Eh]
	 Same-Spin Energy          =      -0.4236887026596348 [Eh]
	 Opposite-Spin Energy      =      -1.3397698351038010 [Eh]
	 Correlation Energy        =      -1.7634585377634358 [Eh]
	 Total Energy              =    -401.5345739462098891 [Eh]

	 ================> DF-SCS-MP2 Energies <==================
	-----------------------------------------------------------
	 SCS Same-Spin Scale       =       0.3333333333333333 [-]
	 SCS Opposite-Spin Scale   =       1.2000000000000000 [-]
	 SCS Same-Spin Energy      =      -0.1412295675532116 [Eh]
	 SCS Opposite-Spin Energy  =      -1.6077238021245612 [Eh]
	 SCS Correlation Energy    =      -1.7489533696777728 [Eh]
	 SCS Total Energy          =    -401.5200687781242550 [Eh]
	-----------------------------------------------------------

  Dipole Moment: [D]
     X:    -0.6851      Y:    -3.8094      Z:     0.0234     Total:     3.8706

*** Psi4 exiting successfully. Buy a developer a beer!
