                               Psi4 1.3.2 release

  ==> Input File <==

--------------------------------------------------------------------------
#psi4
#
memory 32 gb

molecule  {
0 1
  O        0.6831730     1.9514370    -0.1851230
  N        0.2065671    -0.2406838    -0.2709694
  C        1.7580560    -0.4955670    -0.5492050
  C       -0.1211040     1.0090560    -0.1118080
  C       -0.4973450    -1.4105120    -0.1972350
  C        2.5603930    -0.4317450     0.7423750
  C       -1.5372540     1.1223260     0.1526570
  C       -1.8319680    -1.2780450     0.0712850
  C       -2.3551590     0.0280850     0.2487950
  H        1.8855710    -1.4559800    -1.0561060
  H        2.0595230     0.3051280    -1.2266110
  H       -0.0197130    -2.3738180    -0.3527730
  H        2.4186300     0.5432120     1.2108420
  H        2.2423160    -1.2153800     1.4354410
  H        3.6255180    -0.5665000     0.5315230
  H       -1.9126600     2.1320090     0.2855670
  H       -2.4591310    -2.1595270     0.1391440
  H       -3.4140320     0.1624990     0.4585800
units angstrom
no_reorient  #important for SAPT in psi4, default
symmetry c1  #important for SAPT in psi4, default
}

set PROPERTIES_ORIGIN ["COM"]
properties('MP2/aug-cc-pvtz', properties = ['dipole'])
--------------------------------------------------------------------------

    Molecular point group: c1
  Charge       = 0
  Multiplicity = 1
  Basis Set: AUG-CC-PVTZ
    Blend: AUG-CC-PVTZ
  Basis Set: (AUG-CC-PVTZ AUX)
    Blend: AUG-CC-PVTZ-JKFIT

    Orbital Energies [Eh]
    ---------------------

    Doubly Occupied:

       1A    -20.491269     2A    -15.624845     3A    -11.333791
       4A    -11.307056     5A    -11.284893     6A    -11.264595
       7A    -11.243150     8A    -11.235663     9A    -11.225383
      10A     -1.372554    11A     -1.276364    12A     -1.109737
      13A     -1.039725    14A     -1.027938    15A     -0.886105
      16A     -0.883074    17A     -0.822400    18A     -0.723992
      19A     -0.695021    20A     -0.662994    21A     -0.637947
      22A     -0.614974    23A     -0.608922    24A     -0.603631
      25A     -0.560168    26A     -0.541513    27A     -0.530243
      28A     -0.511405    29A     -0.500967    30A     -0.470458
      31A     -0.412502    32A     -0.407278    33A     -0.312868

  @DF-RHF Final Energy:  -399.75023522649110

   => Energetics <=

    Nuclear Repulsion Energy =            438.5862493718471455
    One-Electron Energy =               -1412.2261143026573791
    Two-Electron Energy =                 573.8896297043191908
    Total Energy =                       -399.7502352264910996
  Basis Set: (AUG-CC-PVTZ AUX)
    Blend: AUG-CC-PVTZ-RI
    Molecular point group: c1

    Geometry (in Angstrom), charge = 0, multiplicity = 1:

       Center              X                  Y                   Z               Mass
    ------------   -----------------  -----------------  -----------------  -----------------
         O            0.732024267766     1.905110270717    -0.176702474484    15.994914619570
         N            0.255418367766    -0.287010529283    -0.262548874484    14.003074004430
         C            1.806907267766    -0.541893729283    -0.540784474484    12.000000000000
         C           -0.072252732234     0.962729270717    -0.103387474484    12.000000000000
         C           -0.448493732234    -1.456838729283    -0.188814474484    12.000000000000
         C            2.609244267766    -0.478071729283     0.750795525516    12.000000000000
         C           -1.488402732234     1.075999270717     0.161077525516    12.000000000000
         C           -1.783116732234    -1.324371729283     0.079705525516    12.000000000000
         C           -2.306307732234    -0.018241729283     0.257215525516    12.000000000000
         H            1.934422267766    -1.502306729283    -1.047685474484     1.007825032230
         H            2.108374267766     0.258801270717    -1.218190474484     1.007825032230
         H            0.029138267766    -2.420144729283    -0.344352474484     1.007825032230
         H            2.467481267766     0.496885270717     1.219262525516     1.007825032230
         H            2.291167267766    -1.261706729283     1.443861525516     1.007825032230
         H            3.674369267766    -0.612826729283     0.539943525516     1.007825032230
         H           -1.863808732234     2.085682270717     0.293987525516     1.007825032230
         H           -2.410279732234    -2.205853729283     0.147564525516     1.007825032230
         H           -3.365180732234     0.116172270717     0.467000525516     1.007825032230

  Basis Set: AUG-CC-PVTZ
    Blend: AUG-CC-PVTZ
  Basis Set: (AUG-CC-PVTZ AUX)
    Blend: AUG-CC-PVTZ-JKFIT
	 Reference Energy          =    -399.7502352264910996 [Eh]
	 Singles Energy            =      -0.0000000000000000 [Eh]
	 Same-Spin Energy          =      -0.4235479056031742 [Eh]
	 Opposite-Spin Energy      =      -1.3405386779048332 [Eh]
	 Correlation Energy        =      -1.7640865835080075 [Eh]
	 Total Energy              =    -401.5143218099991032 [Eh]

	 ================> DF-SCS-MP2 Energies <==================
	-----------------------------------------------------------
	 SCS Same-Spin Scale       =       0.3333333333333333 [-]
	 SCS Opposite-Spin Scale   =       1.2000000000000000 [-]
	 SCS Same-Spin Energy      =      -0.1411826352010581 [Eh]
	 SCS Opposite-Spin Energy  =      -1.6086464134857998 [Eh]
	 SCS Correlation Energy    =      -1.7498290486868580 [Eh]
	 SCS Total Energy          =    -401.5000642751779765 [Eh]
	-----------------------------------------------------------

  Dipole Moment: [D]
     X:    -0.6777      Y:    -4.2649      Z:     0.0153     Total:     4.3184

*** Psi4 exiting successfully. Buy a developer a beer!
