                               Psi4 1.3.2 release

  ==> Input File <==

--------------------------------------------------------------------------
#psi4
#
memory 32 gb

molecule  {
0 1
  O        0.7147651     1.9228652    -0.1930119
  N        0.3221270    -0.3206750    -0.2979720
  C        1.7580560    -0.4955670    -0.5492050
  C       -0.1211040     1.0090560    -0.1118080
  C       -0.4973450    -1.4105120    -0.1972350
  C        2.5603930    -0.4317450     0.7423750
  C       -1.5372540     1.1223260     0.1526570
  C       -1.8319680    -1.2780450     0.0712850
  C       -2.3551590     0.0280850     0.2487950
  H        1.8855710    -1.4559800    -1.0561060
  H        2.0595230     0.3051280    -1.2266110
  H       -0.0197130    -2.3738180    -0.3527730
  H        2.4186300     0.5432120     1.2108420
  H        2.2423160    -1.2153800     1.4354410
  H        3.6255180    -0.5665000     0.5315230
  H       -1.9126600     2.1320090     0.2855670
  H       -2.4591310    -2.1595270     0.1391440
  H       -3.4140320     0.1624990     0.4585800
units angstrom
no_reorient  #important for SAPT in psi4, default
symmetry c1  #important for SAPT in psi4, default
}

set PROPERTIES_ORIGIN ["COM"]
properties('MP2/aug-cc-pvtz', properties = ['dipole'])
--------------------------------------------------------------------------

    Molecular point group: c1
  Charge       = 0
  Multiplicity = 1
  Basis Set: AUG-CC-PVTZ
    Blend: AUG-CC-PVTZ
  Basis Set: (AUG-CC-PVTZ AUX)
    Blend: AUG-CC-PVTZ-JKFIT

    Orbital Energies [Eh]
    ---------------------

    Doubly Occupied:

       1A    -20.505529     2A    -15.624325     3A    -11.349866
       4A    -11.308838     5A    -11.272555     6A    -11.271868
       7A    -11.239958     8A    -11.238088     9A    -11.220162
      10A     -1.369988    11A     -1.276459    12A     -1.119363
      13A     -1.031239    14A     -1.017679    15A     -0.895545
      16A     -0.869710    17A     -0.824710    18A     -0.714271
      19A     -0.700782    20A     -0.667418    21A     -0.639818
      22A     -0.613719    23A     -0.607264    24A     -0.604467
      25A     -0.560435    26A     -0.538366    27A     -0.529278
      28A     -0.525216    29A     -0.504565    30A     -0.474449
      31A     -0.421222    32A     -0.407626    33A     -0.309069

  @DF-RHF Final Energy:  -399.77103266608492

   => Energetics <=

    Nuclear Repulsion Energy =            437.7880405213405197
    One-Electron Energy =               -1410.6104507658931198
    Two-Electron Energy =                 573.0513775784677364
    Total Energy =                       -399.7710326660849205
  Basis Set: (AUG-CC-PVTZ AUX)
    Blend: AUG-CC-PVTZ-RI
    Molecular point group: c1

    Geometry (in Angstrom), charge = 0, multiplicity = 1:

       Center              X                  Y                   Z               Mass
    ------------   -----------------  -----------------  -----------------  -----------------
         O            0.746361682292     1.889353507042    -0.180493639964    15.994914619570
         N            0.353723582292    -0.354186692958    -0.285453739964    14.003074004430
         C            1.789652582292    -0.529078692958    -0.536686739964    12.000000000000
         C           -0.089507417708     0.975544307042    -0.099289739964    12.000000000000
         C           -0.465748417708    -1.444023692958    -0.184716739964    12.000000000000
         C            2.591989582292    -0.465256692958     0.754893260036    12.000000000000
         C           -1.505657417708     1.088814307042     0.165175260036    12.000000000000
         C           -1.800371417708    -1.311556692958     0.083803260036    12.000000000000
         C           -2.323562417708    -0.005426692958     0.261313260036    12.000000000000
         H            1.917167582292    -1.489491692958    -1.043587739964     1.007825032230
         H            2.091119582292     0.271616307042    -1.214092739964     1.007825032230
         H            0.011883582292    -2.407329692958    -0.340254739964     1.007825032230
         H            2.450226582292     0.509700307042     1.223360260036     1.007825032230
         H            2.273912582292    -1.248891692958     1.447959260036     1.007825032230
         H            3.657114582292    -0.600011692958     0.544041260036     1.007825032230
         H           -1.881063417708     2.098497307042     0.298085260036     1.007825032230
         H           -2.427534417708    -2.193038692958     0.151662260036     1.007825032230
         H           -3.382435417708     0.128987307042     0.471098260036     1.007825032230

  Basis Set: AUG-CC-PVTZ
    Blend: AUG-CC-PVTZ
  Basis Set: (AUG-CC-PVTZ AUX)
    Blend: AUG-CC-PVTZ-JKFIT
	 Reference Energy          =    -399.7710326660849205 [Eh]
	 Singles Energy            =      -0.0000000000000000 [Eh]
	 Same-Spin Energy          =      -0.4236182526595739 [Eh]
	 Opposite-Spin Energy      =      -1.3399022780594341 [Eh]
	 Correlation Energy        =      -1.7635205307190081 [Eh]
	 Total Energy              =    -401.5345531968039268 [Eh]

	 ================> DF-SCS-MP2 Energies <==================
	-----------------------------------------------------------
	 SCS Same-Spin Scale       =       0.3333333333333333 [-]
	 SCS Opposite-Spin Scale   =       1.2000000000000000 [-]
	 SCS Same-Spin Energy      =      -0.1412060842198579 [Eh]
	 SCS Opposite-Spin Energy  =      -1.6078827336713208 [Eh]
	 SCS Correlation Energy    =      -1.7490888178911788 [Eh]
	 SCS Total Energy          =    -401.5201214839760837 [Eh]
	-----------------------------------------------------------

  Dipole Moment: [D]
     X:    -0.8332      Y:    -3.7597      Z:     0.0442     Total:     3.8512

*** Psi4 exiting successfully. Buy a developer a beer!
