                               Psi4 1.3.2 release

  ==> Input File <==

--------------------------------------------------------------------------
#psi4
#
memory 32 gb

molecule  {
0 1
  O        0.6831730     1.9514370    -0.1851230
  N        0.3270391    -0.2980769    -0.2869350
  C        1.7580560    -0.4955670    -0.5492050
  C       -0.1211040     1.0090560    -0.1118080
  C       -0.4973450    -1.4105120    -0.1972350
  C        2.5603930    -0.4317450     0.7423750
  C       -1.5372540     1.1223260     0.1526570
  C       -1.8319680    -1.2780450     0.0712850
  C       -2.3551590     0.0280850     0.2487950
  H        1.8855710    -1.4559800    -1.0561060
  H        2.0595230     0.3051280    -1.2266110
  H       -0.0197130    -2.3738180    -0.3527730
  H        2.4186300     0.5432120     1.2108420
  H        2.2423160    -1.2153800     1.4354410
  H        3.6255180    -0.5665000     0.5315230
  H       -1.9126600     2.1320090     0.2855670
  H       -2.4591310    -2.1595270     0.1391440
  H       -3.4140320     0.1624990     0.4585800
units angstrom
no_reorient  #important for SAPT in psi4, default
symmetry c1  #important for SAPT in psi4, default
}

set PROPERTIES_ORIGIN ["COM"]
properties('MP2/aug-cc-pvtz', properties = ['dipole'])
--------------------------------------------------------------------------

    Molecular point group: c1
  Charge       = 0
  Multiplicity = 1
  Basis Set: AUG-CC-PVTZ
    Blend: AUG-CC-PVTZ
  Basis Set: (AUG-CC-PVTZ AUX)
    Blend: AUG-CC-PVTZ-JKFIT

    Orbital Energies [Eh]
    ---------------------

    Doubly Occupied:

       1A    -20.502914     2A    -15.624664     3A    -11.346982
       4A    -11.309883     5A    -11.273234     6A    -11.270645
       7A    -11.242607     8A    -11.238414     9A    -11.220396
      10A     -1.369257    11A     -1.274330    12A     -1.119833
      13A     -1.029431    14A     -1.020590    15A     -0.895263
      16A     -0.872227    17A     -0.822476    18A     -0.714626
      19A     -0.700679    20A     -0.669043    21A     -0.639011
      22A     -0.612907    23A     -0.608057    24A     -0.605260
      25A     -0.559505    26A     -0.539040    27A     -0.528558
      28A     -0.525344    29A     -0.504951    30A     -0.472550
      31A     -0.420117    32A     -0.406940    33A     -0.310859

  @DF-RHF Final Energy:  -399.77132305342053

   => Energetics <=

    Nuclear Repulsion Energy =            437.5842282150758251
    One-Electron Energy =               -1410.2099194916170291
    Two-Electron Energy =                 572.8543682231206731
    Total Energy =                       -399.7713230534204740
  Basis Set: (AUG-CC-PVTZ AUX)
    Blend: AUG-CC-PVTZ-RI
    Molecular point group: c1

    Geometry (in Angstrom), charge = 0, multiplicity = 1:

       Center              X                  Y                   Z               Mass
    ------------   -----------------  -----------------  -----------------  -----------------
         O            0.718316621118     1.911640620797    -0.174885863128    15.994914619570
         N            0.362182721118    -0.337873279203    -0.276697863128    14.003074004430
         C            1.793199621118    -0.535363379203    -0.538967863128    12.000000000000
         C           -0.085960378882     0.969259620797    -0.101570863128    12.000000000000
         C           -0.462201378882    -1.450308379203    -0.186997863128    12.000000000000
         C            2.595536621118    -0.471541379203     0.752612136872    12.000000000000
         C           -1.502110378882     1.082529620797     0.162894136872    12.000000000000
         C           -1.796824378882    -1.317841379203     0.081522136872    12.000000000000
         C           -2.320015378882    -0.011711379203     0.259032136872    12.000000000000
         H            1.920714621118    -1.495776379203    -1.045868863128     1.007825032230
         H            2.094666621118     0.265331620797    -1.216373863128     1.007825032230
         H            0.015430621118    -2.413614379203    -0.342535863128     1.007825032230
         H            2.453773621118     0.503415620797     1.221079136872     1.007825032230
         H            2.277459621118    -1.255176379203     1.445678136872     1.007825032230
         H            3.660661621118    -0.606296379203     0.541760136872     1.007825032230
         H           -1.877516378882     2.092212620797     0.295804136872     1.007825032230
         H           -2.423987378882    -2.199323379203     0.149381136872     1.007825032230
         H           -3.378888378882     0.122702620797     0.468817136872     1.007825032230

  Basis Set: AUG-CC-PVTZ
    Blend: AUG-CC-PVTZ
  Basis Set: (AUG-CC-PVTZ AUX)
    Blend: AUG-CC-PVTZ-JKFIT
	 Reference Energy          =    -399.7713230534205309 [Eh]
	 Singles Energy            =      -0.0000000000000000 [Eh]
	 Same-Spin Energy          =      -0.4231589028398793 [Eh]
	 Opposite-Spin Energy      =      -1.3397107335831562 [Eh]
	 Correlation Energy        =      -1.7628696364230354 [Eh]
	 Total Energy              =    -401.5341926898435645 [Eh]

	 ================> DF-SCS-MP2 Energies <==================
	-----------------------------------------------------------
	 SCS Same-Spin Scale       =       0.3333333333333333 [-]
	 SCS Opposite-Spin Scale   =       1.2000000000000000 [-]
	 SCS Same-Spin Energy      =      -0.1410529676132931 [Eh]
	 SCS Opposite-Spin Energy  =      -1.6076528802997874 [Eh]
	 SCS Correlation Energy    =      -1.7487058479130804 [Eh]
	 SCS Total Energy          =    -401.5200289013336032 [Eh]
	-----------------------------------------------------------

  Dipole Moment: [D]
     X:    -0.8401      Y:    -3.8950      Z:     0.0301     Total:     3.9847

*** Psi4 exiting successfully. Buy a developer a beer!
