                               Psi4 1.4a3.dev225

  ==> Input File <==

--------------------------------------------------------------------------
#psi4
#
memory 32 gb

molecule  {
0 1
  O        0.6831730     1.9514370    -0.1851230
  N        0.3221270    -0.3206750    -0.2979720
  C        1.7580560    -0.4955670    -0.5492050
  C       -0.1211040     1.0090560    -0.1118080
  C       -0.4973450    -1.4105120    -0.1972350
  C        2.5603930    -0.4317450     0.7423750
  C       -1.5372540     1.1223260     0.1526570
  C       -1.8319680    -1.2780450     0.0712850
  C       -2.3551590     0.0280850     0.2487950
  H        1.8855710    -1.4559800    -1.0561060
  H        2.0595230     0.3051280    -1.2266110
  H        0.0022692    -2.4181524    -0.3599314
  H        2.4186300     0.5432120     1.2108420
  H        2.2423160    -1.2153800     1.4354410
  H        3.6255180    -0.5665000     0.5315230
  H       -1.9126600     2.1320090     0.2855670
  H       -2.4591310    -2.1595270     0.1391440
  H       -3.4140320     0.1624990     0.4585800
units angstrom
no_reorient  #important for SAPT in psi4, default
symmetry c1  #important for SAPT in psi4, default
}

set PROPERTIES_ORIGIN ["COM"]
properties('MP2/aug-cc-pvtz', properties = ['dipole'])
--------------------------------------------------------------------------

    Molecular point group: c1
  Charge       = 0
  Multiplicity = 1
  Basis Set: AUG-CC-PVTZ
    Blend: AUG-CC-PVTZ
  Basis Set: (AUG-CC-PVTZ AUX)
    Blend: AUG-CC-PVTZ-JKFIT

    Orbital Energies [Eh]
    ---------------------

    Doubly Occupied:

       1A    -20.506424     2A    -15.625913     3A    -11.350169
       4A    -11.314221     5A    -11.273726     6A    -11.270863
       7A    -11.240405     8A    -11.237136     9A    -11.221067
      10A     -1.369211    11A     -1.278228    12A     -1.119250
      13A     -1.030324    14A     -1.017450    15A     -0.895141
      16A     -0.867972    17A     -0.824865    18A     -0.710969
      19A     -0.700134    20A     -0.663617    21A     -0.639204
      22A     -0.613463    23A     -0.606732    24A     -0.603669
      25A     -0.560605    26A     -0.537605    27A     -0.529305
      28A     -0.525773    29A     -0.505551    30A     -0.475072
      31A     -0.421119    32A     -0.407921    33A     -0.308903

  @DF-RHF Final Energy:  -399.76892966842416

   => Energetics <=

    Nuclear Repulsion Energy =            437.1821157920556971
    One-Electron Energy =               -1409.3980787965126638
    Two-Electron Energy =                 572.4470333360327459
    Total Energy =                       -399.7689296684242208
  Basis Set: (AUG-CC-PVTZ AUX)
    Blend: AUG-CC-PVTZ-RI
    Molecular point group: c1

    Geometry (in Angstrom), charge = 0, multiplicity = 1:

       Center              X                  Y                   Z               Mass
    ------------   -----------------  -----------------  -----------------  -----------------
         O            0.718695518407     1.914574957669    -0.173571420719    15.994914619570
         N            0.357649518407    -0.357537042331    -0.286420420719    14.003074004430
         C            1.793578518407    -0.532429042331    -0.537653420719    12.000000000000
         C           -0.085581481593     0.972193957669    -0.100256420719    12.000000000000
         C           -0.461822481593    -1.447374042331    -0.185683420719    12.000000000000
         C            2.595915518407    -0.468607042331     0.753926579281    12.000000000000
         C           -1.501731481593     1.085463957669     0.164208579281    12.000000000000
         C           -1.796445481593    -1.314907042331     0.082836579281    12.000000000000
         C           -2.319636481593    -0.008777042331     0.260346579281    12.000000000000
         H            1.921093518407    -1.492842042331    -1.044554420719     1.007825032230
         H            2.095045518407     0.268265957669    -1.215059420719     1.007825032230
         H            0.037791718407    -2.455014442331    -0.348379820719     1.007825032230
         H            2.454152518407     0.506349957669     1.222393579281     1.007825032230
         H            2.277838518407    -1.252242042331     1.446992579281     1.007825032230
         H            3.661040518407    -0.603362042331     0.543074579281     1.007825032230
         H           -1.877137481593     2.095146957669     0.297118579281     1.007825032230
         H           -2.423608481593    -2.196389042331     0.150695579281     1.007825032230
         H           -3.378509481593     0.125636957669     0.470131579281     1.007825032230

  Basis Set: AUG-CC-PVTZ
    Blend: AUG-CC-PVTZ
  Basis Set: (AUG-CC-PVTZ AUX)
    Blend: AUG-CC-PVTZ-JKFIT
	 Reference Energy          =    -399.7689296684241640 [Eh]
	 Singles Energy            =      -0.0000000000000000 [Eh]
	 Same-Spin Energy          =      -0.4236354159725828 [Eh]
	 Opposite-Spin Energy      =      -1.3403303665835986 [Eh]
	 Correlation Energy        =      -1.7639657825561814 [Eh]
	 Total Energy              =    -401.5328954509803339 [Eh]

	 ================> DF-SCS-MP2 Energies <==================
	-----------------------------------------------------------
	 SCS Same-Spin Scale       =       0.3333333333333333 [-]
	 SCS Opposite-Spin Scale   =       1.2000000000000000 [-]
	 SCS Same-Spin Energy      =      -0.1412118053241943 [Eh]
	 SCS Opposite-Spin Energy  =      -1.6083964399003183 [Eh]
	 SCS Correlation Energy    =      -1.7496082452245125 [Eh]
	 SCS Total Energy          =    -401.5185379136486858 [Eh]
	-----------------------------------------------------------

  Dipole Moment: [D]
     X:    -0.7606      Y:    -3.8023      Z:     0.0332     Total:     3.8778

*** Psi4 exiting successfully. Buy a developer a beer!
