                               Psi4 1.3.2 release

  ==> Input File <==

--------------------------------------------------------------------------
#psi4
#
memory 32 gb

molecule  {
0 1
  O        0.6831730     1.9514370    -0.1851230
  N        0.3221270    -0.3206750    -0.2979720
  C        1.7580560    -0.4955670    -0.5492050
  C       -0.1159025     1.1600893    -0.1053868
  C       -0.4973450    -1.4105120    -0.1972350
  C        2.5603930    -0.4317450     0.7423750
  C       -1.5372540     1.1223260     0.1526570
  C       -1.8319680    -1.2780450     0.0712850
  C       -2.3551590     0.0280850     0.2487950
  H        1.8855710    -1.4559800    -1.0561060
  H        2.0595230     0.3051280    -1.2266110
  H       -0.0197130    -2.3738180    -0.3527730
  H        2.4186300     0.5432120     1.2108420
  H        2.2423160    -1.2153800     1.4354410
  H        3.6255180    -0.5665000     0.5315230
  H       -1.9126600     2.1320090     0.2855670
  H       -2.4591310    -2.1595270     0.1391440
  H       -3.4140320     0.1624990     0.4585800
units angstrom
no_reorient  #important for SAPT in psi4, default
symmetry c1  #important for SAPT in psi4, default
}

set PROPERTIES_ORIGIN ["COM"]
properties('MP2/aug-cc-pvtz', properties = ['dipole'])
--------------------------------------------------------------------------

    Molecular point group: c1
  Charge       = 0
  Multiplicity = 1
  Basis Set: AUG-CC-PVTZ
    Blend: AUG-CC-PVTZ
  Basis Set: (AUG-CC-PVTZ AUX)
    Blend: AUG-CC-PVTZ-JKFIT

    Orbital Energies [Eh]
    ---------------------

    Doubly Occupied:

       1A    -20.540250     2A    -15.601608     3A    -11.356691
       4A    -11.301473     5A    -11.270522     6A    -11.265846
       7A    -11.229932     8A    -11.225343     9A    -11.218428
      10A     -1.453658    11A     -1.259752    12A     -1.108723
      13A     -1.026419    14A     -1.001685    15A     -0.890687
      16A     -0.840249    17A     -0.823437    18A     -0.708570
      19A     -0.701311    20A     -0.678448    21A     -0.637936
      22A     -0.625373    23A     -0.612187    24A     -0.597766
      25A     -0.571525    26A     -0.549316    27A     -0.536101
      28A     -0.528113    29A     -0.501284    30A     -0.489597
      31A     -0.423174    32A     -0.396771    33A     -0.300349

  @DF-RHF Final Energy:  -399.74795861335690

   => Energetics <=

    Nuclear Repulsion Energy =            436.6042316430732626
    One-Electron Energy =               -1408.1593329650011128
    Two-Electron Energy =                 571.8071427085709502
    Total Energy =                       -399.7479586133569001
  Basis Set: (AUG-CC-PVTZ AUX)
    Blend: AUG-CC-PVTZ-RI
    Molecular point group: c1

    Geometry (in Angstrom), charge = 0, multiplicity = 1:

       Center              X                  Y                   Z               Mass
    ------------   -----------------  -----------------  -----------------  -----------------
         O            0.718368352505     1.899485131945    -0.174256152178    15.994914619570
         N            0.357322352505    -0.372626868055    -0.287105152178    14.003074004430
         C            1.793251352505    -0.547518868055    -0.538338152178    12.000000000000
         C           -0.080707147495     1.108137431945    -0.094519952178    12.000000000000
         C           -0.462149647495    -1.462463868055    -0.186368152178    12.000000000000
         C            2.595588352505    -0.483696868055     0.753241847822    12.000000000000
         C           -1.502058647495     1.070374131945     0.163523847822    12.000000000000
         C           -1.796772647495    -1.329996868055     0.082151847822    12.000000000000
         C           -2.319963647495    -0.023866868055     0.259661847822    12.000000000000
         H            1.920766352505    -1.507931868055    -1.045239152178     1.007825032230
         H            2.094718352505     0.253176131945    -1.215744152178     1.007825032230
         H            0.015482352505    -2.425769868055    -0.341906152178     1.007825032230
         H            2.453825352505     0.491260131945     1.221708847822     1.007825032230
         H            2.277511352505    -1.267331868055     1.446307847822     1.007825032230
         H            3.660713352505    -0.618451868055     0.542389847822     1.007825032230
         H           -1.877464647495     2.080057131945     0.296433847822     1.007825032230
         H           -2.423935647495    -2.211478868055     0.150010847822     1.007825032230
         H           -3.378836647495     0.110547131945     0.469446847822     1.007825032230

  Basis Set: AUG-CC-PVTZ
    Blend: AUG-CC-PVTZ
  Basis Set: (AUG-CC-PVTZ AUX)
    Blend: AUG-CC-PVTZ-JKFIT
	 Reference Energy          =    -399.7479586133569001 [Eh]
	 Singles Energy            =      -0.0000000000000000 [Eh]
	 Same-Spin Energy          =      -0.4228654821448996 [Eh]
	 Opposite-Spin Energy      =      -1.3381824242206184 [Eh]
	 Correlation Energy        =      -1.7610479063655180 [Eh]
	 Total Energy              =    -401.5090065197223907 [Eh]

	 ================> DF-SCS-MP2 Energies <==================
	-----------------------------------------------------------
	 SCS Same-Spin Scale       =       0.3333333333333333 [-]
	 SCS Opposite-Spin Scale   =       1.2000000000000000 [-]
	 SCS Same-Spin Energy      =      -0.1409551607149665 [Eh]
	 SCS Opposite-Spin Energy  =      -1.6058189090647421 [Eh]
	 SCS Correlation Energy    =      -1.7467740697797087 [Eh]
	 SCS Total Energy          =    -401.4947326831365899 [Eh]
	-----------------------------------------------------------

  Dipole Moment: [D]
     X:    -0.2593      Y:    -2.6784      Z:    -0.0021     Total:     2.6910

*** Psi4 exiting successfully. Buy a developer a beer!
