                               Psi4 1.3.2 release

  ==> Input File <==

--------------------------------------------------------------------------
#psi4
#
memory 32 gb

molecule  {
0 1
  O        0.6831730     1.9514370    -0.1851230
  N        0.3323870    -0.2755391    -0.2759779
  C        1.7580560    -0.4955670    -0.5492050
  C       -0.1211040     1.0090560    -0.1118080
  C       -0.4973450    -1.4105120    -0.1972350
  C        2.5603930    -0.4317450     0.7423750
  C       -1.5372540     1.1223260     0.1526570
  C       -1.8319680    -1.2780450     0.0712850
  C       -2.3551590     0.0280850     0.2487950
  H        1.8855710    -1.4559800    -1.0561060
  H        2.0595230     0.3051280    -1.2266110
  H       -0.0197130    -2.3738180    -0.3527730
  H        2.4186300     0.5432120     1.2108420
  H        2.2423160    -1.2153800     1.4354410
  H        3.6255180    -0.5665000     0.5315230
  H       -1.9126600     2.1320090     0.2855670
  H       -2.4591310    -2.1595270     0.1391440
  H       -3.4140320     0.1624990     0.4585800
units angstrom
no_reorient  #important for SAPT in psi4, default
symmetry c1  #important for SAPT in psi4, default
}

set PROPERTIES_ORIGIN ["COM"]
properties('MP2/aug-cc-pvtz', properties = ['dipole'])
--------------------------------------------------------------------------

    Molecular point group: c1
  Charge       = 0
  Multiplicity = 1
  Basis Set: AUG-CC-PVTZ
    Blend: AUG-CC-PVTZ
  Basis Set: (AUG-CC-PVTZ AUX)
    Blend: AUG-CC-PVTZ-JKFIT

    Orbital Energies [Eh]
    ---------------------

    Doubly Occupied:

       1A    -20.499531     2A    -15.623830     3A    -11.344013
       4A    -11.310872     5A    -11.272801     6A    -11.270684
       7A    -11.245054     8A    -11.239737     9A    -11.219735
      10A     -1.369747    11A     -1.270600    12A     -1.120590
      13A     -1.027910    14A     -1.022932    15A     -0.895020
      16A     -0.874064    17A     -0.819922    18A     -0.714946
      19A     -0.700917    20A     -0.670797    21A     -0.638140
      22A     -0.612600    23A     -0.608485    24A     -0.604857
      25A     -0.558477    26A     -0.539873    27A     -0.527658
      28A     -0.524255    29A     -0.504173    30A     -0.470365
      31A     -0.418883    32A     -0.406072    33A     -0.312913

  @DF-RHF Final Energy:  -399.76970956219503

   => Energetics <=

    Nuclear Repulsion Energy =            437.7371067987572815
    One-Electron Energy =               -1410.5327258500433345
    Two-Electron Energy =                 573.0259094890910774
    Total Energy =                       -399.7697095621949757
  Basis Set: (AUG-CC-PVTZ AUX)
    Blend: AUG-CC-PVTZ-RI
    Molecular point group: c1

    Geometry (in Angstrom), charge = 0, multiplicity = 1:

       Center              X                  Y                   Z               Mass
    ------------   -----------------  -----------------  -----------------  -----------------
         O            0.717708121852     1.909076205840    -0.176132593116    15.994914619570
         N            0.366922121852    -0.317899894160    -0.266987493116    14.003074004430
         C            1.792591121852    -0.537927794160    -0.540214593116    12.000000000000
         C           -0.086568878148     0.966695205840    -0.102817593116    12.000000000000
         C           -0.462809878148    -1.452872794160    -0.188244593116    12.000000000000
         C            2.594928121852    -0.474105794160     0.751365406884    12.000000000000
         C           -1.502718878148     1.079965205840     0.161647406884    12.000000000000
         C           -1.797432878148    -1.320405794160     0.080275406884    12.000000000000
         C           -2.320623878148    -0.014275794160     0.257785406884    12.000000000000
         H            1.920106121852    -1.498340794160    -1.047115593116     1.007825032230
         H            2.094058121852     0.262767205840    -1.217620593116     1.007825032230
         H            0.014822121852    -2.416178794160    -0.343782593116     1.007825032230
         H            2.453165121852     0.500851205840     1.219832406884     1.007825032230
         H            2.276851121852    -1.257740794160     1.444431406884     1.007825032230
         H            3.660053121852    -0.608860794160     0.540513406884     1.007825032230
         H           -1.878124878148     2.089648205840     0.294557406884     1.007825032230
         H           -2.424595878148    -2.201887794160     0.148134406884     1.007825032230
         H           -3.379496878148     0.120138205840     0.467570406884     1.007825032230

  Basis Set: AUG-CC-PVTZ
    Blend: AUG-CC-PVTZ
  Basis Set: (AUG-CC-PVTZ AUX)
    Blend: AUG-CC-PVTZ-JKFIT
	 Reference Energy          =    -399.7697095621950325 [Eh]
	 Singles Energy            =      -0.0000000000000000 [Eh]
	 Same-Spin Energy          =      -0.4228796410721960 [Eh]
	 Opposite-Spin Energy      =      -1.3396561123554465 [Eh]
	 Correlation Energy        =      -1.7625357534276425 [Eh]
	 Total Energy              =    -401.5322453156226743 [Eh]

	 ================> DF-SCS-MP2 Energies <==================
	-----------------------------------------------------------
	 SCS Same-Spin Scale       =       0.3333333333333333 [-]
	 SCS Opposite-Spin Scale   =       1.2000000000000000 [-]
	 SCS Same-Spin Energy      =      -0.1409598803573986 [Eh]
	 SCS Opposite-Spin Energy  =      -1.6075873348265357 [Eh]
	 SCS Correlation Energy    =      -1.7485472151839343 [Eh]
	 SCS Total Energy          =    -401.5182567773789515 [Eh]
	-----------------------------------------------------------

  Dipole Moment: [D]
     X:    -0.9196      Y:    -3.9784      Z:     0.0281     Total:     4.0834

*** Psi4 exiting successfully. Buy a developer a beer!
