                               Psi4 1.4a3.dev225

  ==> Input File <==

--------------------------------------------------------------------------
#psi4
#
memory 32 gb

molecule  {
0 1
  O        0.6831730     1.9514370    -0.1851230
  N        0.3221270    -0.3206750    -0.2979720
  C        1.7580560    -0.4955670    -0.5492050
  C       -0.1211040     1.0090560    -0.1118080
  C       -0.4973450    -1.4105120    -0.1972350
  C        2.5603930    -0.4317450     0.7423750
  C       -1.4882549     1.1184068     0.1435065
  C       -1.8319680    -1.2780450     0.0712850
  C       -2.3551590     0.0280850     0.2487950
  H        1.8855710    -1.4559800    -1.0561060
  H        2.0595230     0.3051280    -1.2266110
  H       -0.0197130    -2.3738180    -0.3527730
  H        2.4186300     0.5432120     1.2108420
  H        2.2423160    -1.2153800     1.4354410
  H        3.6255180    -0.5665000     0.5315230
  H       -1.9126600     2.1320090     0.2855670
  H       -2.4591310    -2.1595270     0.1391440
  H       -3.4140320     0.1624990     0.4585800
units angstrom
no_reorient  #important for SAPT in psi4, default
symmetry c1  #important for SAPT in psi4, default
}

set PROPERTIES_ORIGIN ["COM"]
properties('MP2/aug-cc-pvtz', properties = ['dipole'])
--------------------------------------------------------------------------

    Molecular point group: c1
  Charge       = 0
  Multiplicity = 1
  Basis Set: AUG-CC-PVTZ
    Blend: AUG-CC-PVTZ
  Basis Set: (AUG-CC-PVTZ AUX)
    Blend: AUG-CC-PVTZ-JKFIT

    Orbital Energies [Eh]
    ---------------------

    Doubly Occupied:

       1A    -20.500100     2A    -15.627239     3A    -11.343027
       4A    -11.311042     5A    -11.277225     6A    -11.273911
       7A    -11.241566     8A    -11.235786     9A    -11.221101
      10A     -1.367461    11A     -1.278043    12A     -1.118856
      13A     -1.031379    14A     -1.021177    15A     -0.899942
      16A     -0.868091    17A     -0.828444    18A     -0.714171
      19A     -0.702222    20A     -0.667556    21A     -0.637584
      22A     -0.613604    23A     -0.608280    24A     -0.604644
      25A     -0.562548    26A     -0.533791    27A     -0.529605
      28A     -0.524018    29A     -0.504995    30A     -0.474205
      31A     -0.420348    32A     -0.404222    33A     -0.308881

  @DF-RHF Final Energy:  -399.76678074475836

   => Energetics <=

    Nuclear Repulsion Energy =            438.1132095948408960
    One-Electron Energy =               -1411.2498533630384827
    Two-Electron Energy =                 573.3698630234392795
    Total Energy =                       -399.7667807447583073
  Basis Set: (AUG-CC-PVTZ AUX)
    Blend: AUG-CC-PVTZ-RI
    Molecular point group: c1

    Geometry (in Angstrom), charge = 0, multiplicity = 1:

       Center              X                  Y                   Z               Mass
    ------------   -----------------  -----------------  -----------------  -----------------
         O            0.714097791252     1.914594045279    -0.172737806455    15.994914619570
         N            0.353051791252    -0.357517954721    -0.285586806455    14.003074004430
         C            1.788980791252    -0.532409954721    -0.536819806455    12.000000000000
         C           -0.090179208748     0.972213045279    -0.099422806455    12.000000000000
         C           -0.466420208748    -1.447354954721    -0.184849806455    12.000000000000
         C            2.591317791252    -0.468587954721     0.754760193545    12.000000000000
         C           -1.457330108748     1.081563845279     0.155891693545    12.000000000000
         C           -1.801043208748    -1.314887954721     0.083670193545    12.000000000000
         C           -2.324234208748    -0.008757954721     0.261180193545    12.000000000000
         H            1.916495791252    -1.492822954721    -1.043720806455     1.007825032230
         H            2.090447791252     0.268285045279    -1.214225806455     1.007825032230
         H            0.011211791252    -2.410660954721    -0.340387806455     1.007825032230
         H            2.449554791252     0.506369045279     1.223227193545     1.007825032230
         H            2.273240791252    -1.252222954721     1.447826193545     1.007825032230
         H            3.656442791252    -0.603342954721     0.543908193545     1.007825032230
         H           -1.881735208748     2.095166045279     0.297952193545     1.007825032230
         H           -2.428206208748    -2.196369954721     0.151529193545     1.007825032230
         H           -3.383107208748     0.125656045279     0.470965193545     1.007825032230

  Basis Set: AUG-CC-PVTZ
    Blend: AUG-CC-PVTZ
  Basis Set: (AUG-CC-PVTZ AUX)
    Blend: AUG-CC-PVTZ-JKFIT
	 Reference Energy          =    -399.7667807447583641 [Eh]
	 Singles Energy            =      -0.0000000000000000 [Eh]
	 Same-Spin Energy          =      -0.4245639173405079 [Eh]
	 Opposite-Spin Energy      =      -1.3408570996017741 [Eh]
	 Correlation Energy        =      -1.7654210169422822 [Eh]
	 Total Energy              =    -401.5322017617006622 [Eh]

	 ================> DF-SCS-MP2 Energies <==================
	-----------------------------------------------------------
	 SCS Same-Spin Scale       =       0.3333333333333333 [-]
	 SCS Opposite-Spin Scale   =       1.2000000000000000 [-]
	 SCS Same-Spin Energy      =      -0.1415213057801693 [Eh]
	 SCS Opposite-Spin Energy  =      -1.6090285195221290 [Eh]
	 SCS Correlation Energy    =      -1.7505498253022982 [Eh]
	 SCS Total Energy          =    -401.5173305700606647 [Eh]
	-----------------------------------------------------------

  Dipole Moment: [D]
     X:    -0.8340      Y:    -3.9348      Z:     0.0408     Total:     4.0224

*** Psi4 exiting successfully. Buy a developer a beer!
