                               Psi4 1.3.2 release

  ==> Input File <==

--------------------------------------------------------------------------
#psi4
#
memory 32 gb

molecule  {
0 1
  O        0.6506010     1.9788606    -0.1771448
  N        0.3221270    -0.3206750    -0.2979720
  C        1.7580560    -0.4955670    -0.5492050
  C       -0.1211040     1.0090560    -0.1118080
  C       -0.4973450    -1.4105120    -0.1972350
  C        2.5603930    -0.4317450     0.7423750
  C       -1.5372540     1.1223260     0.1526570
  C       -1.8319680    -1.2780450     0.0712850
  C       -2.3551590     0.0280850     0.2487950
  H        1.8855710    -1.4559800    -1.0561060
  H        2.0595230     0.3051280    -1.2266110
  H       -0.0197130    -2.3738180    -0.3527730
  H        2.4186300     0.5432120     1.2108420
  H        2.2423160    -1.2153800     1.4354410
  H        3.6255180    -0.5665000     0.5315230
  H       -1.9126600     2.1320090     0.2855670
  H       -2.4591310    -2.1595270     0.1391440
  H       -3.4140320     0.1624990     0.4585800
units angstrom
no_reorient  #important for SAPT in psi4, default
symmetry c1  #important for SAPT in psi4, default
}

set PROPERTIES_ORIGIN ["COM"]
properties('MP2/aug-cc-pvtz', properties = ['dipole'])
--------------------------------------------------------------------------

    Molecular point group: c1
  Charge       = 0
  Multiplicity = 1
  Basis Set: AUG-CC-PVTZ
    Blend: AUG-CC-PVTZ
  Basis Set: (AUG-CC-PVTZ AUX)
    Blend: AUG-CC-PVTZ-JKFIT

    Orbital Energies [Eh]
    ---------------------

    Doubly Occupied:

       1A    -20.506849     2A    -15.626603     3A    -11.349873
       4A    -11.308757     5A    -11.274999     6A    -11.269254
       7A    -11.240278     8A    -11.236010     9A    -11.222083
      10A     -1.368212    11A     -1.280055    12A     -1.118801
      13A     -1.031457    14A     -1.018239    15A     -0.895676
      16A     -0.870941    17A     -0.824946    18A     -0.714403
      19A     -0.700166    20A     -0.667418    21A     -0.640102
      22A     -0.614116    23A     -0.608631    24A     -0.604931
      25A     -0.560491    26A     -0.538710    27A     -0.530206
      28A     -0.526288    29A     -0.506571    30A     -0.475347
      31A     -0.420830    32A     -0.407785    33A     -0.308413

  @DF-RHF Final Energy:  -399.77128469332246

   => Energetics <=

    Nuclear Repulsion Energy =            437.1113593558379762
    One-Electron Energy =               -1409.2304064068705429
    Two-Electron Energy =                 572.3477623577100530
    Total Energy =                       -399.7712846933225137
  Basis Set: (AUG-CC-PVTZ AUX)
    Blend: AUG-CC-PVTZ-RI
    Molecular point group: c1

    Geometry (in Angstrom), charge = 0, multiplicity = 1:

       Center              X                  Y                   Z               Mass
    ------------   -----------------  -----------------  -----------------  -----------------
         O            0.690536840665     1.938071315550    -0.166688749931    15.994914619570
         N            0.362062840665    -0.361464284450    -0.287515949931    14.003074004430
         C            1.797991840665    -0.536356284450    -0.538748949931    12.000000000000
         C           -0.081168159335     0.968266715550    -0.101351949931    12.000000000000
         C           -0.457409159335    -1.451301284450    -0.186778949931    12.000000000000
         C            2.600328840665    -0.472534284450     0.752831050069    12.000000000000
         C           -1.497318159335     1.081536715550     0.163113050069    12.000000000000
         C           -1.792032159335    -1.318834284450     0.081741050069    12.000000000000
         C           -2.315223159335    -0.012704284450     0.259251050069    12.000000000000
         H            1.925506840665    -1.496769284450    -1.045649949931     1.007825032230
         H            2.099458840665     0.264338715550    -1.216154949931     1.007825032230
         H            0.020222840665    -2.414607284450    -0.342316949931     1.007825032230
         H            2.458565840665     0.502422715550     1.221298050069     1.007825032230
         H            2.282251840665    -1.256169284450     1.445897050069     1.007825032230
         H            3.665453840665    -0.607289284450     0.541979050069     1.007825032230
         H           -1.872724159335     2.091219715550     0.296023050069     1.007825032230
         H           -2.419195159335    -2.200316284450     0.149600050069     1.007825032230
         H           -3.374096159335     0.121709715550     0.469036050069     1.007825032230

  Basis Set: AUG-CC-PVTZ
    Blend: AUG-CC-PVTZ
  Basis Set: (AUG-CC-PVTZ AUX)
    Blend: AUG-CC-PVTZ-JKFIT
	 Reference Energy          =    -399.7712846933224569 [Eh]
	 Singles Energy            =      -0.0000000000000000 [Eh]
	 Same-Spin Energy          =      -0.4233266294756616 [Eh]
	 Opposite-Spin Energy      =      -1.3398374245636924 [Eh]
	 Correlation Energy        =      -1.7631640540393541 [Eh]
	 Total Energy              =    -401.5344487473618074 [Eh]

	 ================> DF-SCS-MP2 Energies <==================
	-----------------------------------------------------------
	 SCS Same-Spin Scale       =       0.3333333333333333 [-]
	 SCS Opposite-Spin Scale   =       1.2000000000000000 [-]
	 SCS Same-Spin Energy      =      -0.1411088764918872 [Eh]
	 SCS Opposite-Spin Energy  =      -1.6078049094764308 [Eh]
	 SCS Correlation Energy    =      -1.7489137859683179 [Eh]
	 SCS Total Energy          =    -401.5201984792907979 [Eh]
	-----------------------------------------------------------

  Dipole Moment: [D]
     X:    -0.6807      Y:    -3.8621      Z:     0.0195     Total:     3.9217

*** Psi4 exiting successfully. Buy a developer a beer!
