                               Psi4 1.3.2 release

  ==> Input File <==

--------------------------------------------------------------------------
#psi4
#
memory 32 gb

molecule  {
0 1
  O        0.6831730     1.9514370    -0.1851230
  N        0.3221270    -0.3206750    -0.2979720
  C        1.7580560    -0.4955670    -0.5492050
  C       -0.1211040     1.0090560    -0.1118080
  C       -0.3774752    -1.2510940    -0.2119705
  C        2.5603930    -0.4317450     0.7423750
  C       -1.5372540     1.1223260     0.1526570
  C       -1.8319680    -1.2780450     0.0712850
  C       -2.3551590     0.0280850     0.2487950
  H        1.8855710    -1.4559800    -1.0561060
  H        2.0595230     0.3051280    -1.2266110
  H       -0.0197130    -2.3738180    -0.3527730
  H        2.4186300     0.5432120     1.2108420
  H        2.2423160    -1.2153800     1.4354410
  H        3.6255180    -0.5665000     0.5315230
  H       -1.9126600     2.1320090     0.2855670
  H       -2.4591310    -2.1595270     0.1391440
  H       -3.4140320     0.1624990     0.4585800
units angstrom
no_reorient  #important for SAPT in psi4, default
symmetry c1  #important for SAPT in psi4, default
}

set PROPERTIES_ORIGIN ["COM"]
properties('MP2/aug-cc-pvtz', properties = ['dipole'])
--------------------------------------------------------------------------

    Molecular point group: c1
  Charge       = 0
  Multiplicity = 1
  Basis Set: AUG-CC-PVTZ
    Blend: AUG-CC-PVTZ
  Basis Set: (AUG-CC-PVTZ AUX)
    Blend: AUG-CC-PVTZ-JKFIT

    Orbital Energies [Eh]
    ---------------------

    Doubly Occupied:

       1A    -20.507050     2A    -15.646531     3A    -11.351335
       4A    -11.318980     5A    -11.289142     6A    -11.262276
       7A    -11.234008     8A    -11.233194     9A    -11.218615
      10A     -1.409786    11A     -1.330204    12A     -1.112030
      13A     -1.052066    14A     -1.003121    15A     -0.908039
      16A     -0.893756    17A     -0.827292    18A     -0.725375
      19A     -0.702707    20A     -0.668833    21A     -0.652282
      22A     -0.637365    23A     -0.614591    24A     -0.585817
      25A     -0.564043    26A     -0.547796    27A     -0.538378
      28A     -0.518930    29A     -0.501359    30A     -0.488092
      31A     -0.418264    32A     -0.415951    33A     -0.282699

  @DF-RHF Final Energy:  -399.71090469778625

   => Energetics <=

    Nuclear Repulsion Energy =            441.0550524530958683
    One-Electron Energy =               -1416.6121000001107859
    Two-Electron Energy =                 575.8461428492287268
    Total Energy =                       -399.7109046977861908
  Basis Set: (AUG-CC-PVTZ AUX)
    Blend: AUG-CC-PVTZ-RI
    Molecular point group: c1

    Geometry (in Angstrom), charge = 0, multiplicity = 1:

       Center              X                  Y                   Z               Mass
    ------------   -----------------  -----------------  -----------------  -----------------
         O            0.707187420240     1.898667567171    -0.172193231304    15.994914619570
         N            0.346141420240    -0.373444432829    -0.285042231304    14.003074004430
         C            1.782070420240    -0.548336432829    -0.536275231304    12.000000000000
         C           -0.097089579760     0.956286567171    -0.098878231304    12.000000000000
         C           -0.353460779760    -1.303863432829    -0.199040731304    12.000000000000
         C            2.584407420240    -0.484514432829     0.755304768696    12.000000000000
         C           -1.513239579760     1.069556567171     0.165586768696    12.000000000000
         C           -1.807953579760    -1.330814432829     0.084214768696    12.000000000000
         C           -2.331144579760    -0.024684432829     0.261724768696    12.000000000000
         H            1.909585420240    -1.508749432829    -1.043176231304     1.007825032230
         H            2.083537420240     0.252358567171    -1.213681231304     1.007825032230
         H            0.004301420240    -2.426587432829    -0.339843231304     1.007825032230
         H            2.442644420240     0.490442567171     1.223771768696     1.007825032230
         H            2.266330420240    -1.268149432829     1.448370768696     1.007825032230
         H            3.649532420240    -0.619269432829     0.544452768696     1.007825032230
         H           -1.888645579760     2.079239567171     0.298496768696     1.007825032230
         H           -2.435116579760    -2.212296432829     0.152073768696     1.007825032230
         H           -3.390017579760     0.109729567171     0.471509768696     1.007825032230

  Basis Set: AUG-CC-PVTZ
    Blend: AUG-CC-PVTZ
  Basis Set: (AUG-CC-PVTZ AUX)
    Blend: AUG-CC-PVTZ-JKFIT
	 Reference Energy          =    -399.7109046977862477 [Eh]
	 Singles Energy            =      -0.0000000000000000 [Eh]
	 Same-Spin Energy          =      -0.4252091438429607 [Eh]
	 Opposite-Spin Energy      =      -1.3397138079424686 [Eh]
	 Correlation Energy        =      -1.7649229517854292 [Eh]
	 Total Energy              =    -401.4758276495716700 [Eh]

	 ================> DF-SCS-MP2 Energies <==================
	-----------------------------------------------------------
	 SCS Same-Spin Scale       =       0.3333333333333333 [-]
	 SCS Opposite-Spin Scale   =       1.2000000000000000 [-]
	 SCS Same-Spin Energy      =      -0.1417363812809869 [Eh]
	 SCS Opposite-Spin Energy  =      -1.6076565695309624 [Eh]
	 SCS Correlation Energy    =      -1.7493929508119492 [Eh]
	 SCS Total Energy          =    -401.4602976485982140 [Eh]
	-----------------------------------------------------------

  Dipole Moment: [D]
     X:     0.0779      Y:    -3.8566      Z:    -0.0704     Total:     3.8580

*** Psi4 exiting successfully. Buy a developer a beer!
