                               Psi4 1.3.2 release

  ==> Input File <==

--------------------------------------------------------------------------
#psi4
#
memory 32 gb

molecule  {
0 1
  O        0.6831730     1.9514370    -0.1851230
  N        0.3221270    -0.3206750    -0.2979720
  C        1.7580560    -0.4955670    -0.5492050
  C       -0.1211040     1.0090560    -0.1118080
  C       -0.4895042    -1.2677137    -0.1905420
  C        2.5603930    -0.4317450     0.7423750
  C       -1.5372540     1.1223260     0.1526570
  C       -1.8319680    -1.2780450     0.0712850
  C       -2.3551590     0.0280850     0.2487950
  H        1.8855710    -1.4559800    -1.0561060
  H        2.0595230     0.3051280    -1.2266110
  H       -0.0197130    -2.3738180    -0.3527730
  H        2.4186300     0.5432120     1.2108420
  H        2.2423160    -1.2153800     1.4354410
  H        3.6255180    -0.5665000     0.5315230
  H       -1.9126600     2.1320090     0.2855670
  H       -2.4591310    -2.1595270     0.1391440
  H       -3.4140320     0.1624990     0.4585800
units angstrom
no_reorient  #important for SAPT in psi4, default
symmetry c1  #important for SAPT in psi4, default
}

set PROPERTIES_ORIGIN ["COM"]
properties('MP2/aug-cc-pvtz', properties = ['dipole'])
--------------------------------------------------------------------------

    Molecular point group: c1
  Charge       = 0
  Multiplicity = 1
  Basis Set: AUG-CC-PVTZ
    Blend: AUG-CC-PVTZ
  Basis Set: (AUG-CC-PVTZ AUX)
    Blend: AUG-CC-PVTZ-JKFIT

    Orbital Energies [Eh]
    ---------------------

    Doubly Occupied:

       1A    -20.507084     2A    -15.634780     3A    -11.350062
       4A    -11.311987     5A    -11.282967     6A    -11.267281
       7A    -11.231682     8A    -11.227819     9A    -11.227215
      10A     -1.384458    11A     -1.310435    12A     -1.122204
      13A     -1.041396    14A     -1.014752    15A     -0.901422
      16A     -0.879475    17A     -0.832509    18A     -0.717406
      19A     -0.703623    20A     -0.660467    21A     -0.644731
      22A     -0.628627    23A     -0.610610    24A     -0.588927
      25A     -0.566532    26A     -0.545247    27A     -0.533292
      28A     -0.513972    29A     -0.509111    30A     -0.483362
      31A     -0.418783    32A     -0.414766    33A     -0.300670

  @DF-RHF Final Energy:  -399.74805901433746

   => Energetics <=

    Nuclear Repulsion Energy =            440.3184473213528349
    One-Electron Energy =               -1415.3977031576739591
    Two-Electron Energy =                 575.3311968219837809
    Total Energy =                       -399.7480590143374002
  Basis Set: (AUG-CC-PVTZ AUX)
    Blend: AUG-CC-PVTZ-RI
    Molecular point group: c1

    Geometry (in Angstrom), charge = 0, multiplicity = 1:

       Center              X                  Y                   Z               Mass
    ------------   -----------------  -----------------  -----------------  -----------------
         O            0.718111002963     1.900288099960    -0.174282654511    15.994914619570
         N            0.357065002963    -0.371823900040    -0.287131654511    14.003074004430
         C            1.792994002963    -0.546715900040    -0.538364654511    12.000000000000
         C           -0.086165997037     0.957907099960    -0.100967654511    12.000000000000
         C           -0.454566197037    -1.318862600040    -0.179701654511    12.000000000000
         C            2.595331002963    -0.482893900040     0.753215345489    12.000000000000
         C           -1.502315997037     1.071177099960     0.163497345489    12.000000000000
         C           -1.797029997037    -1.329193900040     0.082125345489    12.000000000000
         C           -2.320220997037    -0.023063900040     0.259635345489    12.000000000000
         H            1.920509002963    -1.507128900040    -1.045265654511     1.007825032230
         H            2.094461002963     0.253979099960    -1.215770654511     1.007825032230
         H            0.015225002963    -2.424966900040    -0.341932654511     1.007825032230
         H            2.453568002963     0.492063099960     1.221682345489     1.007825032230
         H            2.277254002963    -1.266528900040     1.446281345489     1.007825032230
         H            3.660456002963    -0.617648900040     0.542363345489     1.007825032230
         H           -1.877721997037     2.080860099960     0.296407345489     1.007825032230
         H           -2.424192997037    -2.210675900040     0.149984345489     1.007825032230
         H           -3.379093997037     0.111350099960     0.469420345489     1.007825032230

  Basis Set: AUG-CC-PVTZ
    Blend: AUG-CC-PVTZ
  Basis Set: (AUG-CC-PVTZ AUX)
    Blend: AUG-CC-PVTZ-JKFIT
	 Reference Energy          =    -399.7480590143374570 [Eh]
	 Singles Energy            =      -0.0000000000000000 [Eh]
	 Same-Spin Energy          =      -0.4241818884415118 [Eh]
	 Opposite-Spin Energy      =      -1.3391839129066740 [Eh]
	 Correlation Energy        =      -1.7633658013481859 [Eh]
	 Total Energy              =    -401.5114248156856434 [Eh]

	 ================> DF-SCS-MP2 Energies <==================
	-----------------------------------------------------------
	 SCS Same-Spin Scale       =       0.3333333333333333 [-]
	 SCS Opposite-Spin Scale   =       1.2000000000000000 [-]
	 SCS Same-Spin Energy      =      -0.1413939628138373 [Eh]
	 SCS Opposite-Spin Energy  =      -1.6070206954880089 [Eh]
	 SCS Correlation Energy    =      -1.7484146583018461 [Eh]
	 SCS Total Energy          =    -401.4964736726392971 [Eh]
	-----------------------------------------------------------

  Dipole Moment: [D]
     X:    -0.3627      Y:    -3.7106      Z:    -0.0008     Total:     3.7283

*** Psi4 exiting successfully. Buy a developer a beer!
