                               Psi4 1.3.2 release

  ==> Input File <==

--------------------------------------------------------------------------
#psi4
#
memory 32 gb

molecule  {
0 1
  O        0.6831730     1.9514370    -0.1851230
  N        0.3018829    -0.4571401    -0.3656819
  C        1.7580560    -0.4955670    -0.5492050
  C       -0.1211040     1.0090560    -0.1118080
  C       -0.4973450    -1.4105120    -0.1972350
  C        2.5603930    -0.4317450     0.7423750
  C       -1.5372540     1.1223260     0.1526570
  C       -1.8319680    -1.2780450     0.0712850
  C       -2.3551590     0.0280850     0.2487950
  H        1.8855710    -1.4559800    -1.0561060
  H        2.0595230     0.3051280    -1.2266110
  H       -0.0197130    -2.3738180    -0.3527730
  H        2.4186300     0.5432120     1.2108420
  H        2.2423160    -1.2153800     1.4354410
  H        3.6255180    -0.5665000     0.5315230
  H       -1.9126600     2.1320090     0.2855670
  H       -2.4591310    -2.1595270     0.1391440
  H       -3.4140320     0.1624990     0.4585800
units angstrom
no_reorient  #important for SAPT in psi4, default
symmetry c1  #important for SAPT in psi4, default
}

set PROPERTIES_ORIGIN ["COM"]
properties('MP2/aug-cc-pvtz', properties = ['dipole'])
--------------------------------------------------------------------------

    Molecular point group: c1
  Charge       = 0
  Multiplicity = 1
  Basis Set: AUG-CC-PVTZ
    Blend: AUG-CC-PVTZ
  Basis Set: (AUG-CC-PVTZ AUX)
    Blend: AUG-CC-PVTZ-JKFIT

    Orbital Energies [Eh]
    ---------------------

    Doubly Occupied:

       1A    -20.524013     2A    -15.628951     3A    -11.364358
       4A    -11.301167     5A    -11.279517     6A    -11.270047
       7A    -11.228981     8A    -11.226697     9A    -11.225765
      10A     -1.371321    11A     -1.306490    12A     -1.115315
      13A     -1.045166    14A     -1.002980    15A     -0.900315
      16A     -0.860224    17A     -0.832772    18A     -0.714586
      19A     -0.698620    20A     -0.661589    21A     -0.646045
      22A     -0.623400    23A     -0.610109    24A     -0.596128
      25A     -0.564450    26A     -0.544235    27A     -0.533461
      28A     -0.524788    29A     -0.506313    30A     -0.490781
      31A     -0.421136    32A     -0.411092    33A     -0.296475

  @DF-RHF Final Energy:  -399.74387141166443

   => Energetics <=

    Nuclear Repulsion Energy =            436.6002927096350277
    One-Electron Energy =               -1408.0337549660462173
    Two-Electron Energy =                 571.6895908447468173
    Total Energy =                       -399.7438714116643723
  Basis Set: (AUG-CC-PVTZ AUX)
    Blend: AUG-CC-PVTZ-RI
    Molecular point group: c1

    Geometry (in Angstrom), charge = 0, multiplicity = 1:

       Center              X                  Y                   Z               Mass
    ------------   -----------------  -----------------  -----------------  -----------------
         O            0.721178965070     1.929739283891    -0.165925816978    15.994914619570
         N            0.339888865070    -0.478837816109    -0.346484716978    14.003074004430
         C            1.796061965070    -0.517264716109    -0.530007816978    12.000000000000
         C           -0.083098034930     0.987358283891    -0.092610816978    12.000000000000
         C           -0.459339034930    -1.432209716109    -0.178037816978    12.000000000000
         C            2.598398965070    -0.453442716109     0.761572183022    12.000000000000
         C           -1.499248034930     1.100628283891     0.171854183022    12.000000000000
         C           -1.793962034930    -1.299742716109     0.090482183022    12.000000000000
         C           -2.317153034930     0.006387283891     0.267992183022    12.000000000000
         H            1.923576965070    -1.477677716109    -1.036908816978     1.007825032230
         H            2.097528965070     0.283430283891    -1.207413816978     1.007825032230
         H            0.018292965070    -2.395515716109    -0.333575816978     1.007825032230
         H            2.456635965070     0.521514283891     1.230039183022     1.007825032230
         H            2.280321965070    -1.237077716109     1.454638183022     1.007825032230
         H            3.663523965070    -0.588197716109     0.550720183022     1.007825032230
         H           -1.874654034930     2.110311283891     0.304764183022     1.007825032230
         H           -2.421125034930    -2.181224716109     0.158341183022     1.007825032230
         H           -3.376026034930     0.140801283891     0.477777183022     1.007825032230

  Basis Set: AUG-CC-PVTZ
    Blend: AUG-CC-PVTZ
  Basis Set: (AUG-CC-PVTZ AUX)
    Blend: AUG-CC-PVTZ-JKFIT
	 Reference Energy          =    -399.7438714116644292 [Eh]
	 Singles Energy            =      -0.0000000000000000 [Eh]
	 Same-Spin Energy          =      -0.4255338867482848 [Eh]
	 Opposite-Spin Energy      =      -1.3422264181983459 [Eh]
	 Correlation Energy        =      -1.7677603049466306 [Eh]
	 Total Energy              =    -401.5116317166110775 [Eh]

	 ================> DF-SCS-MP2 Energies <==================
	-----------------------------------------------------------
	 SCS Same-Spin Scale       =       0.3333333333333333 [-]
	 SCS Opposite-Spin Scale   =       1.2000000000000000 [-]
	 SCS Same-Spin Energy      =      -0.1418446289160949 [Eh]
	 SCS Opposite-Spin Energy  =      -1.6106717018380150 [Eh]
	 SCS Correlation Energy    =      -1.7525163307541098 [Eh]
	 SCS Total Energy          =    -401.4963877424185625 [Eh]
	-----------------------------------------------------------

  Dipole Moment: [D]
     X:    -0.2434      Y:    -3.3566      Z:     0.0385     Total:     3.3656

*** Psi4 exiting successfully. Buy a developer a beer!
