                               Psi4 1.4a3.dev225

  ==> Input File <==

--------------------------------------------------------------------------
#psi4
#
memory 32 gb

molecule  {
0 1
  O        0.6831730     1.9514370    -0.1851230
  N        0.3221270    -0.3206750    -0.2979720
  C        1.7580560    -0.4955670    -0.5492050
  C       -0.1211040     1.0090560    -0.1118080
  C       -0.4973450    -1.4105120    -0.1972350
  C        2.5603930    -0.4317450     0.7423750
  C       -1.5372540     1.1223260     0.1526570
  C       -1.8319680    -1.2780450     0.0712850
  C       -2.3252979     0.0680349     0.2452851
  H        1.8855710    -1.4559800    -1.0561060
  H        2.0595230     0.3051280    -1.2266110
  H       -0.0197130    -2.3738180    -0.3527730
  H        2.4186300     0.5432120     1.2108420
  H        2.2423160    -1.2153800     1.4354410
  H        3.6255180    -0.5665000     0.5315230
  H       -1.9126600     2.1320090     0.2855670
  H       -2.4591310    -2.1595270     0.1391440
  H       -3.4140320     0.1624990     0.4585800
units angstrom
no_reorient  #important for SAPT in psi4, default
symmetry c1  #important for SAPT in psi4, default
}

set PROPERTIES_ORIGIN ["COM"]
properties('MP2/aug-cc-pvtz', properties = ['dipole'])
--------------------------------------------------------------------------

    Molecular point group: c1
  Charge       = 0
  Multiplicity = 1
  Basis Set: AUG-CC-PVTZ
    Blend: AUG-CC-PVTZ
  Basis Set: (AUG-CC-PVTZ AUX)
    Blend: AUG-CC-PVTZ-JKFIT

    Orbital Energies [Eh]
    ---------------------

    Doubly Occupied:

       1A    -20.509543     2A    -15.622735     3A    -11.351779
       4A    -11.305984     5A    -11.273143     6A    -11.267247
       7A    -11.240419     8A    -11.232822     9A    -11.220716
      10A     -1.370726    11A     -1.278075    12A     -1.121924
      13A     -1.035915    14A     -1.016117    15A     -0.892192
      16A     -0.870921    17A     -0.823384    18A     -0.713270
      19A     -0.702139    20A     -0.664513    21A     -0.640607
      22A     -0.614509    23A     -0.606906    24A     -0.605887
      25A     -0.563174    26A     -0.537686    27A     -0.528547
      28A     -0.521389    29A     -0.505336    30A     -0.474307
      31A     -0.422513    32A     -0.412669    33A     -0.312153

  @DF-RHF Final Energy:  -399.77026999216685

   => Energetics <=

    Nuclear Repulsion Energy =            438.0167412806823108
    One-Electron Energy =               -1411.0555359532440889
    Two-Electron Energy =                 573.2685246803949894
    Total Energy =                       -399.7702699921668454
  Basis Set: (AUG-CC-PVTZ AUX)
    Blend: AUG-CC-PVTZ-RI
    Molecular point group: c1

    Geometry (in Angstrom), charge = 0, multiplicity = 1:

       Center              X                  Y                   Z               Mass
    ------------   -----------------  -----------------  -----------------  -----------------
         O            0.715963875267     1.910316512294    -0.173287802980    15.994914619570
         N            0.354917875267    -0.361795487706    -0.286136802980    14.003074004430
         C            1.790846875267    -0.536687487706    -0.537369802980    12.000000000000
         C           -0.088313124733     0.967935512294    -0.099972802980    12.000000000000
         C           -0.464554124733    -1.451632487706    -0.185399802980    12.000000000000
         C            2.593183875267    -0.472865487706     0.754210197020    12.000000000000
         C           -1.504463124733     1.081205512294     0.164492197020    12.000000000000
         C           -1.799177124733    -1.319165487706     0.083120197020    12.000000000000
         C           -2.292507024733     0.026914412294     0.257120297020    12.000000000000
         H            1.918361875267    -1.497100487706    -1.044270802980     1.007825032230
         H            2.092313875267     0.264007512294    -1.214775802980     1.007825032230
         H            0.013077875267    -2.414938487706    -0.340937802980     1.007825032230
         H            2.451420875267     0.502091512294     1.222677197020     1.007825032230
         H            2.275106875267    -1.256500487706     1.447276197020     1.007825032230
         H            3.658308875267    -0.607620487706     0.543358197020     1.007825032230
         H           -1.879869124733     2.090888512294     0.297402197020     1.007825032230
         H           -2.426340124733    -2.200647487706     0.150979197020     1.007825032230
         H           -3.381241124733     0.121378512294     0.470415197020     1.007825032230

  Basis Set: AUG-CC-PVTZ
    Blend: AUG-CC-PVTZ
  Basis Set: (AUG-CC-PVTZ AUX)
    Blend: AUG-CC-PVTZ-JKFIT
	 Reference Energy          =    -399.7702699921668454 [Eh]
	 Singles Energy            =      -0.0000000000000000 [Eh]
	 Same-Spin Energy          =      -0.4224424837617067 [Eh]
	 Opposite-Spin Energy      =      -1.3387955284737025 [Eh]
	 Correlation Energy        =      -1.7612380122354092 [Eh]
	 Total Energy              =    -401.5315080044022693 [Eh]

	 ================> DF-SCS-MP2 Energies <==================
	-----------------------------------------------------------
	 SCS Same-Spin Scale       =       0.3333333333333333 [-]
	 SCS Opposite-Spin Scale   =       1.2000000000000000 [-]
	 SCS Same-Spin Energy      =      -0.1408141612539022 [Eh]
	 SCS Opposite-Spin Energy  =      -1.6065546341684429 [Eh]
	 SCS Correlation Energy    =      -1.7473687954223451 [Eh]
	 SCS Total Energy          =    -401.5176387875891919 [Eh]
	-----------------------------------------------------------

  Dipole Moment: [D]
     X:    -0.7517      Y:    -3.7317      Z:     0.0310     Total:     3.8067

*** Psi4 exiting successfully. Buy a developer a beer!
