                               Psi4 1.3.2 release

  ==> Input File <==

--------------------------------------------------------------------------
#psi4
#
memory 32 gb

molecule  {
0 1
  O        0.6831730     1.9514370    -0.1851230
  N        0.3221270    -0.3206750    -0.2979720
  C        1.7580560    -0.4955670    -0.5492050
  C       -0.1211040     1.0090560    -0.1118080
  C       -0.4973450    -1.4105120    -0.1972350
  C        2.5603930    -0.4317450     0.7423750
  C       -1.5372540     1.1223260     0.1526570
  C       -1.8319680    -1.2780450     0.0712850
  C       -2.3918803     0.0573607     0.2577154
  H        1.8855710    -1.4559800    -1.0561060
  H        2.0595230     0.3051280    -1.2266110
  H       -0.0197130    -2.3738180    -0.3527730
  H        2.4186300     0.5432120     1.2108420
  H        2.2423160    -1.2153800     1.4354410
  H        3.6255180    -0.5665000     0.5315230
  H       -1.9126600     2.1320090     0.2855670
  H       -2.4591310    -2.1595270     0.1391440
  H       -3.4140320     0.1624990     0.4585800
units angstrom
no_reorient  #important for SAPT in psi4, default
symmetry c1  #important for SAPT in psi4, default
}

set PROPERTIES_ORIGIN ["COM"]
properties('MP2/aug-cc-pvtz', properties = ['dipole'])
--------------------------------------------------------------------------

    Molecular point group: c1
  Charge       = 0
  Multiplicity = 1
  Basis Set: AUG-CC-PVTZ
    Blend: AUG-CC-PVTZ
  Basis Set: (AUG-CC-PVTZ AUX)
    Blend: AUG-CC-PVTZ-JKFIT

    Orbital Energies [Eh]
    ---------------------

    Doubly Occupied:

       1A    -20.508665     2A    -15.623498     3A    -11.352217
       4A    -11.306501     5A    -11.273145     6A    -11.271854
       7A    -11.242713     8A    -11.239342     9A    -11.220699
      10A     -1.370043    11A     -1.277320    12A     -1.114225
      13A     -1.031876    14A     -1.015507    15A     -0.896397
      16A     -0.868011    17A     -0.827724    18A     -0.712566
      19A     -0.698541    20A     -0.672556    21A     -0.639377
      22A     -0.617035    23A     -0.606853    24A     -0.604556
      25A     -0.566677    26A     -0.533163    27A     -0.528464
      28A     -0.524074    29A     -0.504491    30A     -0.473472
      31A     -0.423739    32A     -0.405687    33A     -0.309602

  @DF-RHF Final Energy:  -399.76889338180678

   => Energetics <=

    Nuclear Repulsion Energy =            436.6703918604486034
    One-Electron Energy =               -1408.3573881827167043
    Two-Electron Energy =                 571.9181029404612673
    Total Energy =                       -399.7688933818068335
  Basis Set: (AUG-CC-PVTZ AUX)
    Blend: AUG-CC-PVTZ-RI
    Molecular point group: c1

    Geometry (in Angstrom), charge = 0, multiplicity = 1:

       Center              X                  Y                   Z               Mass
    ------------   -----------------  -----------------  -----------------  -----------------
         O            0.722456108120     1.911357318752    -0.174499841026    15.994914619570
         N            0.361410108120    -0.360754681248    -0.287348841026    14.003074004430
         C            1.797339108120    -0.535646681248    -0.538581841026    12.000000000000
         C           -0.081820891880     0.968976318752    -0.101184841026    12.000000000000
         C           -0.458061891880    -1.450591681248    -0.186611841026    12.000000000000
         C            2.599676108120    -0.471824681248     0.752998158974    12.000000000000
         C           -1.497970891880     1.082246318752     0.163280158974    12.000000000000
         C           -1.792684891880    -1.318124681248     0.081908158974    12.000000000000
         C           -2.352597191880     0.017281018752     0.268338558974    12.000000000000
         H            1.924854108120    -1.496059681248    -1.045482841026     1.007825032230
         H            2.098806108120     0.265048318752    -1.215987841026     1.007825032230
         H            0.019570108120    -2.413897681248    -0.342149841026     1.007825032230
         H            2.457913108120     0.503132318752     1.221465158974     1.007825032230
         H            2.281599108120    -1.255459681248     1.446064158974     1.007825032230
         H            3.664801108120    -0.606579681248     0.542146158974     1.007825032230
         H           -1.873376891880     2.091929318752     0.296190158974     1.007825032230
         H           -2.419847891880    -2.199606681248     0.149767158974     1.007825032230
         H           -3.374748891880     0.122419318752     0.469203158974     1.007825032230

  Basis Set: AUG-CC-PVTZ
    Blend: AUG-CC-PVTZ
  Basis Set: (AUG-CC-PVTZ AUX)
    Blend: AUG-CC-PVTZ-JKFIT
	 Reference Energy          =    -399.7688933818067767 [Eh]
	 Singles Energy            =      -0.0000000000000000 [Eh]
	 Same-Spin Energy          =      -0.4229498273131289 [Eh]
	 Opposite-Spin Energy      =      -1.3399302043221448 [Eh]
	 Correlation Energy        =      -1.7628800316352737 [Eh]
	 Total Energy              =    -401.5317734134420675 [Eh]

	 ================> DF-SCS-MP2 Energies <==================
	-----------------------------------------------------------
	 SCS Same-Spin Scale       =       0.3333333333333333 [-]
	 SCS Opposite-Spin Scale   =       1.2000000000000000 [-]
	 SCS Same-Spin Energy      =      -0.1409832757710430 [Eh]
	 SCS Opposite-Spin Energy  =      -1.6079162451865738 [Eh]
	 SCS Correlation Energy    =      -1.7488995209576168 [Eh]
	 SCS Total Energy          =    -401.5177929027643700 [Eh]
	-----------------------------------------------------------

  Dipole Moment: [D]
     X:    -0.7938      Y:    -3.7354      Z:     0.0418     Total:     3.8190

*** Psi4 exiting successfully. Buy a developer a beer!
