                               Psi4 1.3.2 release

  ==> Input File <==

--------------------------------------------------------------------------
#psi4
#
memory 32 gb

molecule  {
0 1
  O        0.6831730     1.9514370    -0.1851230
  N        0.3221270    -0.3206750    -0.2979720
  C        1.7580560    -0.4955670    -0.5492050
  C       -0.1211040     1.0090560    -0.1118080
  C       -0.4973450    -1.4105120    -0.1972350
  C        2.5603930    -0.4317450     0.7423750
  C       -1.5372540     1.1223260     0.1526570
  C       -1.8319680    -1.2780450     0.0712850
  C       -2.3551590     0.0280850     0.2487950
  H        1.8855710    -1.4559800    -1.0561060
  H        2.0595230     0.3051280    -1.2266110
  H       -0.0197130    -2.3738180    -0.3527730
  H        2.4186300     0.5432120     1.2108420
  H        2.2423160    -1.2153800     1.4354410
  H        3.6255180    -0.5665000     0.5315230
  H       -1.9472474     2.2250346     0.2978125
  H       -2.4591310    -2.1595270     0.1391440
  H       -3.4140320     0.1624990     0.4585800
units angstrom
no_reorient  #important for SAPT in psi4, default
symmetry c1  #important for SAPT in psi4, default
}

set PROPERTIES_ORIGIN ["COM"]
properties('MP2/aug-cc-pvtz', properties = ['dipole'])
--------------------------------------------------------------------------

    Molecular point group: c1
  Charge       = 0
  Multiplicity = 1
  Basis Set: AUG-CC-PVTZ
    Blend: AUG-CC-PVTZ
  Basis Set: (AUG-CC-PVTZ AUX)
    Blend: AUG-CC-PVTZ-JKFIT

    Orbital Energies [Eh]
    ---------------------

    Doubly Occupied:

       1A    -20.506255     2A    -15.626126     3A    -11.350754
       4A    -11.309107     5A    -11.274124     6A    -11.271237
       7A    -11.247706     8A    -11.240709     9A    -11.221302
      10A     -1.369169    11A     -1.278659    12A     -1.118811
      13A     -1.030069    14A     -1.017853    15A     -0.895475
      16A     -0.866971    17A     -0.824526    18A     -0.712078
      19A     -0.700792    20A     -0.663531    21A     -0.635100
      22A     -0.612662    23A     -0.607273    24A     -0.603468
      25A     -0.560882    26A     -0.534489    27A     -0.528843
      28A     -0.520462    29A     -0.505128    30A     -0.475102
      31A     -0.421425    32A     -0.408204    33A     -0.309065

  @DF-RHF Final Energy:  -399.76404711046655

   => Energetics <=

    Nuclear Repulsion Energy =            436.9398497721989543
    One-Electron Energy =               -1408.9130833983281263
    Two-Electron Energy =                 572.2091865156626227
    Total Energy =                       -399.7640471104665494
  Basis Set: (AUG-CC-PVTZ AUX)
    Blend: AUG-CC-PVTZ-RI
    Molecular point group: c1

    Geometry (in Angstrom), charge = 0, multiplicity = 1:

       Center              X                  Y                   Z               Mass
    ------------   -----------------  -----------------  -----------------  -----------------
         O            0.719158775039     1.913450096772    -0.173730322061    15.994914619570
         N            0.358112775039    -0.358661903228    -0.286579322061    14.003074004430
         C            1.794041775039    -0.533553903228    -0.537812322061    12.000000000000
         C           -0.085118224961     0.971069096772    -0.100415322061    12.000000000000
         C           -0.461359224961    -1.448498903228    -0.185842322061    12.000000000000
         C            2.596378775039    -0.469731903228     0.753767677939    12.000000000000
         C           -1.501268224961     1.084339096772     0.164049677939    12.000000000000
         C           -1.795982224961    -1.316031903228     0.082677677939    12.000000000000
         C           -2.319173224961    -0.009901903228     0.260187677939    12.000000000000
         H            1.921556775039    -1.493966903228    -1.044713322061     1.007825032230
         H            2.095508775039     0.267141096772    -1.215218322061     1.007825032230
         H            0.016272775039    -2.411804903228    -0.341380322061     1.007825032230
         H            2.454615775039     0.505225096772     1.222234677939     1.007825032230
         H            2.278301775039    -1.253366903228     1.446833677939     1.007825032230
         H            3.661503775039    -0.604486903228     0.542915677939     1.007825032230
         H           -1.911261624961     2.187047696772     0.309205177939     1.007825032230
         H           -2.423145224961    -2.197513903228     0.150536677939     1.007825032230
         H           -3.378046224961     0.124512096772     0.469972677939     1.007825032230

  Basis Set: AUG-CC-PVTZ
    Blend: AUG-CC-PVTZ
  Basis Set: (AUG-CC-PVTZ AUX)
    Blend: AUG-CC-PVTZ-JKFIT
	 Reference Energy          =    -399.7640471104665494 [Eh]
	 Singles Energy            =      -0.0000000000000000 [Eh]
	 Same-Spin Energy          =      -0.4237103789040076 [Eh]
	 Opposite-Spin Energy      =      -1.3407226285670391 [Eh]
	 Correlation Energy        =      -1.7644330074710468 [Eh]
	 Total Energy              =    -401.5284801179375904 [Eh]

	 ================> DF-SCS-MP2 Energies <==================
	-----------------------------------------------------------
	 SCS Same-Spin Scale       =       0.3333333333333333 [-]
	 SCS Opposite-Spin Scale   =       1.2000000000000000 [-]
	 SCS Same-Spin Energy      =      -0.1412367929680025 [Eh]
	 SCS Opposite-Spin Energy  =      -1.6088671542804469 [Eh]
	 SCS Correlation Energy    =      -1.7501039472484494 [Eh]
	 SCS Total Energy          =    -401.5141510577150257 [Eh]
	-----------------------------------------------------------

  Dipole Moment: [D]
     X:    -0.7445      Y:    -3.8186      Z:     0.0303     Total:     3.8906

*** Psi4 exiting successfully. Buy a developer a beer!
