                               Psi4 1.4a3.dev225

  ==> Input File <==

--------------------------------------------------------------------------
#psi4
#
memory 32 gb

molecule  {
0 1
  O        0.6831730     1.9514370    -0.1851230
  N        0.3221270    -0.3206750    -0.2979720
  C        1.7580560    -0.4955670    -0.5492050
  C       -0.1211040     1.0090560    -0.1118080
  C       -0.4973450    -1.4105120    -0.1972350
  C        2.5603930    -0.4317450     0.7423750
  C       -1.5372540     1.1223260     0.1526570
  C       -1.8319680    -1.2780450     0.0712850
  C       -2.3551590     0.0280850     0.2487950
  H        1.8855710    -1.4559800    -1.0561060
  H        2.0595230     0.3051280    -1.2266110
  H       -0.0197130    -2.3738180    -0.3527730
  H        2.4186300     0.5432120     1.2108420
  H        2.2423160    -1.2153800     1.4354410
  H        3.6255180    -0.5665000     0.5315230
  H       -1.9195775     2.1506141     0.2880161
  H       -2.4591310    -2.1595270     0.1391440
  H       -3.4140320     0.1624990     0.4585800
units angstrom
no_reorient  #important for SAPT in psi4, default
symmetry c1  #important for SAPT in psi4, default
}

set PROPERTIES_ORIGIN ["COM"]
properties('MP2/aug-cc-pvtz', properties = ['dipole'])
--------------------------------------------------------------------------

    Molecular point group: c1
  Charge       = 0
  Multiplicity = 1
  Basis Set: AUG-CC-PVTZ
    Blend: AUG-CC-PVTZ
  Basis Set: (AUG-CC-PVTZ AUX)
    Blend: AUG-CC-PVTZ-JKFIT

    Orbital Energies [Eh]
    ---------------------

    Doubly Occupied:

       1A    -20.506221     2A    -15.625593     3A    -11.350017
       4A    -11.308868     5A    -11.273856     6A    -11.270700
       7A    -11.240236     8A    -11.239264     9A    -11.221158
      10A     -1.369039    11A     -1.278355    12A     -1.119001
      13A     -1.031026    14A     -1.017944    15A     -0.895545
      16A     -0.869562    17A     -0.824769    18A     -0.713764
      19A     -0.700514    20A     -0.666409    21A     -0.638930
      22A     -0.613621    23A     -0.607335    24A     -0.605059
      25A     -0.560542    26A     -0.537381    27A     -0.529529
      28A     -0.525290    29A     -0.505528    30A     -0.474946
      31A     -0.421191    32A     -0.407807    33A     -0.308813

  @DF-RHF Final Energy:  -399.77086980214227

   => Energetics <=

    Nuclear Repulsion Energy =            437.3315212719984970
    One-Electron Energy =               -1409.6891582612740876
    Two-Electron Energy =                 572.5867671871332050
    Total Energy =                       -399.7708698021423288
  Basis Set: (AUG-CC-PVTZ AUX)
    Blend: AUG-CC-PVTZ-RI
    Molecular point group: c1

    Geometry (in Angstrom), charge = 0, multiplicity = 1:

       Center              X                  Y                   Z               Mass
    ------------   -----------------  -----------------  -----------------  -----------------
         O            0.718932182228     1.914059537005    -0.173650097925    15.994914619570
         N            0.357886182228    -0.358052462995    -0.286499097925    14.003074004430
         C            1.793815182228    -0.532944462995    -0.537732097925    12.000000000000
         C           -0.085344817772     0.971678537005    -0.100335097925    12.000000000000
         C           -0.461585817772    -1.447889462995    -0.185762097925    12.000000000000
         C            2.596152182228    -0.469122462995     0.753847902075    12.000000000000
         C           -1.501494817772     1.084948537005     0.164129902075    12.000000000000
         C           -1.796208817772    -1.315422462995     0.082757902075    12.000000000000
         C           -2.319399817772    -0.009292462995     0.260267902075    12.000000000000
         H            1.921330182228    -1.493357462995    -1.044633097925     1.007825032230
         H            2.095282182228     0.267750537005    -1.215138097925     1.007825032230
         H            0.016046182228    -2.411195462995    -0.341300097925     1.007825032230
         H            2.454389182228     0.505834537005     1.222314902075     1.007825032230
         H            2.278075182228    -1.252757462995     1.446913902075     1.007825032230
         H            3.661277182228    -0.603877462995     0.542995902075     1.007825032230
         H           -1.883818317772     2.113236637005     0.299489002075     1.007825032230
         H           -2.423371817772    -2.196904462995     0.150616902075     1.007825032230
         H           -3.378272817772     0.125121537005     0.470052902075     1.007825032230

  Basis Set: AUG-CC-PVTZ
    Blend: AUG-CC-PVTZ
  Basis Set: (AUG-CC-PVTZ AUX)
    Blend: AUG-CC-PVTZ-JKFIT
	 Reference Energy          =    -399.7708698021422720 [Eh]
	 Singles Energy            =      -0.0000000000000000 [Eh]
	 Same-Spin Energy          =      -0.4235015868274866 [Eh]
	 Opposite-Spin Energy      =      -1.3399861764176439 [Eh]
	 Correlation Energy        =      -1.7634877632451307 [Eh]
	 Total Energy              =    -401.5343575653873813 [Eh]

	 ================> DF-SCS-MP2 Energies <==================
	-----------------------------------------------------------
	 SCS Same-Spin Scale       =       0.3333333333333333 [-]
	 SCS Opposite-Spin Scale   =       1.2000000000000000 [-]
	 SCS Same-Spin Energy      =      -0.1411671956091622 [Eh]
	 SCS Opposite-Spin Energy  =      -1.6079834117011726 [Eh]
	 SCS Correlation Energy    =      -1.7491506073103349 [Eh]
	 SCS Total Energy          =    -401.5200204094526271 [Eh]
	-----------------------------------------------------------

  Dipole Moment: [D]
     X:    -0.7560      Y:    -3.8132      Z:     0.0318     Total:     3.8875

*** Psi4 exiting successfully. Buy a developer a beer!
