                               Psi4 1.3.2 release

  ==> Input File <==

--------------------------------------------------------------------------
#psi4
#
memory 32 gb

molecule  {
0 1
  O        0.6831730     1.9514370    -0.1851230
  N        0.3221270    -0.3206750    -0.2979720
  C        1.7580560    -0.4955670    -0.5492050
  C       -0.1211040     1.0090560    -0.1118080
  C       -0.4973450    -1.4105120    -0.1972350
  C        2.5603930    -0.4317450     0.7423750
  C       -1.6352521     1.1301643     0.1709581
  C       -1.8319680    -1.2780450     0.0712850
  C       -2.3551590     0.0280850     0.2487950
  H        1.8855710    -1.4559800    -1.0561060
  H        2.0595230     0.3051280    -1.2266110
  H       -0.0197130    -2.3738180    -0.3527730
  H        2.4186300     0.5432120     1.2108420
  H        2.2423160    -1.2153800     1.4354410
  H        3.6255180    -0.5665000     0.5315230
  H       -1.9126600     2.1320090     0.2855670
  H       -2.4591310    -2.1595270     0.1391440
  H       -3.4140320     0.1624990     0.4585800
units angstrom
no_reorient  #important for SAPT in psi4, default
symmetry c1  #important for SAPT in psi4, default
}

set PROPERTIES_ORIGIN ["COM"]
properties('MP2/aug-cc-pvtz', properties = ['dipole'])
--------------------------------------------------------------------------

    Molecular point group: c1
  Charge       = 0
  Multiplicity = 1
  Basis Set: AUG-CC-PVTZ
    Blend: AUG-CC-PVTZ
  Basis Set: (AUG-CC-PVTZ AUX)
    Blend: AUG-CC-PVTZ-JKFIT

    Orbital Energies [Eh]
    ---------------------

    Doubly Occupied:

       1A    -20.515687     2A    -15.622306     3A    -11.359153
       4A    -11.305787     5A    -11.273460     6A    -11.258840
       7A    -11.238866     8A    -11.238171     9A    -11.221047
      10A     -1.371351    11A     -1.278115    12A     -1.120744
      13A     -1.034009    14A     -1.012013    15A     -0.888470
      16A     -0.874270    17A     -0.817754    18A     -0.714912
      19A     -0.699212    20A     -0.668281    21A     -0.644475
      22A     -0.614287    23A     -0.607421    24A     -0.602562
      25A     -0.561524    26A     -0.545135    27A     -0.528026
      28A     -0.525033    29A     -0.505911    30A     -0.476512
      31A     -0.418104    32A     -0.414375    33A     -0.309160

  @DF-RHF Final Energy:  -399.76375179601433

   => Energetics <=

    Nuclear Repulsion Energy =            436.1838924381825109
    One-Electron Energy =               -1407.3653449170976728
    Two-Electron Energy =                 571.4177006829008860
    Total Energy =                       -399.7637517960142759
  Basis Set: (AUG-CC-PVTZ AUX)
    Blend: AUG-CC-PVTZ-RI
    Molecular point group: c1

    Geometry (in Angstrom), charge = 0, multiplicity = 1:

       Center              X                  Y                   Z               Mass
    ------------   -----------------  -----------------  -----------------  -----------------
         O            0.728431009207     1.913447609768    -0.175414522515    15.994914619570
         N            0.367385009207    -0.358664390232    -0.288263522515    14.003074004430
         C            1.803314009207    -0.533556390232    -0.539496522515    12.000000000000
         C           -0.075845990793     0.971066609768    -0.102099522515    12.000000000000
         C           -0.452086990793    -1.448501390232    -0.187526522515    12.000000000000
         C            2.605651009207    -0.469734390232     0.752083477485    12.000000000000
         C           -1.589994090793     1.092174909768     0.180666577485    12.000000000000
         C           -1.786709990793    -1.316034390232     0.080993477485    12.000000000000
         C           -2.309900990793    -0.009904390232     0.258503477485    12.000000000000
         H            1.930829009207    -1.493969390232    -1.046397522515     1.007825032230
         H            2.104781009207     0.267138609768    -1.216902522515     1.007825032230
         H            0.025545009207    -2.411807390232    -0.343064522515     1.007825032230
         H            2.463888009207     0.505222609768     1.220550477485     1.007825032230
         H            2.287574009207    -1.253369390232     1.445149477485     1.007825032230
         H            3.670776009207    -0.604489390232     0.541231477485     1.007825032230
         H           -1.867401990793     2.094019609768     0.295275477485     1.007825032230
         H           -2.413872990793    -2.197516390232     0.148852477485     1.007825032230
         H           -3.368773990793     0.124509609768     0.468288477485     1.007825032230

  Basis Set: AUG-CC-PVTZ
    Blend: AUG-CC-PVTZ
  Basis Set: (AUG-CC-PVTZ AUX)
    Blend: AUG-CC-PVTZ-JKFIT
	 Reference Energy          =    -399.7637517960143327 [Eh]
	 Singles Energy            =      -0.0000000000000000 [Eh]
	 Same-Spin Energy          =      -0.4217657006730725 [Eh]
	 Opposite-Spin Energy      =      -1.3387070595225523 [Eh]
	 Correlation Energy        =      -1.7604727601956247 [Eh]
	 Total Energy              =    -401.5242245562099583 [Eh]

	 ================> DF-SCS-MP2 Energies <==================
	-----------------------------------------------------------
	 SCS Same-Spin Scale       =       0.3333333333333333 [-]
	 SCS Opposite-Spin Scale   =       1.2000000000000000 [-]
	 SCS Same-Spin Energy      =      -0.1405885668910241 [Eh]
	 SCS Opposite-Spin Energy  =      -1.6064484714270628 [Eh]
	 SCS Correlation Energy    =      -1.7470370383180869 [Eh]
	 SCS Total Energy          =    -401.5107888343324021 [Eh]
	-----------------------------------------------------------

  Dipole Moment: [D]
     X:    -0.6107      Y:    -3.5871      Z:     0.0150     Total:     3.6388

*** Psi4 exiting successfully. Buy a developer a beer!
