                               Psi4 1.3.2 release

  ==> Input File <==

--------------------------------------------------------------------------
#psi4
#
memory 32 gb

molecule  {
0 1
  O        0.6831730     1.9514370    -0.1851230
  N        0.3221270    -0.3206750    -0.2979720
  C        1.7639167    -0.4447672    -0.5458446
  C       -0.1211040     1.0090560    -0.1118080
  C       -0.4973450    -1.4105120    -0.1972350
  C        2.5603930    -0.4317450     0.7423750
  C       -1.5372540     1.1223260     0.1526570
  C       -1.8319680    -1.2780450     0.0712850
  C       -2.3551590     0.0280850     0.2487950
  H        1.8855710    -1.4559800    -1.0561060
  H        2.0595230     0.3051280    -1.2266110
  H       -0.0197130    -2.3738180    -0.3527730
  H        2.4186300     0.5432120     1.2108420
  H        2.2423160    -1.2153800     1.4354410
  H        3.6255180    -0.5665000     0.5315230
  H       -1.9126600     2.1320090     0.2855670
  H       -2.4591310    -2.1595270     0.1391440
  H       -3.4140320     0.1624990     0.4585800
units angstrom
no_reorient  #important for SAPT in psi4, default
symmetry c1  #important for SAPT in psi4, default
}

set PROPERTIES_ORIGIN ["COM"]
properties('MP2/aug-cc-pvtz', properties = ['dipole'])
--------------------------------------------------------------------------

    Molecular point group: c1
  Charge       = 0
  Multiplicity = 1
  Basis Set: AUG-CC-PVTZ
    Blend: AUG-CC-PVTZ
  Basis Set: (AUG-CC-PVTZ AUX)
    Blend: AUG-CC-PVTZ-JKFIT

    Orbital Energies [Eh]
    ---------------------

    Doubly Occupied:

       1A    -20.506467     2A    -15.625476     3A    -11.349372
       4A    -11.309588     5A    -11.274923     6A    -11.270695
       7A    -11.240584     8A    -11.236922     9A    -11.221048
      10A     -1.369774    11A     -1.277935    12A     -1.119517
      13A     -1.032645    14A     -1.018291    15A     -0.896696
      16A     -0.868301    17A     -0.825680    18A     -0.714328
      19A     -0.701743    20A     -0.666506    21A     -0.642124
      22A     -0.615783    23A     -0.606493    24A     -0.602817
      25A     -0.560883    26A     -0.539506    27A     -0.529747
      28A     -0.526822    29A     -0.504228    30A     -0.473391
      31A     -0.421340    32A     -0.408499    33A     -0.309088

  @DF-RHF Final Energy:  -399.76827526666716

   => Energetics <=

    Nuclear Repulsion Energy =            437.6437196790207054
    One-Electron Energy =               -1410.2895707168195258
    Two-Electron Energy =                 572.8775757711316601
    Total Energy =                       -399.7682752666671604
  Basis Set: (AUG-CC-PVTZ AUX)
    Blend: AUG-CC-PVTZ-RI
    Molecular point group: c1

    Geometry (in Angstrom), charge = 0, multiplicity = 1:

       Center              X                  Y                   Z               Mass
    ------------   -----------------  -----------------  -----------------  -----------------
         O            0.718304076061     1.909258573901    -0.173957703545    15.994914619570
         N            0.357258076061    -0.362853426099    -0.286806703545    14.003074004430
         C            1.799047776061    -0.486945626099    -0.534679303545    12.000000000000
         C           -0.085972923939     0.966877573901    -0.100642703545    12.000000000000
         C           -0.462213923939    -1.452690426099    -0.186069703545    12.000000000000
         C            2.595524076061    -0.473923426099     0.753540296455    12.000000000000
         C           -1.502122923939     1.080147573901     0.163822296455    12.000000000000
         C           -1.796836923939    -1.320223426099     0.082450296455    12.000000000000
         C           -2.320027923939    -0.014093426099     0.259960296455    12.000000000000
         H            1.920702076061    -1.498158426099    -1.044940703545     1.007825032230
         H            2.094654076061     0.262949573901    -1.215445703545     1.007825032230
         H            0.015418076061    -2.415996426099    -0.341607703545     1.007825032230
         H            2.453761076061     0.501033573901     1.222007296455     1.007825032230
         H            2.277447076061    -1.257558426099     1.446606296455     1.007825032230
         H            3.660649076061    -0.608678426099     0.542688296455     1.007825032230
         H           -1.877528923939     2.089830573901     0.296732296455     1.007825032230
         H           -2.423999923939    -2.201705426099     0.150309296455     1.007825032230
         H           -3.378900923939     0.120320573901     0.469745296455     1.007825032230

  Basis Set: AUG-CC-PVTZ
    Blend: AUG-CC-PVTZ
  Basis Set: (AUG-CC-PVTZ AUX)
    Blend: AUG-CC-PVTZ-JKFIT
	 Reference Energy          =    -399.7682752666671604 [Eh]
	 Singles Energy            =      -0.0000000000000000 [Eh]
	 Same-Spin Energy          =      -0.4235073381806386 [Eh]
	 Opposite-Spin Energy      =      -1.3400232118508835 [Eh]
	 Correlation Energy        =      -1.7635305500315221 [Eh]
	 Total Energy              =    -401.5318058166986930 [Eh]

	 ================> DF-SCS-MP2 Energies <==================
	-----------------------------------------------------------
	 SCS Same-Spin Scale       =       0.3333333333333333 [-]
	 SCS Opposite-Spin Scale   =       1.2000000000000000 [-]
	 SCS Same-Spin Energy      =      -0.1411691127268795 [Eh]
	 SCS Opposite-Spin Energy  =      -1.6080278542210602 [Eh]
	 SCS Correlation Energy    =      -1.7491969669479397 [Eh]
	 SCS Total Energy          =    -401.5174722336150808 [Eh]
	-----------------------------------------------------------

  Dipole Moment: [D]
     X:    -0.7671      Y:    -3.7708      Z:     0.0496     Total:     3.8484

*** Psi4 exiting successfully. Buy a developer a beer!
