                               Psi4 1.3.2 release

  ==> Input File <==

--------------------------------------------------------------------------
#psi4
#
memory 32 gb

molecule  {
0 1
  O        0.6831730     1.9514370    -0.1851230
  N        0.3443113    -0.3116978    -0.1983270
  C        1.7580560    -0.4955670    -0.5492050
  C       -0.1211040     1.0090560    -0.1118080
  C       -0.4973450    -1.4105120    -0.1972350
  C        2.5603930    -0.4317450     0.7423750
  C       -1.5372540     1.1223260     0.1526570
  C       -1.8319680    -1.2780450     0.0712850
  C       -2.3551590     0.0280850     0.2487950
  H        1.8855710    -1.4559800    -1.0561060
  H        2.0595230     0.3051280    -1.2266110
  H       -0.0197130    -2.3738180    -0.3527730
  H        2.4186300     0.5432120     1.2108420
  H        2.2423160    -1.2153800     1.4354410
  H        3.6255180    -0.5665000     0.5315230
  H       -1.9126600     2.1320090     0.2855670
  H       -2.4591310    -2.1595270     0.1391440
  H       -3.4140320     0.1624990     0.4585800
units angstrom
no_reorient  #important for SAPT in psi4, default
symmetry c1  #important for SAPT in psi4, default
}

set PROPERTIES_ORIGIN ["COM"]
properties('MP2/aug-cc-pvtz', properties = ['dipole'])
--------------------------------------------------------------------------

    Molecular point group: c1
  Charge       = 0
  Multiplicity = 1
  Basis Set: AUG-CC-PVTZ
    Blend: AUG-CC-PVTZ
  Basis Set: (AUG-CC-PVTZ AUX)
    Blend: AUG-CC-PVTZ-JKFIT

    Orbital Energies [Eh]
    ---------------------

    Doubly Occupied:

       1A    -20.504816     2A    -15.624464     3A    -11.348509
       4A    -11.309688     5A    -11.273192     6A    -11.270934
       7A    -11.242037     8A    -11.238305     9A    -11.218586
      10A     -1.369163    11A     -1.274952    12A     -1.120008
      13A     -1.029869    14A     -1.018935    15A     -0.892793
      16A     -0.870422    17A     -0.823343    18A     -0.715464
      19A     -0.701103    20A     -0.671026    21A     -0.637863
      22A     -0.612584    23A     -0.607159    24A     -0.605542
      25A     -0.559685    26A     -0.538589    27A     -0.528837
      28A     -0.522405    29A     -0.505619    30A     -0.472324
      31A     -0.420691    32A     -0.407498    33A     -0.310468

  @DF-RHF Final Energy:  -399.76870299367130

   => Energetics <=

    Nuclear Repulsion Energy =            437.6676772849908161
    One-Electron Energy =               -1410.3790182821999224
    Two-Electron Energy =                 572.9426380035378088
    Total Energy =                       -399.7687029936713543
  Basis Set: (AUG-CC-PVTZ AUX)
    Blend: AUG-CC-PVTZ-RI
    Molecular point group: c1

    Geometry (in Angstrom), charge = 0, multiplicity = 1:

       Center              X                  Y                   Z               Mass
    ------------   -----------------  -----------------  -----------------  -----------------
         O            0.716351341099     1.913190445521    -0.184967933270    15.994914619570
         N            0.377489641099    -0.349944354479    -0.198171933270    14.003074004430
         C            1.791234341099    -0.533813554479    -0.549049933270    12.000000000000
         C           -0.087925658901     0.970809445521    -0.111652933270    12.000000000000
         C           -0.464166658901    -1.448758554479    -0.197079933270    12.000000000000
         C            2.593571341099    -0.469991554479     0.742530066730    12.000000000000
         C           -1.504075658901     1.084079445521     0.152812066730    12.000000000000
         C           -1.798789658901    -1.316291554479     0.071440066730    12.000000000000
         C           -2.321980658901    -0.010161554479     0.248950066730    12.000000000000
         H            1.918749341099    -1.494226554479    -1.055950933270     1.007825032230
         H            2.092701341099     0.266881445521    -1.226455933270     1.007825032230
         H            0.013465341099    -2.412064554479    -0.352617933270     1.007825032230
         H            2.451808341099     0.504965445521     1.210997066730     1.007825032230
         H            2.275494341099    -1.253626554479     1.435596066730     1.007825032230
         H            3.658696341099    -0.604746554479     0.531678066730     1.007825032230
         H           -1.879481658901     2.093762445521     0.285722066730     1.007825032230
         H           -2.425952658901    -2.197773554479     0.139299066730     1.007825032230
         H           -3.380853658901     0.124252445521     0.458735066730     1.007825032230

  Basis Set: AUG-CC-PVTZ
    Blend: AUG-CC-PVTZ
  Basis Set: (AUG-CC-PVTZ AUX)
    Blend: AUG-CC-PVTZ-JKFIT
	 Reference Energy          =    -399.7687029936712975 [Eh]
	 Singles Energy            =      -0.0000000000000000 [Eh]
	 Same-Spin Energy          =      -0.4233772922012243 [Eh]
	 Opposite-Spin Energy      =      -1.3401793974724212 [Eh]
	 Correlation Energy        =      -1.7635566896736456 [Eh]
	 Total Energy              =    -401.5322596833449325 [Eh]

	 ================> DF-SCS-MP2 Energies <==================
	-----------------------------------------------------------
	 SCS Same-Spin Scale       =       0.3333333333333333 [-]
	 SCS Opposite-Spin Scale   =       1.2000000000000000 [-]
	 SCS Same-Spin Energy      =      -0.1411257640670748 [Eh]
	 SCS Opposite-Spin Energy  =      -1.6082152769669054 [Eh]
	 SCS Correlation Energy    =      -1.7493410410339800 [Eh]
	 SCS Total Energy          =    -401.5180440347052695 [Eh]
	-----------------------------------------------------------

  Dipole Moment: [D]
     X:    -0.8583      Y:    -3.8476      Z:    -0.0322     Total:     3.9423

*** Psi4 exiting successfully. Buy a developer a beer!
