                               Psi4 1.3.2 release

  ==> Input File <==

--------------------------------------------------------------------------
#psi4
#
memory 32 gb

molecule  {
0 1
  O        0.5826773     2.0301312    -0.1609594
  N        0.3221270    -0.3206750    -0.2979720
  C        1.7580560    -0.4955670    -0.5492050
  C       -0.1211040     1.0090560    -0.1118080
  C       -0.4973450    -1.4105120    -0.1972350
  C        2.5603930    -0.4317450     0.7423750
  C       -1.5372540     1.1223260     0.1526570
  C       -1.8319680    -1.2780450     0.0712850
  C       -2.3551590     0.0280850     0.2487950
  H        1.8855710    -1.4559800    -1.0561060
  H        2.0595230     0.3051280    -1.2266110
  H       -0.0197130    -2.3738180    -0.3527730
  H        2.4186300     0.5432120     1.2108420
  H        2.2423160    -1.2153800     1.4354410
  H        3.6255180    -0.5665000     0.5315230
  H       -1.9126600     2.1320090     0.2855670
  H       -2.4591310    -2.1595270     0.1391440
  H       -3.4140320     0.1624990     0.4585800
units angstrom
no_reorient  #important for SAPT in psi4, default
symmetry c1  #important for SAPT in psi4, default
}

set PROPERTIES_ORIGIN ["COM"]
properties('MP2/aug-cc-pvtz', properties = ['dipole'])
--------------------------------------------------------------------------

    Molecular point group: c1
  Charge       = 0
  Multiplicity = 1
  Basis Set: AUG-CC-PVTZ
    Blend: AUG-CC-PVTZ
  Basis Set: (AUG-CC-PVTZ AUX)
    Blend: AUG-CC-PVTZ-JKFIT

    Orbital Energies [Eh]
    ---------------------

    Doubly Occupied:

       1A    -20.507941     2A    -15.628791     3A    -11.350023
       4A    -11.308446     5A    -11.277266     6A    -11.266383
       7A    -11.240481     8A    -11.233860     9A    -11.223949
      10A     -1.367085    11A     -1.283399    12A     -1.118095
      13A     -1.031632    14A     -1.018525    15A     -0.895807
      16A     -0.871993    17A     -0.824936    18A     -0.714432
      19A     -0.699620    20A     -0.667439    21A     -0.640446
      22A     -0.614670    23A     -0.611477    24A     -0.603553
      25A     -0.560522    26A     -0.539283    27A     -0.531222
      28A     -0.526580    29A     -0.508561    30A     -0.476132
      31A     -0.419581    32A     -0.407778    33A     -0.307532

  @DF-RHF Final Energy:  -399.76870930442050

   => Energetics <=

    Nuclear Repulsion Energy =            436.5518978687517802
    One-Electron Energy =               -1408.0863369321866685
    Two-Electron Energy =                 571.7657297590144481
    Total Energy =                       -399.7687093044204403
  Basis Set: (AUG-CC-PVTZ AUX)
    Blend: AUG-CC-PVTZ-RI
    Molecular point group: c1

    Geometry (in Angstrom), charge = 0, multiplicity = 1:

       Center              X                  Y                   Z               Mass
    ------------   -----------------  -----------------  -----------------  -----------------
         O            0.631441025478     1.982678395290    -0.152606928606    15.994914619570
         N            0.370890725478    -0.368127804710    -0.289619528606    14.003074004430
         C            1.806819725478    -0.543019804710    -0.540852528606    12.000000000000
         C           -0.072340274522     0.961603195290    -0.103455528606    12.000000000000
         C           -0.448581274522    -1.457964804710    -0.188882528606    12.000000000000
         C            2.609156725478    -0.479197804710     0.750727471394    12.000000000000
         C           -1.488490274522     1.074873195290     0.161009471394    12.000000000000
         C           -1.783204274522    -1.325497804710     0.079637471394    12.000000000000
         C           -2.306395274522    -0.019367804710     0.257147471394    12.000000000000
         H            1.934334725478    -1.503432804710    -1.047753528606     1.007825032230
         H            2.108286725478     0.257675195290    -1.218258528606     1.007825032230
         H            0.029050725478    -2.421270804710    -0.344420528606     1.007825032230
         H            2.467393725478     0.495759195290     1.219194471394     1.007825032230
         H            2.291079725478    -1.262832804710     1.443793471394     1.007825032230
         H            3.674281725478    -0.613952804710     0.539875471394     1.007825032230
         H           -1.863896274522     2.084556195290     0.293919471394     1.007825032230
         H           -2.410367274522    -2.206979804710     0.147496471394     1.007825032230
         H           -3.365268274522     0.115046195290     0.466932471394     1.007825032230

  Basis Set: AUG-CC-PVTZ
    Blend: AUG-CC-PVTZ
  Basis Set: (AUG-CC-PVTZ AUX)
    Blend: AUG-CC-PVTZ-JKFIT
	 Reference Energy          =    -399.7687093044204971 [Eh]
	 Singles Energy            =      -0.0000000000000000 [Eh]
	 Same-Spin Energy          =      -0.4231678649154398 [Eh]
	 Opposite-Spin Energy      =      -1.3399991737848298 [Eh]
	 Correlation Energy        =      -1.7631670387002696 [Eh]
	 Total Energy              =    -401.5318763431207572 [Eh]

	 ================> DF-SCS-MP2 Energies <==================
	-----------------------------------------------------------
	 SCS Same-Spin Scale       =       0.3333333333333333 [-]
	 SCS Opposite-Spin Scale   =       1.2000000000000000 [-]
	 SCS Same-Spin Energy      =      -0.1410559549718133 [Eh]
	 SCS Opposite-Spin Energy  =      -1.6079990085417957 [Eh]
	 SCS Correlation Energy    =      -1.7490549635136090 [Eh]
	 SCS Total Energy          =    -401.5177642679341261 [Eh]
	-----------------------------------------------------------

  Dipole Moment: [D]
     X:    -0.5178      Y:    -3.9486      Z:    -0.0066     Total:     3.9824

*** Psi4 exiting successfully. Buy a developer a beer!
