                               Psi4 1.3.2 release

  ==> Input File <==

--------------------------------------------------------------------------
#psi4
#
memory 32 gb

molecule  {
0 1
  O        0.6670070     1.9652945    -0.1811445
  N        0.3221270    -0.3206750    -0.2979720
  C        1.7580560    -0.4955670    -0.5492050
  C       -0.1211040     1.0090560    -0.1118080
  C       -0.4973450    -1.4105120    -0.1972350
  C        2.5603930    -0.4317450     0.7423750
  C       -1.5372540     1.1223260     0.1526570
  C       -1.8319680    -1.2780450     0.0712850
  C       -2.3551590     0.0280850     0.2487950
  H        1.8855710    -1.4559800    -1.0561060
  H        2.0595230     0.3051280    -1.2266110
  H       -0.0197130    -2.3738180    -0.3527730
  H        2.4186300     0.5432120     1.2108420
  H        2.2423160    -1.2153800     1.4354410
  H        3.6255180    -0.5665000     0.5315230
  H       -1.9126600     2.1320090     0.2855670
  H       -2.4591310    -2.1595270     0.1391440
  H       -3.4140320     0.1624990     0.4585800
units angstrom
no_reorient  #important for SAPT in psi4, default
symmetry c1  #important for SAPT in psi4, default
}

set PROPERTIES_ORIGIN ["COM"]
properties('MP2/aug-cc-pvtz', properties = ['dipole'])
--------------------------------------------------------------------------

    Molecular point group: c1
  Charge       = 0
  Multiplicity = 1
  Basis Set: AUG-CC-PVTZ
    Blend: AUG-CC-PVTZ
  Basis Set: (AUG-CC-PVTZ AUX)
    Blend: AUG-CC-PVTZ-JKFIT

    Orbital Energies [Eh]
    ---------------------

    Doubly Occupied:

       1A    -20.506541     2A    -15.626041     3A    -11.349857
       4A    -11.308799     5A    -11.274404     6A    -11.269931
       7A    -11.240209     8A    -11.236537     9A    -11.221607
      10A     -1.368594    11A     -1.279180    12A     -1.118955
      13A     -1.031408    14A     -1.018122    15A     -0.895643
      16A     -0.870650    17A     -0.824910    18A     -0.714380
      19A     -0.700313    20A     -0.667416    21A     -0.640025
      22A     -0.614007    23A     -0.607938    24A     -0.605191
      25A     -0.560481    26A     -0.538605    27A     -0.529974
      28A     -0.526085    29A     -0.506069    30A     -0.475135
      31A     -0.421009    32A     -0.407761    33A     -0.308598

  @DF-RHF Final Energy:  -399.77149216697075

   => Energetics <=

    Nuclear Repulsion Energy =            437.2694515921696734
    One-Electron Energy =               -1409.5531399925764617
    Two-Electron Energy =                 572.5121962334360433
    Total Energy =                       -399.7714921669708019
  Basis Set: (AUG-CC-PVTZ AUX)
    Blend: AUG-CC-PVTZ-RI
    Molecular point group: c1

    Geometry (in Angstrom), charge = 0, multiplicity = 1:

       Center              X                  Y                   Z               Mass
    ------------   -----------------  -----------------  -----------------  -----------------
         O            0.704810591123     1.926268369915    -0.170168618254    15.994914619570
         N            0.359930591123    -0.359701130085    -0.286996118254    14.003074004430
         C            1.795859591123    -0.534593130085    -0.538229118254    12.000000000000
         C           -0.083300408877     0.970029869915    -0.100832118254    12.000000000000
         C           -0.459541408877    -1.449538130085    -0.186259118254    12.000000000000
         C            2.598196591123    -0.470771130085     0.753350881746    12.000000000000
         C           -1.499450408877     1.083299869915     0.163632881746    12.000000000000
         C           -1.794164408877    -1.317071130085     0.082260881746    12.000000000000
         C           -2.317355408877    -0.010941130085     0.259770881746    12.000000000000
         H            1.923374591123    -1.495006130085    -1.045130118254     1.007825032230
         H            2.097326591123     0.266101869915    -1.215635118254     1.007825032230
         H            0.018090591123    -2.412844130085    -0.341797118254     1.007825032230
         H            2.456433591123     0.504185869915     1.221817881746     1.007825032230
         H            2.280119591123    -1.254406130085     1.446416881746     1.007825032230
         H            3.663321591123    -0.605526130085     0.542498881746     1.007825032230
         H           -1.874856408877     2.092982869915     0.296542881746     1.007825032230
         H           -2.421327408877    -2.198553130085     0.150119881746     1.007825032230
         H           -3.376228408877     0.123472869915     0.469555881746     1.007825032230

  Basis Set: AUG-CC-PVTZ
    Blend: AUG-CC-PVTZ
  Basis Set: (AUG-CC-PVTZ AUX)
    Blend: AUG-CC-PVTZ-JKFIT
	 Reference Energy          =    -399.7714921669707451 [Eh]
	 Singles Energy            =      -0.0000000000000000 [Eh]
	 Same-Spin Energy          =      -0.4233867407376647 [Eh]
	 Opposite-Spin Energy      =      -1.3398319517261024 [Eh]
	 Correlation Energy        =      -1.7632186924637672 [Eh]
	 Total Energy              =    -401.5347108594345400 [Eh]

	 ================> DF-SCS-MP2 Energies <==================
	-----------------------------------------------------------
	 SCS Same-Spin Scale       =       0.3333333333333333 [-]
	 SCS Opposite-Spin Scale   =       1.2000000000000000 [-]
	 SCS Same-Spin Energy      =      -0.1411289135792216 [Eh]
	 SCS Opposite-Spin Energy  =      -1.6077983420713229 [Eh]
	 SCS Correlation Energy    =      -1.7489272556505444 [Eh]
	 SCS Total Energy          =    -401.5204194226212735 [Eh]
	-----------------------------------------------------------

  Dipole Moment: [D]
     X:    -0.7198      Y:    -3.8380      Z:     0.0258     Total:     3.9050

*** Psi4 exiting successfully. Buy a developer a beer!
