                               Psi4 1.3.2 release

  ==> Input File <==

--------------------------------------------------------------------------
#psi4
#
memory 32 gb

molecule  {
0 1
  O        0.6831730     1.9514370    -0.1851230
  N        0.2460083    -0.2659639    -0.2800749
  C        1.7580560    -0.4955670    -0.5492050
  C       -0.1211040     1.0090560    -0.1118080
  C       -0.4973450    -1.4105120    -0.1972350
  C        2.5603930    -0.4317450     0.7423750
  C       -1.5372540     1.1223260     0.1526570
  C       -1.8319680    -1.2780450     0.0712850
  C       -2.3551590     0.0280850     0.2487950
  H        1.8855710    -1.4559800    -1.0561060
  H        2.0595230     0.3051280    -1.2266110
  H       -0.0197130    -2.3738180    -0.3527730
  H        2.4186300     0.5432120     1.2108420
  H        2.2423160    -1.2153800     1.4354410
  H        3.6255180    -0.5665000     0.5315230
  H       -1.9126600     2.1320090     0.2855670
  H       -2.4591310    -2.1595270     0.1391440
  H       -3.4140320     0.1624990     0.4585800
units angstrom
no_reorient  #important for SAPT in psi4, default
symmetry c1  #important for SAPT in psi4, default
}

set PROPERTIES_ORIGIN ["COM"]
properties('MP2/aug-cc-pvtz', properties = ['dipole'])
--------------------------------------------------------------------------

    Molecular point group: c1
  Charge       = 0
  Multiplicity = 1
  Basis Set: AUG-CC-PVTZ
    Blend: AUG-CC-PVTZ
  Basis Set: (AUG-CC-PVTZ AUX)
    Blend: AUG-CC-PVTZ-JKFIT

    Orbital Energies [Eh]
    ---------------------

    Doubly Occupied:

       1A    -20.496159     2A    -15.625372     3A    -11.339230
       4A    -11.307405     5A    -11.281272     6A    -11.266661
       7A    -11.242026     8A    -11.236057     9A    -11.223964
      10A     -1.370649    11A     -1.276304    12A     -1.112642
      13A     -1.033331    14A     -1.027527    15A     -0.888224
      16A     -0.880395    17A     -0.822851    18A     -0.720239
      19A     -0.696947    20A     -0.663890    21A     -0.637867
      22A     -0.613444    23A     -0.610248    24A     -0.604282
      25A     -0.559645    26A     -0.540712    27A     -0.529456
      28A     -0.513306    29A     -0.507683    30A     -0.471962
      31A     -0.415794    32A     -0.407871    33A     -0.311411

  @DF-RHF Final Energy:  -399.76272795610993

   => Energetics <=

    Nuclear Repulsion Energy =            438.1774971129453320
    One-Electron Energy =               -1411.4107963610365459
    Two-Electron Energy =                 573.4705712919812868
    Total Energy =                       -399.7627279561099840
  Basis Set: (AUG-CC-PVTZ AUX)
    Blend: AUG-CC-PVTZ-RI
    Molecular point group: c1

    Geometry (in Angstrom), charge = 0, multiplicity = 1:

       Center              X                  Y                   Z               Mass
    ------------   -----------------  -----------------  -----------------  -----------------
         O            0.727536535903     1.907986712363    -0.175666424808    15.994914619570
         N            0.290371835903    -0.309414187637    -0.270618324808    14.003074004430
         C            1.802419535903    -0.539017287637    -0.539748424808    12.000000000000
         C           -0.076740464097     0.965605712363    -0.102351424808    12.000000000000
         C           -0.452981464097    -1.453962287637    -0.187778424808    12.000000000000
         C            2.604756535903    -0.475195287637     0.751831575192    12.000000000000
         C           -1.492890464097     1.078875712363     0.162113575192    12.000000000000
         C           -1.787604464097    -1.321495287637     0.080741575192    12.000000000000
         C           -2.310795464097    -0.015365287637     0.258251575192    12.000000000000
         H            1.929934535903    -1.499430287637    -1.046649424808     1.007825032230
         H            2.103886535903     0.261677712363    -1.217154424808     1.007825032230
         H            0.024650535903    -2.417268287637    -0.343316424808     1.007825032230
         H            2.462993535903     0.499761712363     1.220298575192     1.007825032230
         H            2.286679535903    -1.258830287637     1.444897575192     1.007825032230
         H            3.669881535903    -0.609950287637     0.540979575192     1.007825032230
         H           -1.868296464097     2.088558712363     0.295023575192     1.007825032230
         H           -2.414767464097    -2.202977287637     0.148600575192     1.007825032230
         H           -3.369668464097     0.119048712363     0.468036575192     1.007825032230

  Basis Set: AUG-CC-PVTZ
    Blend: AUG-CC-PVTZ
  Basis Set: (AUG-CC-PVTZ AUX)
    Blend: AUG-CC-PVTZ-JKFIT
	 Reference Energy          =    -399.7627279561099272 [Eh]
	 Singles Energy            =      -0.0000000000000000 [Eh]
	 Same-Spin Energy          =      -0.4232902840544146 [Eh]
	 Opposite-Spin Energy      =      -1.3398588675068792 [Eh]
	 Correlation Energy        =      -1.7631491515612938 [Eh]
	 Total Energy              =    -401.5258771076712492 [Eh]

	 ================> DF-SCS-MP2 Energies <==================
	-----------------------------------------------------------
	 SCS Same-Spin Scale       =       0.3333333333333333 [-]
	 SCS Opposite-Spin Scale   =       1.2000000000000000 [-]
	 SCS Same-Spin Energy      =      -0.1410967613514715 [Eh]
	 SCS Opposite-Spin Energy  =      -1.6078306410082550 [Eh]
	 SCS Correlation Energy    =      -1.7489274023597265 [Eh]
	 SCS Total Energy          =    -401.5116553584696817 [Eh]
	-----------------------------------------------------------

  Dipole Moment: [D]
     X:    -0.7039      Y:    -4.1187      Z:     0.0199     Total:     4.1784

*** Psi4 exiting successfully. Buy a developer a beer!
