                               Psi4 1.3.2 release

  ==> Input File <==

--------------------------------------------------------------------------
#psi4
#
memory 32 gb

molecule  {
0 1
  O        0.6831730     1.9514370    -0.1851230
  N        0.3221270    -0.3206750    -0.2979720
  C        1.7580560    -0.4955670    -0.5492050
  C       -0.1211040     1.0090560    -0.1118080
  C       -0.4973450    -1.4105120    -0.1972350
  C        2.5603930    -0.4317450     0.7423750
  C       -1.5560183     1.1364741     0.1570219
  C       -1.8319680    -1.2780450     0.0712850
  C       -2.3551590     0.0280850     0.2487950
  H        1.8855710    -1.4559800    -1.0561060
  H        2.0595230     0.3051280    -1.2266110
  H       -0.0197130    -2.3738180    -0.3527730
  H        2.4186300     0.5432120     1.2108420
  H        2.2423160    -1.2153800     1.4354410
  H        3.6255180    -0.5665000     0.5315230
  H       -1.9126600     2.1320090     0.2855670
  H       -2.4591310    -2.1595270     0.1391440
  H       -3.4140320     0.1624990     0.4585800
units angstrom
no_reorient  #important for SAPT in psi4, default
symmetry c1  #important for SAPT in psi4, default
}

set PROPERTIES_ORIGIN ["COM"]
properties('MP2/aug-cc-pvtz', properties = ['dipole'])
--------------------------------------------------------------------------

    Molecular point group: c1
  Charge       = 0
  Multiplicity = 1
  Basis Set: AUG-CC-PVTZ
    Blend: AUG-CC-PVTZ
  Basis Set: (AUG-CC-PVTZ AUX)
    Blend: AUG-CC-PVTZ-JKFIT

    Orbital Energies [Eh]
    ---------------------

    Doubly Occupied:

       1A    -20.507487     2A    -15.625215     3A    -11.351736
       4A    -11.308637     5A    -11.273913     6A    -11.269597
       7A    -11.239983     8A    -11.237589     9A    -11.221163
      10A     -1.369192    11A     -1.278220    12A     -1.117961
      13A     -1.031132    14A     -1.016661    15A     -0.894019
      16A     -0.871619    17A     -0.823277    18A     -0.714782
      19A     -0.699065    20A     -0.668637    21A     -0.641343
      22A     -0.613806    23A     -0.607269    24A     -0.605019
      25A     -0.558971    26A     -0.542303    27A     -0.529529
      28A     -0.526434    29A     -0.505764    30A     -0.474982
      31A     -0.420371    32A     -0.407918    33A     -0.308279

  @DF-RHF Final Energy:  -399.77134474116122

   => Energetics <=

    Nuclear Repulsion Energy =            436.9978641449704355
    One-Electron Energy =               -1409.0146752778171049
    Two-Electron Energy =                 572.2454663916854543
    Total Energy =                       -399.7713447411612151
  Basis Set: (AUG-CC-PVTZ AUX)
    Blend: AUG-CC-PVTZ-RI
    Molecular point group: c1

    Geometry (in Angstrom), charge = 0, multiplicity = 1:

       Center              X                  Y                   Z               Mass
    ------------   -----------------  -----------------  -----------------  -----------------
         O            0.720705179566     1.912832361732    -0.174055649066    15.994914619570
         N            0.359659179566    -0.359279638268    -0.286904649066    14.003074004430
         C            1.795588179566    -0.534171638268    -0.538137649066    12.000000000000
         C           -0.083571820434     0.970451361732    -0.100740649066    12.000000000000
         C           -0.459812820434    -1.449116638268    -0.186167649066    12.000000000000
         C            2.597925179566    -0.470349638268     0.753442350934    12.000000000000
         C           -1.518486120434     1.097869461732     0.168089250934    12.000000000000
         C           -1.794435820434    -1.316649638268     0.082352350934    12.000000000000
         C           -2.317626820434    -0.010519638268     0.259862350934    12.000000000000
         H            1.923103179566    -1.494584638268    -1.045038649066     1.007825032230
         H            2.097055179566     0.266523361732    -1.215543649066     1.007825032230
         H            0.017819179566    -2.412422638268    -0.341705649066     1.007825032230
         H            2.456162179566     0.504607361732     1.221909350934     1.007825032230
         H            2.279848179566    -1.253984638268     1.446508350934     1.007825032230
         H            3.663050179566    -0.605104638268     0.542590350934     1.007825032230
         H           -1.875127820434     2.093404361732     0.296634350934     1.007825032230
         H           -2.421598820434    -2.198131638268     0.150211350934     1.007825032230
         H           -3.376499820434     0.123894361732     0.469647350934     1.007825032230

  Basis Set: AUG-CC-PVTZ
    Blend: AUG-CC-PVTZ
  Basis Set: (AUG-CC-PVTZ AUX)
    Blend: AUG-CC-PVTZ-JKFIT
	 Reference Energy          =    -399.7713447411612151 [Eh]
	 Singles Energy            =      -0.0000000000000000 [Eh]
	 Same-Spin Energy          =      -0.4230789776603922 [Eh]
	 Opposite-Spin Energy      =      -1.3395778731924688 [Eh]
	 Correlation Energy        =      -1.7626568508528608 [Eh]
	 Total Energy              =    -401.5340015920140786 [Eh]

	 ================> DF-SCS-MP2 Energies <==================
	-----------------------------------------------------------
	 SCS Same-Spin Scale       =       0.3333333333333333 [-]
	 SCS Opposite-Spin Scale   =       1.2000000000000000 [-]
	 SCS Same-Spin Energy      =      -0.1410263258867974 [Eh]
	 SCS Opposite-Spin Energy  =      -1.6074934478309626 [Eh]
	 SCS Correlation Energy    =      -1.7485197737177600 [Eh]
	 SCS Total Energy          =    -401.5198645148789751 [Eh]
	-----------------------------------------------------------

  Dipole Moment: [D]
     X:    -0.7279      Y:    -3.7710      Z:     0.0283     Total:     3.8407

*** Psi4 exiting successfully. Buy a developer a beer!
