                               Psi4 1.4a3.dev225

  ==> Input File <==

--------------------------------------------------------------------------
#psi4
#
memory 32 gb

molecule  {
0 1
  O        0.6831730     1.9514370    -0.1851230
  N        0.3221270    -0.3206750    -0.2979720
  C        1.7580560    -0.4955670    -0.5492050
  C       -0.1211040     1.0090560    -0.1118080
  C       -0.4973450    -1.4105120    -0.1972350
  C        2.5603930    -0.4317450     0.7423750
  C       -1.5372540     1.1223260     0.1526570
  C       -1.8319680    -1.2780450     0.0712850
  C       -2.3551590     0.0280850     0.2487950
  H        1.8855710    -1.4559800    -1.0561060
  H        2.0595230     0.3051280    -1.2266110
  H       -0.0197130    -2.3738180    -0.3527730
  H        2.4186300     0.5432120     1.2108420
  H        2.2423160    -1.2153800     1.4354410
  H        3.6255180    -0.5665000     0.5315230
  H       -1.9126600     2.1320090     0.2855670
  H       -2.4880605    -2.2001876     0.1422742
  H       -3.4140320     0.1624990     0.4585800
units angstrom
no_reorient  #important for SAPT in psi4, default
symmetry c1  #important for SAPT in psi4, default
}

set PROPERTIES_ORIGIN ["COM"]
properties('MP2/aug-cc-pvtz', properties = ['dipole'])
--------------------------------------------------------------------------

    Molecular point group: c1
  Charge       = 0
  Multiplicity = 1
  Basis Set: AUG-CC-PVTZ
    Blend: AUG-CC-PVTZ
  Basis Set: (AUG-CC-PVTZ AUX)
    Blend: AUG-CC-PVTZ-JKFIT

    Orbital Energies [Eh]
    ---------------------

    Doubly Occupied:

       1A    -20.506359     2A    -15.625722     3A    -11.350031
       4A    -11.309188     5A    -11.273948     6A    -11.271106
       7A    -11.245763     8A    -11.237391     9A    -11.221216
      10A     -1.369188    11A     -1.278498    12A     -1.118799
      13A     -1.031407    14A     -1.017042    15A     -0.895664
      16A     -0.869405    17A     -0.823827    18A     -0.712863
      19A     -0.698231    20A     -0.666956    21A     -0.638825
      22A     -0.614085    23A     -0.607382    24A     -0.603205
      25A     -0.558580    26A     -0.535931    27A     -0.529906
      28A     -0.525946    29A     -0.505539    30A     -0.475134
      31A     -0.421303    32A     -0.407997    33A     -0.308960

  @DF-RHF Final Energy:  -399.76904903541595

   => Energetics <=

    Nuclear Repulsion Energy =            437.1843952247972993
    One-Electron Energy =               -1409.3960896449227675
    Two-Electron Energy =                 572.4426453847095217
    Total Energy =                       -399.7690490354159465
  Basis Set: (AUG-CC-PVTZ AUX)
    Blend: AUG-CC-PVTZ-RI
    Molecular point group: c1

    Geometry (in Angstrom), charge = 0, multiplicity = 1:

       Center              X                  Y                   Z               Mass
    ------------   -----------------  -----------------  -----------------  -----------------
         O            0.719112441678     1.914544872390    -0.173655675551    15.994914619570
         N            0.358066441678    -0.357567127610    -0.286504675551    14.003074004430
         C            1.793995441678    -0.532459127610    -0.537737675551    12.000000000000
         C           -0.085164558322     0.972163872390    -0.100340675551    12.000000000000
         C           -0.461405558322    -1.447404127610    -0.185767675551    12.000000000000
         C            2.596332441678    -0.468637127610     0.753842324449    12.000000000000
         C           -1.501314558322     1.085433872390     0.164124324449    12.000000000000
         C           -1.796028558322    -1.314937127610     0.082752324449    12.000000000000
         C           -2.319219558322    -0.008807127610     0.260262324449    12.000000000000
         H            1.921510441678    -1.492872127610    -1.044638675551     1.007825032230
         H            2.095462441678     0.268235872390    -1.215143675551     1.007825032230
         H            0.016226441678    -2.410710127610    -0.341305675551     1.007825032230
         H            2.454569441678     0.506319872390     1.222309324449     1.007825032230
         H            2.278255441678    -1.252272127610     1.446908324449     1.007825032230
         H            3.661457441678    -0.603392127610     0.542990324449     1.007825032230
         H           -1.876720558322     2.095116872390     0.297034324449     1.007825032230
         H           -2.452121058322    -2.237079727610     0.153741524449     1.007825032230
         H           -3.378092558322     0.125606872390     0.470047324449     1.007825032230

  Basis Set: AUG-CC-PVTZ
    Blend: AUG-CC-PVTZ
  Basis Set: (AUG-CC-PVTZ AUX)
    Blend: AUG-CC-PVTZ-JKFIT
	 Reference Energy          =    -399.7690490354159465 [Eh]
	 Singles Energy            =      -0.0000000000000000 [Eh]
	 Same-Spin Energy          =      -0.4235423539976278 [Eh]
	 Opposite-Spin Energy      =      -1.3402350304209341 [Eh]
	 Correlation Energy        =      -1.7637773844185618 [Eh]
	 Total Energy              =    -401.5328264198345209 [Eh]

	 ================> DF-SCS-MP2 Energies <==================
	-----------------------------------------------------------
	 SCS Same-Spin Scale       =       0.3333333333333333 [-]
	 SCS Opposite-Spin Scale   =       1.2000000000000000 [-]
	 SCS Same-Spin Energy      =      -0.1411807846658759 [Eh]
	 SCS Opposite-Spin Energy  =      -1.6082820365051209 [Eh]
	 SCS Correlation Energy    =      -1.7494628211709968 [Eh]
	 SCS Total Energy          =    -401.5185118565869402 [Eh]
	-----------------------------------------------------------

  Dipole Moment: [D]
     X:    -0.7543      Y:    -3.8026      Z:     0.0324     Total:     3.8768

*** Psi4 exiting successfully. Buy a developer a beer!
