                               Psi4 1.3.2 release

  ==> Input File <==

--------------------------------------------------------------------------
#psi4
#
memory 32 gb

molecule  {
0 1
  O        0.6831730     1.9514370    -0.1851230
  N        0.3221270    -0.3206750    -0.2979720
  C        1.7580560    -0.4955670    -0.5492050
  C       -0.1211040     1.0090560    -0.1118080
  C       -0.5000969    -1.4342070    -0.1981626
  C        2.5603930    -0.4317450     0.7423750
  C       -1.5372540     1.1223260     0.1526570
  C       -1.8319680    -1.2780450     0.0712850
  C       -2.3551590     0.0280850     0.2487950
  H        1.8855710    -1.4559800    -1.0561060
  H        2.0595230     0.3051280    -1.2266110
  H       -0.0197130    -2.3738180    -0.3527730
  H        2.4186300     0.5432120     1.2108420
  H        2.2423160    -1.2153800     1.4354410
  H        3.6255180    -0.5665000     0.5315230
  H       -1.9126600     2.1320090     0.2855670
  H       -2.4591310    -2.1595270     0.1391440
  H       -3.4140320     0.1624990     0.4585800
units angstrom
no_reorient  #important for SAPT in psi4, default
symmetry c1  #important for SAPT in psi4, default
}

set PROPERTIES_ORIGIN ["COM"]
properties('MP2/aug-cc-pvtz', properties = ['dipole'])
--------------------------------------------------------------------------

    Molecular point group: c1
  Charge       = 0
  Multiplicity = 1
  Basis Set: AUG-CC-PVTZ
    Blend: AUG-CC-PVTZ
  Basis Set: (AUG-CC-PVTZ AUX)
    Blend: AUG-CC-PVTZ-JKFIT

    Orbital Energies [Eh]
    ---------------------

    Doubly Occupied:

       1A    -20.506191     2A    -15.623768     3A    -11.349863
       4A    -11.308515     5A    -11.272330     6A    -11.271241
       7A    -11.241957     8A    -11.238714     9A    -11.220145
      10A     -1.367570    11A     -1.272795    12A     -1.118845
      13A     -1.030990    14A     -1.017615    15A     -0.895316
      16A     -0.869880    17A     -0.822707    18A     -0.714873
      19A     -0.699558    20A     -0.670542    21A     -0.638421
      22A     -0.613031    23A     -0.607476    24A     -0.605315
      25A     -0.559352    26A     -0.539380    27A     -0.529290
      28A     -0.525028    29A     -0.504248    30A     -0.473794
      31A     -0.421332    32A     -0.406310    33A     -0.310310

  @DF-RHF Final Energy:  -399.77024925255012

   => Energetics <=

    Nuclear Repulsion Energy =            436.9722466727350252
    One-Electron Energy =               -1408.9915897573871462
    Two-Electron Energy =                 572.2490938321019485
    Total Energy =                       -399.7702492525501157
  Basis Set: (AUG-CC-PVTZ AUX)
    Blend: AUG-CC-PVTZ-RI
    Molecular point group: c1

    Geometry (in Angstrom), charge = 0, multiplicity = 1:

       Center              X                  Y                   Z               Mass
    ------------   -----------------  -----------------  -----------------  -----------------
         O            0.719143862622     1.916522319094    -0.173539594638    15.994914619570
         N            0.358097862622    -0.355589680906    -0.286388594638    14.003074004430
         C            1.794026862622    -0.530481680906    -0.537621594638    12.000000000000
         C           -0.085133137378     0.974141319094    -0.100224594638    12.000000000000
         C           -0.464126037378    -1.469121680906    -0.186579194638    12.000000000000
         C            2.596363862622    -0.466659680906     0.753958405362    12.000000000000
         C           -1.501283137378     1.087411319094     0.164240405362    12.000000000000
         C           -1.795997137378    -1.312959680906     0.082868405362    12.000000000000
         C           -2.319188137378    -0.006829680906     0.260378405362    12.000000000000
         H            1.921541862622    -1.490894680906    -1.044522594638     1.007825032230
         H            2.095493862622     0.270213319094    -1.215027594638     1.007825032230
         H            0.016257862622    -2.408732680906    -0.341189594638     1.007825032230
         H            2.454600862622     0.508297319094     1.222425405362     1.007825032230
         H            2.278286862622    -1.250294680906     1.447024405362     1.007825032230
         H            3.661488862622    -0.601414680906     0.543106405362     1.007825032230
         H           -1.876689137378     2.097094319094     0.297150405362     1.007825032230
         H           -2.423160137378    -2.194441680906     0.150727405362     1.007825032230
         H           -3.378061137378     0.127584319094     0.470163405362     1.007825032230

  Basis Set: AUG-CC-PVTZ
    Blend: AUG-CC-PVTZ
  Basis Set: (AUG-CC-PVTZ AUX)
    Blend: AUG-CC-PVTZ-JKFIT
	 Reference Energy          =    -399.7702492525501157 [Eh]
	 Singles Energy            =      -0.0000000000000000 [Eh]
	 Same-Spin Energy          =      -0.4233905491604048 [Eh]
	 Opposite-Spin Energy      =      -1.3402070223883955 [Eh]
	 Correlation Energy        =      -1.7635975715488004 [Eh]
	 Total Energy              =    -401.5338468240989300 [Eh]

	 ================> DF-SCS-MP2 Energies <==================
	-----------------------------------------------------------
	 SCS Same-Spin Scale       =       0.3333333333333333 [-]
	 SCS Opposite-Spin Scale   =       1.2000000000000000 [-]
	 SCS Same-Spin Energy      =      -0.1411301830534682 [Eh]
	 SCS Opposite-Spin Energy  =      -1.6082484268660746 [Eh]
	 SCS Correlation Energy    =      -1.7493786099195430 [Eh]
	 SCS Total Energy          =    -401.5196278624696333 [Eh]
	-----------------------------------------------------------

  Dipole Moment: [D]
     X:    -0.8256      Y:    -3.8235      Z:     0.0389     Total:     3.9118

*** Psi4 exiting successfully. Buy a developer a beer!
