                               Psi4 1.3.2 release

  ==> Input File <==

--------------------------------------------------------------------------
#psi4
#
memory 32 gb

molecule  {
0 1
  O        0.6831730     1.9514370    -0.1851230
  N        0.3221270    -0.3206750    -0.2979720
  C        1.7580560    -0.4955670    -0.5492050
  C       -0.1211040     1.0090560    -0.1118080
  C       -0.4973450    -1.4105120    -0.1972350
  C        2.5603930    -0.4317450     0.7423750
  C       -1.5372540     1.1223260     0.1526570
  C       -1.8319680    -1.2780450     0.0712850
  C       -2.3551590     0.0280850     0.2487950
  H        1.8855710    -1.4559800    -1.0561060
  H        2.0595230     0.3051280    -1.2266110
  H       -0.0197130    -2.3738180    -0.3527730
  H        2.4186300     0.5432120     1.2108420
  H        2.2423160    -1.2153800     1.4354410
  H        3.6255180    -0.5665000     0.5315230
  H       -1.9818349     2.3180601     0.3100579
  H       -2.4591310    -2.1595270     0.1391440
  H       -3.4140320     0.1624990     0.4585800
units angstrom
no_reorient  #important for SAPT in psi4, default
symmetry c1  #important for SAPT in psi4, default
}

set PROPERTIES_ORIGIN ["COM"]
properties('MP2/aug-cc-pvtz', properties = ['dipole'])
--------------------------------------------------------------------------

    Molecular point group: c1
  Charge       = 0
  Multiplicity = 1
  Basis Set: AUG-CC-PVTZ
    Blend: AUG-CC-PVTZ
  Basis Set: (AUG-CC-PVTZ AUX)
    Blend: AUG-CC-PVTZ-JKFIT

    Orbital Energies [Eh]
    ---------------------

    Doubly Occupied:

       1A    -20.506370     2A    -15.626923     3A    -11.351832
       4A    -11.309567     5A    -11.274541     6A    -11.272141
       7A    -11.257335     8A    -11.241433     9A    -11.221538
      10A     -1.369429    11A     -1.279144    12A     -1.118958
      13A     -1.029505    14A     -1.017951    15A     -0.895690
      16A     -0.864802    17A     -0.824469    18A     -0.710999
      19A     -0.701303    20A     -0.661777    21A     -0.631730
      22A     -0.612098    23A     -0.607460    24A     -0.600377
      25A     -0.561413    26A     -0.533586    27A     -0.528684
      28A     -0.511574    29A     -0.501887    30A     -0.475376
      31A     -0.421722    32A     -0.408863    33A     -0.309547

  @DF-RHF Final Energy:  -399.74899274070310

   => Energetics <=

    Nuclear Repulsion Energy =            436.4930058786912923
    One-Electron Energy =               -1408.0039507669580416
    Two-Electron Energy =                 571.7619521475636475
    Total Energy =                       -399.7489927407031018
  Basis Set: (AUG-CC-PVTZ AUX)
    Blend: AUG-CC-PVTZ-RI
    Molecular point group: c1

    Geometry (in Angstrom), charge = 0, multiplicity = 1:

       Center              X                  Y                   Z               Mass
    ------------   -----------------  -----------------  -----------------  -----------------
         O            0.719442017076     1.912688297505    -0.173830601412    15.994914619570
         N            0.358396017076    -0.359423702495    -0.286679601412    14.003074004430
         C            1.794325017076    -0.534315702495    -0.537912601412    12.000000000000
         C           -0.084834982924     0.970307297505    -0.100515601412    12.000000000000
         C           -0.461075982924    -1.449260702495    -0.185942601412    12.000000000000
         C            2.596662017076    -0.470493702495     0.753667398588    12.000000000000
         C           -1.500984982924     1.083577297505     0.163949398588    12.000000000000
         C           -1.795698982924    -1.316793702495     0.082577398588    12.000000000000
         C           -2.318889982924    -0.010663702495     0.260087398588    12.000000000000
         H            1.921840017076    -1.494728702495    -1.044813601412     1.007825032230
         H            2.095792017076     0.266379297505    -1.215318601412     1.007825032230
         H            0.016556017076    -2.412566702495    -0.341480601412     1.007825032230
         H            2.454899017076     0.504463297505     1.222134398588     1.007825032230
         H            2.278585017076    -1.254128702495     1.446733398588     1.007825032230
         H            3.661787017076    -0.605248702495     0.542815398588     1.007825032230
         H           -1.945565882924     2.279311397505     0.321350298588     1.007825032230
         H           -2.422861982924    -2.198275702495     0.150436398588     1.007825032230
         H           -3.377762982924     0.123750297505     0.469872398588     1.007825032230

  Basis Set: AUG-CC-PVTZ
    Blend: AUG-CC-PVTZ
  Basis Set: (AUG-CC-PVTZ AUX)
    Blend: AUG-CC-PVTZ-JKFIT
	 Reference Energy          =    -399.7489927407031018 [Eh]
	 Singles Energy            =      -0.0000000000000000 [Eh]
	 Same-Spin Energy          =      -0.4240094618557951 [Eh]
	 Opposite-Spin Energy      =      -1.3419410928789017 [Eh]
	 Correlation Energy        =      -1.7659505547346970 [Eh]
	 Total Energy              =    -401.5149432954377744 [Eh]

	 ================> DF-SCS-MP2 Energies <==================
	-----------------------------------------------------------
	 SCS Same-Spin Scale       =       0.3333333333333333 [-]
	 SCS Opposite-Spin Scale   =       1.2000000000000000 [-]
	 SCS Same-Spin Energy      =      -0.1413364872852650 [Eh]
	 SCS Opposite-Spin Energy  =      -1.6103293114546819 [Eh]
	 SCS Correlation Energy    =      -1.7516657987399471 [Eh]
	 SCS Total Energy          =    -401.5006585394430658 [Eh]
	-----------------------------------------------------------

  Dipole Moment: [D]
     X:    -0.7247      Y:    -3.8344      Z:     0.0271     Total:     3.9024

*** Psi4 exiting successfully. Buy a developer a beer!
