                               Psi4 1.3.2 release

  ==> Input File <==

--------------------------------------------------------------------------
#psi4
#
memory 32 gb

molecule  {
0 1
  O        0.6831730     1.9514370    -0.1851230
  N        0.2845440    -0.2926385    -0.2890794
  C        1.7580560    -0.4955670    -0.5492050
  C       -0.1211040     1.0090560    -0.1118080
  C       -0.4973450    -1.4105120    -0.1972350
  C        2.5603930    -0.4317450     0.7423750
  C       -1.5372540     1.1223260     0.1526570
  C       -1.8319680    -1.2780450     0.0712850
  C       -2.3551590     0.0280850     0.2487950
  H        1.8855710    -1.4559800    -1.0561060
  H        2.0595230     0.3051280    -1.2266110
  H       -0.0197130    -2.3738180    -0.3527730
  H        2.4186300     0.5432120     1.2108420
  H        2.2423160    -1.2153800     1.4354410
  H        3.6255180    -0.5665000     0.5315230
  H       -1.9126600     2.1320090     0.2855670
  H       -2.4591310    -2.1595270     0.1391440
  H       -3.4140320     0.1624990     0.4585800
units angstrom
no_reorient  #important for SAPT in psi4, default
symmetry c1  #important for SAPT in psi4, default
}

set PROPERTIES_ORIGIN ["COM"]
properties('MP2/aug-cc-pvtz', properties = ['dipole'])
--------------------------------------------------------------------------

    Molecular point group: c1
  Charge       = 0
  Multiplicity = 1
  Basis Set: AUG-CC-PVTZ
    Blend: AUG-CC-PVTZ
  Basis Set: (AUG-CC-PVTZ AUX)
    Blend: AUG-CC-PVTZ-JKFIT

    Orbital Energies [Eh]
    ---------------------

    Doubly Occupied:

       1A    -20.501161     2A    -15.625588     3A    -11.344623
       4A    -11.308000     5A    -11.277545     6A    -11.268666
       7A    -11.241013     8A    -11.236527     9A    -11.222539
      10A     -1.369500    11A     -1.276883    12A     -1.115801
      13A     -1.030863    14A     -1.023824    15A     -0.891770
      16A     -0.875756    17A     -0.823669    18A     -0.716946
      19A     -0.698791    20A     -0.665340    21A     -0.638646
      22A     -0.613008    23A     -0.609722    24A     -0.604897
      25A     -0.559697    26A     -0.539710    27A     -0.529073
      28A     -0.520403    29A     -0.507174    30A     -0.473481
      31A     -0.418715    32A     -0.408020    33A     -0.310048

  @DF-RHF Final Energy:  -399.76982938816980

   => Energetics <=

    Nuclear Repulsion Energy =            437.7929826483199918
    One-Electron Energy =               -1410.6308196649633828
    Two-Electron Energy =                 573.0680076284735378
    Total Energy =                       -399.7698293881697964
  Basis Set: (AUG-CC-PVTZ AUX)
    Blend: AUG-CC-PVTZ-RI
    Molecular point group: c1

    Geometry (in Angstrom), charge = 0, multiplicity = 1:

       Center              X                  Y                   Z               Mass
    ------------   -----------------  -----------------  -----------------  -----------------
         O            0.723151834404     1.911021824184    -0.174641867200    15.994914619570
         N            0.324522834404    -0.333053675816    -0.278598267200    14.003074004430
         C            1.798034834404    -0.535982175816    -0.538723867200    12.000000000000
         C           -0.081125165596     0.968640824184    -0.101326867200    12.000000000000
         C           -0.457366165596    -1.450927175816    -0.186753867200    12.000000000000
         C            2.600371834404    -0.472160175816     0.752856132800    12.000000000000
         C           -1.497275165596     1.081910824184     0.163138132800    12.000000000000
         C           -1.791989165596    -1.318460175816     0.081766132800    12.000000000000
         C           -2.315180165596    -0.012330175816     0.259276132800    12.000000000000
         H            1.925549834404    -1.496395175816    -1.045624867200     1.007825032230
         H            2.099501834404     0.264712824184    -1.216129867200     1.007825032230
         H            0.020265834404    -2.414233175816    -0.342291867200     1.007825032230
         H            2.458608834404     0.502796824184     1.221323132800     1.007825032230
         H            2.282294834404    -1.255795175816     1.445922132800     1.007825032230
         H            3.665496834404    -0.606915175816     0.542004132800     1.007825032230
         H           -1.872681165596     2.091593824184     0.296048132800     1.007825032230
         H           -2.419152165596    -2.199942175816     0.149625132800     1.007825032230
         H           -3.374053165596     0.122083824184     0.469061132800     1.007825032230

  Basis Set: AUG-CC-PVTZ
    Blend: AUG-CC-PVTZ
  Basis Set: (AUG-CC-PVTZ AUX)
    Blend: AUG-CC-PVTZ-JKFIT
	 Reference Energy          =    -399.7698293881697964 [Eh]
	 Singles Energy            =      -0.0000000000000000 [Eh]
	 Same-Spin Energy          =      -0.4232566667881704 [Eh]
	 Opposite-Spin Energy      =      -1.3396182943186323 [Eh]
	 Correlation Energy        =      -1.7628749611068026 [Eh]
	 Total Energy              =    -401.5327043492765711 [Eh]

	 ================> DF-SCS-MP2 Energies <==================
	-----------------------------------------------------------
	 SCS Same-Spin Scale       =       0.3333333333333333 [-]
	 SCS Opposite-Spin Scale   =       1.2000000000000000 [-]
	 SCS Same-Spin Energy      =      -0.1410855555960568 [Eh]
	 SCS Opposite-Spin Energy  =      -1.6075419531823587 [Eh]
	 SCS Correlation Energy    =      -1.7486275087784156 [Eh]
	 SCS Total Energy          =    -401.5184568969482370 [Eh]
	-----------------------------------------------------------

  Dipole Moment: [D]
     X:    -0.7317      Y:    -3.9674      Z:     0.0256     Total:     4.0344

*** Psi4 exiting successfully. Buy a developer a beer!
