                               Psi4 1.3.2 release

  ==> Input File <==

--------------------------------------------------------------------------
#psi4
#
memory 32 gb

molecule  {
0 1
  O        0.6831730     1.9514370    -0.1851230
  N        0.3221270    -0.3206750    -0.2979720
  C        1.7546755    -0.5209654    -0.5495386
  C       -0.1211040     1.0090560    -0.1118080
  C       -0.4973450    -1.4105120    -0.1972350
  C        2.5603930    -0.4317450     0.7423750
  C       -1.5372540     1.1223260     0.1526570
  C       -1.8319680    -1.2780450     0.0712850
  C       -2.3551590     0.0280850     0.2487950
  H        1.8855710    -1.4559800    -1.0561060
  H        2.0595230     0.3051280    -1.2266110
  H       -0.0197130    -2.3738180    -0.3527730
  H        2.4186300     0.5432120     1.2108420
  H        2.2423160    -1.2153800     1.4354410
  H        3.6255180    -0.5665000     0.5315230
  H       -1.9126600     2.1320090     0.2855670
  H       -2.4591310    -2.1595270     0.1391440
  H       -3.4140320     0.1624990     0.4585800
units angstrom
no_reorient  #important for SAPT in psi4, default
symmetry c1  #important for SAPT in psi4, default
}

set PROPERTIES_ORIGIN ["COM"]
properties('MP2/aug-cc-pvtz', properties = ['dipole'])
--------------------------------------------------------------------------

    Molecular point group: c1
  Charge       = 0
  Multiplicity = 1
  Basis Set: AUG-CC-PVTZ
    Blend: AUG-CC-PVTZ
  Basis Set: (AUG-CC-PVTZ AUX)
    Blend: AUG-CC-PVTZ-JKFIT

    Orbital Energies [Eh]
    ---------------------

    Doubly Occupied:

       1A    -20.506174     2A    -15.625600     3A    -11.350165
       4A    -11.308484     5A    -11.273544     6A    -11.270582
       7A    -11.239946     8A    -11.237174     9A    -11.221318
      10A     -1.368742    11A     -1.278556    12A     -1.118961
      13A     -1.030823    14A     -1.017973    15A     -0.895268
      16A     -0.871435    17A     -0.824696    18A     -0.714934
      19A     -0.699675    20A     -0.668432    21A     -0.638990
      22A     -0.613540    23A     -0.608378    24A     -0.605028
      25A     -0.560353    26A     -0.538219    27A     -0.531383
      28A     -0.526749    29A     -0.502510    30A     -0.475372
      31A     -0.421110    32A     -0.407223    33A     -0.308656

  @DF-RHF Final Energy:  -399.77071156906442

   => Energetics <=

    Nuclear Repulsion Energy =            437.3424643182338514
    One-Electron Energy =               -1409.7063623084475239
    Two-Electron Energy =                 572.5931864211491984
    Total Energy =                       -399.7707115690644741
  Basis Set: (AUG-CC-PVTZ AUX)
    Blend: AUG-CC-PVTZ-RI
    Molecular point group: c1

    Geometry (in Angstrom), charge = 0, multiplicity = 1:

       Center              X                  Y                   Z               Mass
    ------------   -----------------  -----------------  -----------------  -----------------
         O            0.719205155359     1.916688412077    -0.173597513642    15.994914619570
         N            0.358159155359    -0.355423587923    -0.286446513642    14.003074004430
         C            1.790707655359    -0.555713987923    -0.538013113642    12.000000000000
         C           -0.085071844641     0.974307412077    -0.100282513642    12.000000000000
         C           -0.461312844641    -1.445260587923    -0.185709513642    12.000000000000
         C            2.596425155359    -0.466493587923     0.753900486358    12.000000000000
         C           -1.501221844641     1.087577412077     0.164182486358    12.000000000000
         C           -1.795935844641    -1.312793587923     0.082810486358    12.000000000000
         C           -2.319126844641    -0.006663587923     0.260320486358    12.000000000000
         H            1.921603155359    -1.490728587923    -1.044580513642     1.007825032230
         H            2.095555155359     0.270379412077    -1.215085513642     1.007825032230
         H            0.016319155359    -2.408566587923    -0.341247513642     1.007825032230
         H            2.454662155359     0.508463412077     1.222367486358     1.007825032230
         H            2.278348155359    -1.250128587923     1.446966486358     1.007825032230
         H            3.661550155359    -0.601248587923     0.543048486358     1.007825032230
         H           -1.876627844641     2.097260412077     0.297092486358     1.007825032230
         H           -2.423098844641    -2.194275587923     0.150669486358     1.007825032230
         H           -3.377999844641     0.127750412077     0.470105486358     1.007825032230

  Basis Set: AUG-CC-PVTZ
    Blend: AUG-CC-PVTZ
  Basis Set: (AUG-CC-PVTZ AUX)
    Blend: AUG-CC-PVTZ-JKFIT
	 Reference Energy          =    -399.7707115690644173 [Eh]
	 Singles Energy            =      -0.0000000000000000 [Eh]
	 Same-Spin Energy          =      -0.4234867766674884 [Eh]
	 Opposite-Spin Energy      =      -1.3399023553156679 [Eh]
	 Correlation Energy        =      -1.7633891319831563 [Eh]
	 Total Energy              =    -401.5341007010475778 [Eh]

	 ================> DF-SCS-MP2 Energies <==================
	-----------------------------------------------------------
	 SCS Same-Spin Scale       =       0.3333333333333333 [-]
	 SCS Opposite-Spin Scale   =       1.2000000000000000 [-]
	 SCS Same-Spin Energy      =      -0.1411622588891628 [Eh]
	 SCS Opposite-Spin Energy  =      -1.6078828263788014 [Eh]
	 SCS Correlation Energy    =      -1.7490450852679642 [Eh]
	 SCS Total Energy          =    -401.5197566543323546 [Eh]
	-----------------------------------------------------------

  Dipole Moment: [D]
     X:    -0.7576      Y:    -3.8305      Z:     0.0284     Total:     3.9048

*** Psi4 exiting successfully. Buy a developer a beer!
