                               Psi4 1.3.2 release

  ==> Input File <==

--------------------------------------------------------------------------
#psi4
#
memory 32 gb

molecule  {
0 1
  O        0.6831730     1.9514370    -0.1851230
  N        0.3221270    -0.3206750    -0.2979720
  C        1.7580560    -0.4955670    -0.5492050
  C       -0.1211040     1.0090560    -0.1118080
  C       -0.4973450    -1.4105120    -0.1972350
  C        2.5603930    -0.4317450     0.7423750
  C       -1.5372540     1.1223260     0.1526570
  C       -1.8093087    -1.1367596     0.0760413
  C       -2.3551590     0.0280850     0.2487950
  H        1.8855710    -1.4559800    -1.0561060
  H        2.0595230     0.3051280    -1.2266110
  H       -0.0197130    -2.3738180    -0.3527730
  H        2.4186300     0.5432120     1.2108420
  H        2.2423160    -1.2153800     1.4354410
  H        3.6255180    -0.5665000     0.5315230
  H       -1.9126600     2.1320090     0.2855670
  H       -2.4591310    -2.1595270     0.1391440
  H       -3.4140320     0.1624990     0.4585800
units angstrom
no_reorient  #important for SAPT in psi4, default
symmetry c1  #important for SAPT in psi4, default
}

set PROPERTIES_ORIGIN ["COM"]
properties('MP2/aug-cc-pvtz', properties = ['dipole'])
--------------------------------------------------------------------------

    Molecular point group: c1
  Charge       = 0
  Multiplicity = 1
  Basis Set: AUG-CC-PVTZ
    Blend: AUG-CC-PVTZ
  Basis Set: (AUG-CC-PVTZ AUX)
    Blend: AUG-CC-PVTZ-JKFIT

    Orbital Energies [Eh]
    ---------------------

    Doubly Occupied:

       1A    -20.499723     2A    -15.629622     3A    -11.346133
       4A    -11.313590     5A    -11.274618     6A    -11.258062
       7A    -11.241375     8A    -11.234600     9A    -11.222247
      10A     -1.366946    11A     -1.281332    12A     -1.139579
      13A     -1.034633    14A     -1.015971    15A     -0.905533
      16A     -0.872781    17A     -0.819966    18A     -0.719999
      19A     -0.701566    20A     -0.668102    21A     -0.643829
      22A     -0.622784    23A     -0.610764    24A     -0.594835
      25A     -0.558821    26A     -0.536958    27A     -0.528389
      28A     -0.514248    29A     -0.500056    30A     -0.479932
      31A     -0.420023    32A     -0.415466    33A     -0.301045

  @DF-RHF Final Energy:  -399.74010924528352

   => Energetics <=

    Nuclear Repulsion Energy =            439.8518001739259944
    One-Electron Energy =               -1414.6367595447318308
    Two-Electron Energy =                 575.0448501255223164
    Total Energy =                       -399.7401092452835201
  Basis Set: (AUG-CC-PVTZ AUX)
    Blend: AUG-CC-PVTZ-RI
    Molecular point group: c1

    Geometry (in Angstrom), charge = 0, multiplicity = 1:

       Center              X                  Y                   Z               Mass
    ------------   -----------------  -----------------  -----------------  -----------------
         O            0.716666099317     1.900435617909    -0.174093813205    15.994914619570
         N            0.355620099317    -0.371676382091    -0.286942813205    14.003074004430
         C            1.791549099317    -0.546568382091    -0.538175813205    12.000000000000
         C           -0.087610900683     0.958054617909    -0.100778813205    12.000000000000
         C           -0.463851900683    -1.461513382091    -0.186205813205    12.000000000000
         C            2.593886099317    -0.482746382091     0.753404186795    12.000000000000
         C           -1.503760900683     1.071324617909     0.163686186795    12.000000000000
         C           -1.775815600683    -1.187760982091     0.087070486795    12.000000000000
         C           -2.321665900683    -0.022916382091     0.259824186795    12.000000000000
         H            1.919064099317    -1.506981382091    -1.045076813205     1.007825032230
         H            2.093016099317     0.254126617909    -1.215581813205     1.007825032230
         H            0.013780099317    -2.424819382091    -0.341743813205     1.007825032230
         H            2.452123099317     0.492210617909     1.221871186795     1.007825032230
         H            2.275809099317    -1.266381382091     1.446470186795     1.007825032230
         H            3.659011099317    -0.617501382091     0.542552186795     1.007825032230
         H           -1.879166900683     2.081007617909     0.296596186795     1.007825032230
         H           -2.425637900683    -2.210528382091     0.150173186795     1.007825032230
         H           -3.380538900683     0.111497617909     0.469609186795     1.007825032230

  Basis Set: AUG-CC-PVTZ
    Blend: AUG-CC-PVTZ
  Basis Set: (AUG-CC-PVTZ AUX)
    Blend: AUG-CC-PVTZ-JKFIT
	 Reference Energy          =    -399.7401092452835201 [Eh]
	 Singles Energy            =      -0.0000000000000000 [Eh]
	 Same-Spin Energy          =      -0.4267486123985640 [Eh]
	 Opposite-Spin Energy      =      -1.3433406659136002 [Eh]
	 Correlation Energy        =      -1.7700892783121642 [Eh]
	 Total Energy              =    -401.5101985235957045 [Eh]

	 ================> DF-SCS-MP2 Energies <==================
	-----------------------------------------------------------
	 SCS Same-Spin Scale       =       0.3333333333333333 [-]
	 SCS Opposite-Spin Scale   =       1.2000000000000000 [-]
	 SCS Same-Spin Energy      =      -0.1422495374661880 [Eh]
	 SCS Opposite-Spin Energy  =      -1.6120087990963203 [Eh]
	 SCS Correlation Energy    =      -1.7542583365625084 [Eh]
	 SCS Total Energy          =    -401.4943675818460065 [Eh]
	-----------------------------------------------------------

  Dipole Moment: [D]
     X:    -0.7332      Y:    -3.9140      Z:     0.0257     Total:     3.9821

*** Psi4 exiting successfully. Buy a developer a beer!
