                               Psi4 1.4a3.dev225

  ==> Input File <==

--------------------------------------------------------------------------
#psi4
#
memory 32 gb

molecule  {
0 1
  O        0.6831730     1.9514370    -0.1851230
  N        0.3221270    -0.3206750    -0.2979720
  C        1.7580560    -0.4955670    -0.5492050
  C       -0.1211040     1.0090560    -0.1118080
  C       -0.4973450    -1.4105120    -0.1972350
  C        2.5603930    -0.4317450     0.7423750
  C       -1.5372540     1.1223260     0.1526570
  C       -1.8124531    -1.2799819     0.0673587
  C       -2.3551590     0.0280850     0.2487950
  H        1.8855710    -1.4559800    -1.0561060
  H        2.0595230     0.3051280    -1.2266110
  H       -0.0197130    -2.3738180    -0.3527730
  H        2.4186300     0.5432120     1.2108420
  H        2.2423160    -1.2153800     1.4354410
  H        3.6255180    -0.5665000     0.5315230
  H       -1.9126600     2.1320090     0.2855670
  H       -2.4591310    -2.1595270     0.1391440
  H       -3.4140320     0.1624990     0.4585800
units angstrom
no_reorient  #important for SAPT in psi4, default
symmetry c1  #important for SAPT in psi4, default
}

set PROPERTIES_ORIGIN ["COM"]
properties('MP2/aug-cc-pvtz', properties = ['dipole'])
--------------------------------------------------------------------------

    Molecular point group: c1
  Charge       = 0
  Multiplicity = 1
  Basis Set: AUG-CC-PVTZ
    Blend: AUG-CC-PVTZ
  Basis Set: (AUG-CC-PVTZ AUX)
    Blend: AUG-CC-PVTZ-JKFIT

    Orbital Energies [Eh]
    ---------------------

    Doubly Occupied:

       1A    -20.506860     2A    -15.623273     3A    -11.350205
       4A    -11.304742     5A    -11.273010     6A    -11.271716
       7A    -11.239403     8A    -11.238143     9A    -11.220575
      10A     -1.369114    11A     -1.278014    12A     -1.119208
      13A     -1.032754    14A     -1.018068    15A     -0.895080
      16A     -0.868914    17A     -0.825361    18A     -0.714025
      19A     -0.700553    20A     -0.667006    21A     -0.638975
      22A     -0.614423    23A     -0.607219    24A     -0.605012
      25A     -0.561280    26A     -0.535319    27A     -0.529880
      28A     -0.525809    29A     -0.505090    30A     -0.475924
      31A     -0.421551    32A     -0.406699    33A     -0.311310

  @DF-RHF Final Energy:  -399.77175122336331

   => Energetics <=

    Nuclear Repulsion Energy =            437.6921373156346249
    One-Electron Energy =               -1410.4187417676805580
    Two-Electron Energy =                 572.9548532286825093
    Total Energy =                       -399.7717512233633670
  Basis Set: (AUG-CC-PVTZ AUX)
    Blend: AUG-CC-PVTZ-RI
    Molecular point group: c1

    Geometry (in Angstrom), charge = 0, multiplicity = 1:

       Center              X                  Y                   Z               Mass
    ------------   -----------------  -----------------  -----------------  -----------------
         O            0.716972699514     1.914400757666    -0.173247201173    15.994914619570
         N            0.355926699514    -0.357711242334    -0.286096201173    14.003074004430
         C            1.791855699514    -0.532603242334    -0.537329201173    12.000000000000
         C           -0.087304300486     0.972019757666    -0.099932201173    12.000000000000
         C           -0.463545300486    -1.447548242334    -0.185359201173    12.000000000000
         C            2.594192699514    -0.468781242334     0.754250798827    12.000000000000
         C           -1.503454300486     1.085289757666     0.164532798827    12.000000000000
         C           -1.778653400486    -1.317018142334     0.079234498827    12.000000000000
         C           -2.321359300486    -0.008951242334     0.260670798827    12.000000000000
         H            1.919370699514    -1.493016242334    -1.044230201173     1.007825032230
         H            2.093322699514     0.268091757666    -1.214735201173     1.007825032230
         H            0.014086699514    -2.410854242334    -0.340897201173     1.007825032230
         H            2.452429699514     0.506175757666     1.222717798827     1.007825032230
         H            2.276115699514    -1.252416242334     1.447316798827     1.007825032230
         H            3.659317699514    -0.603536242334     0.543398798827     1.007825032230
         H           -1.878860300486     2.094972757666     0.297442798827     1.007825032230
         H           -2.425331300486    -2.196563242334     0.151019798827     1.007825032230
         H           -3.380232300486     0.125462757666     0.470455798827     1.007825032230

  Basis Set: AUG-CC-PVTZ
    Blend: AUG-CC-PVTZ
  Basis Set: (AUG-CC-PVTZ AUX)
    Blend: AUG-CC-PVTZ-JKFIT
	 Reference Energy          =    -399.7717512233633101 [Eh]
	 Singles Energy            =      -0.0000000000000000 [Eh]
	 Same-Spin Energy          =      -0.4230856485346653 [Eh]
	 Opposite-Spin Energy      =      -1.3394675588719687 [Eh]
	 Correlation Energy        =      -1.7625532074066341 [Eh]
	 Total Energy              =    -401.5343044307699643 [Eh]

	 ================> DF-SCS-MP2 Energies <==================
	-----------------------------------------------------------
	 SCS Same-Spin Scale       =       0.3333333333333333 [-]
	 SCS Opposite-Spin Scale   =       1.2000000000000000 [-]
	 SCS Same-Spin Energy      =      -0.1410285495115551 [Eh]
	 SCS Opposite-Spin Energy  =      -1.6073610706463624 [Eh]
	 SCS Correlation Energy    =      -1.7483896201579174 [Eh]
	 SCS Total Energy          =    -401.5201408435212329 [Eh]
	-----------------------------------------------------------

  Dipole Moment: [D]
     X:    -0.7929      Y:    -3.7840      Z:     0.0374     Total:     3.8663

*** Psi4 exiting successfully. Buy a developer a beer!
