                               Psi4 1.3.2 release

  ==> Input File <==

--------------------------------------------------------------------------
#psi4
#
memory 32 gb

molecule  {
0 1
  O        0.7747723     1.8624539    -0.2089479
  N        0.3221270    -0.3206750    -0.2979720
  C        1.7580560    -0.4955670    -0.5492050
  C       -0.1211040     1.0090560    -0.1118080
  C       -0.4973450    -1.4105120    -0.1972350
  C        2.5603930    -0.4317450     0.7423750
  C       -1.5372540     1.1223260     0.1526570
  C       -1.8319680    -1.2780450     0.0712850
  C       -2.3551590     0.0280850     0.2487950
  H        1.8855710    -1.4559800    -1.0561060
  H        2.0595230     0.3051280    -1.2266110
  H       -0.0197130    -2.3738180    -0.3527730
  H        2.4186300     0.5432120     1.2108420
  H        2.2423160    -1.2153800     1.4354410
  H        3.6255180    -0.5665000     0.5315230
  H       -1.9126600     2.1320090     0.2855670
  H       -2.4591310    -2.1595270     0.1391440
  H       -3.4140320     0.1624990     0.4585800
units angstrom
no_reorient  #important for SAPT in psi4, default
symmetry c1  #important for SAPT in psi4, default
}

set PROPERTIES_ORIGIN ["COM"]
properties('MP2/aug-cc-pvtz', properties = ['dipole'])
--------------------------------------------------------------------------

    Molecular point group: c1
  Charge       = 0
  Multiplicity = 1
  Basis Set: AUG-CC-PVTZ
    Blend: AUG-CC-PVTZ
  Basis Set: (AUG-CC-PVTZ AUX)
    Blend: AUG-CC-PVTZ-JKFIT

    Orbital Energies [Eh]
    ---------------------

    Doubly Occupied:

       1A    -20.503955     2A    -15.621967     3A    -11.350008
       4A    -11.308681     5A    -11.274238     6A    -11.269945
       7A    -11.240080     8A    -11.239522     9A    -11.218213
      10A     -1.372461    11A     -1.272595    12A     -1.119784
      13A     -1.030934    14A     -1.016928    15A     -0.895428
      16A     -0.868303    17A     -0.824232    18A     -0.714053
      19A     -0.701487    20A     -0.667453    21A     -0.639603
      22A     -0.613444    23A     -0.608762    24A     -0.600950
      25A     -0.560315    26A     -0.538165    27A     -0.528232
      28A     -0.523623    29A     -0.502601    30A     -0.473389
      31A     -0.420711    32A     -0.407297    33A     -0.309508

  @DF-RHF Final Energy:  -399.76776755468967

   => Energetics <=

    Nuclear Repulsion Energy =            438.5835987480137987
    One-Electron Energy =               -1412.2289933523875334
    Two-Electron Energy =                 573.8776270496839516
    Total Energy =                       -399.7677675546897262
  Basis Set: (AUG-CC-PVTZ AUX)
    Blend: AUG-CC-PVTZ-RI
    Molecular point group: c1

    Geometry (in Angstrom), charge = 0, multiplicity = 1:

       Center              X                  Y                   Z               Mass
    ------------   -----------------  -----------------  -----------------  -----------------
         O            0.798569886514     1.836793722755    -0.194358475225    15.994914619570
         N            0.345924586514    -0.346335177245    -0.283382575225    14.003074004430
         C            1.781853586514    -0.521227177245    -0.534615575225    12.000000000000
         C           -0.097306413486     0.983395822755    -0.097218575225    12.000000000000
         C           -0.473547413486    -1.436172177245    -0.182645575225    12.000000000000
         C            2.584190586514    -0.457405177245     0.756964424775    12.000000000000
         C           -1.513456413486     1.096665822755     0.167246424775    12.000000000000
         C           -1.808170413486    -1.303705177245     0.085874424775    12.000000000000
         C           -2.331361413486     0.002424822755     0.263384424775    12.000000000000
         H            1.909368586514    -1.481640177245    -1.041516575225     1.007825032230
         H            2.083320586514     0.279467822755    -1.212021575225     1.007825032230
         H            0.004084586514    -2.399478177245    -0.338183575225     1.007825032230
         H            2.442427586514     0.517551822755     1.225431424775     1.007825032230
         H            2.266113586514    -1.241040177245     1.450030424775     1.007825032230
         H            3.649315586514    -0.592160177245     0.546112424775     1.007825032230
         H           -1.888862413486     2.106348822755     0.300156424775     1.007825032230
         H           -2.435333413486    -2.185187177245     0.153733424775     1.007825032230
         H           -3.390234413486     0.136838822755     0.473169424775     1.007825032230

  Basis Set: AUG-CC-PVTZ
    Blend: AUG-CC-PVTZ
  Basis Set: (AUG-CC-PVTZ AUX)
    Blend: AUG-CC-PVTZ-JKFIT
	 Reference Energy          =    -399.7677675546896694 [Eh]
	 Singles Energy            =      -0.0000000000000000 [Eh]
	 Same-Spin Energy          =      -0.4240529730791201 [Eh]
	 Opposite-Spin Energy      =      -1.3402052344631843 [Eh]
	 Correlation Energy        =      -1.7642582075423043 [Eh]
	 Total Energy              =    -401.5320257622319673 [Eh]

	 ================> DF-SCS-MP2 Energies <==================
	-----------------------------------------------------------
	 SCS Same-Spin Scale       =       0.3333333333333333 [-]
	 SCS Opposite-Spin Scale   =       1.2000000000000000 [-]
	 SCS Same-Spin Energy      =      -0.1413509910263734 [Eh]
	 SCS Opposite-Spin Energy  =      -1.6082462813558212 [Eh]
	 SCS Correlation Energy    =      -1.7495972723821944 [Eh]
	 SCS Total Energy          =    -401.5173648270718445 [Eh]
	-----------------------------------------------------------

  Dipole Moment: [D]
     X:    -0.9742      Y:    -3.6422      Z:     0.0683     Total:     3.7709

*** Psi4 exiting successfully. Buy a developer a beer!
