                               Psi4 1.3.2 release

  ==> Input File <==

--------------------------------------------------------------------------
#psi4
#
memory 32 gb

molecule  {
0 1
  O        0.6831730     1.9514370    -0.1851230
  N        0.3221270    -0.3206750    -0.2979720
  C        1.7580560    -0.4955670    -0.5492050
  C       -0.1211040     1.0090560    -0.1118080
  C       -0.4893913    -1.2677482    -0.1899635
  C        2.5603930    -0.4317450     0.7423750
  C       -1.5372540     1.1223260     0.1526570
  C       -1.8319680    -1.2780450     0.0712850
  C       -2.3551590     0.0280850     0.2487950
  H        1.8855710    -1.4559800    -1.0561060
  H        2.0595230     0.3051280    -1.2266110
  H       -0.0197130    -2.3738180    -0.3527730
  H        2.4186300     0.5432120     1.2108420
  H        2.2423160    -1.2153800     1.4354410
  H        3.6255180    -0.5665000     0.5315230
  H       -1.9126600     2.1320090     0.2855670
  H       -2.4591310    -2.1595270     0.1391440
  H       -3.4140320     0.1624990     0.4585800
units angstrom
no_reorient  #important for SAPT in psi4, default
symmetry c1  #important for SAPT in psi4, default
}

set PROPERTIES_ORIGIN ["COM"]
properties('MP2/aug-cc-pvtz', properties = ['dipole'])
--------------------------------------------------------------------------

    Molecular point group: c1
  Charge       = 0
  Multiplicity = 1
  Basis Set: AUG-CC-PVTZ
    Blend: AUG-CC-PVTZ
  Basis Set: (AUG-CC-PVTZ AUX)
    Blend: AUG-CC-PVTZ-JKFIT

    Orbital Energies [Eh]
    ---------------------

    Doubly Occupied:

       1A    -20.507085     2A    -15.634779     3A    -11.350062
       4A    -11.311987     5A    -11.282967     6A    -11.267281
       7A    -11.231683     8A    -11.227819     9A    -11.227215
      10A     -1.384458    11A     -1.310434    12A     -1.122204
      13A     -1.041395    14A     -1.014752    15A     -0.901424
      16A     -0.879473    17A     -0.832511    18A     -0.717402
      19A     -0.703623    20A     -0.660461    21A     -0.644727
      22A     -0.628641    23A     -0.610609    24A     -0.588925
      25A     -0.566531    26A     -0.545245    27A     -0.533294
      28A     -0.513973    29A     -0.509114    30A     -0.483361
      31A     -0.418781    32A     -0.414768    33A     -0.300671

  @DF-RHF Final Energy:  -399.74805776053637

   => Energetics <=

    Nuclear Repulsion Energy =            440.3190548113221325
    One-Electron Energy =               -1415.3989158384270013
    Two-Electron Energy =                 575.3318032665684996
    Total Energy =                       -399.7480577605364260
  Basis Set: (AUG-CC-PVTZ AUX)
    Blend: AUG-CC-PVTZ-RI
    Molecular point group: c1

    Geometry (in Angstrom), charge = 0, multiplicity = 1:

       Center              X                  Y                   Z               Mass
    ------------   -----------------  -----------------  -----------------  -----------------
         O            0.718099994452     1.900291463942    -0.174339062161    15.994914619570
         N            0.357053994452    -0.371820536058    -0.287188062161    14.003074004430
         C            1.792982994452    -0.546712536058    -0.538421062161    12.000000000000
         C           -0.086177005548     0.957910463942    -0.101024062161    12.000000000000
         C           -0.454464305548    -1.318893736058    -0.179179562161    12.000000000000
         C            2.595319994452    -0.482890536058     0.753158937839    12.000000000000
         C           -1.502327005548     1.071180463942     0.163440937839    12.000000000000
         C           -1.797041005548    -1.329190536058     0.082068937839    12.000000000000
         C           -2.320232005548    -0.023060536058     0.259578937839    12.000000000000
         H            1.920497994452    -1.507125536058    -1.045322062161     1.007825032230
         H            2.094449994452     0.253982463942    -1.215827062161     1.007825032230
         H            0.015213994452    -2.424963536058    -0.341989062161     1.007825032230
         H            2.453556994452     0.492066463942     1.221625937839     1.007825032230
         H            2.277242994452    -1.266525536058     1.446224937839     1.007825032230
         H            3.660444994452    -0.617645536058     0.542306937839     1.007825032230
         H           -1.877733005548     2.080863463942     0.296350937839     1.007825032230
         H           -2.424204005548    -2.210672536058     0.149927937839     1.007825032230
         H           -3.379105005548     0.111353463942     0.469363937839     1.007825032230

  Basis Set: AUG-CC-PVTZ
    Blend: AUG-CC-PVTZ
  Basis Set: (AUG-CC-PVTZ AUX)
    Blend: AUG-CC-PVTZ-JKFIT
	 Reference Energy          =    -399.7480577605363692 [Eh]
	 Singles Energy            =      -0.0000000000000000 [Eh]
	 Same-Spin Energy          =      -0.4241821099269122 [Eh]
	 Opposite-Spin Energy      =      -1.3391842017910969 [Eh]
	 Correlation Energy        =      -1.7633663117180092 [Eh]
	 Total Energy              =    -401.5114240722543855 [Eh]

	 ================> DF-SCS-MP2 Energies <==================
	-----------------------------------------------------------
	 SCS Same-Spin Scale       =       0.3333333333333333 [-]
	 SCS Opposite-Spin Scale   =       1.2000000000000000 [-]
	 SCS Same-Spin Energy      =      -0.1413940366423041 [Eh]
	 SCS Opposite-Spin Energy  =      -1.6070210421493163 [Eh]
	 SCS Correlation Energy    =      -1.7484150787916204 [Eh]
	 SCS Total Energy          =    -401.4964728393279643 [Eh]
	-----------------------------------------------------------

  Dipole Moment: [D]
     X:    -0.3627      Y:    -3.7106      Z:    -0.0009     Total:     3.7283

*** Psi4 exiting successfully. Buy a developer a beer!
