                               Psi4 1.3.2 release

  ==> Input File <==

--------------------------------------------------------------------------
#psi4
#
memory 32 gb

molecule  {
0 1
  O        0.6831730     1.9514370    -0.1851230
  N        0.3221270    -0.3206750    -0.2979720
  C        1.7580560    -0.4955670    -0.5492050
  C       -0.1211040     1.0090560    -0.1118080
  C       -0.4973450    -1.4105120    -0.1972350
  C        2.5603930    -0.4317450     0.7423750
  C       -1.5372540     1.1223260     0.1526570
  C       -1.8319680    -1.2780450     0.0712850
  C       -2.3182671    -0.0640145     0.2362782
  H        1.8855710    -1.4559800    -1.0561060
  H        2.0595230     0.3051280    -1.2266110
  H       -0.0197130    -2.3738180    -0.3527730
  H        2.4186300     0.5432120     1.2108420
  H        2.2423160    -1.2153800     1.4354410
  H        3.6255180    -0.5665000     0.5315230
  H       -1.9126600     2.1320090     0.2855670
  H       -2.4591310    -2.1595270     0.1391440
  H       -3.4140320     0.1624990     0.4585800
units angstrom
no_reorient  #important for SAPT in psi4, default
symmetry c1  #important for SAPT in psi4, default
}

set PROPERTIES_ORIGIN ["COM"]
properties('MP2/aug-cc-pvtz', properties = ['dipole'])
--------------------------------------------------------------------------

    Molecular point group: c1
  Charge       = 0
  Multiplicity = 1
  Basis Set: AUG-CC-PVTZ
    Blend: AUG-CC-PVTZ
  Basis Set: (AUG-CC-PVTZ AUX)
    Blend: AUG-CC-PVTZ-JKFIT

    Orbital Energies [Eh]
    ---------------------

    Doubly Occupied:

       1A    -20.498017     2A    -15.633029     3A    -11.343324
       4A    -11.317231     5A    -11.276106     6A    -11.270680
       7A    -11.236437     8A    -11.234275     9A    -11.222654
      10A     -1.365742    11A     -1.280688    12A     -1.130638
      13A     -1.027984    14A     -1.021664    15A     -0.901911
      16A     -0.871493    17A     -0.821398    18A     -0.719508
      19A     -0.703631    20A     -0.663930    21A     -0.641423
      22A     -0.613820    23A     -0.608885    24A     -0.601357
      25A     -0.552952    26A     -0.545483    27A     -0.528595
      28A     -0.524346    29A     -0.507922    30A     -0.478969
      31A     -0.414365    32A     -0.409109    33A     -0.302422

  @DF-RHF Final Energy:  -399.75475258507993

   => Energetics <=

    Nuclear Repulsion Energy =            438.3418757719848031
    One-Electron Energy =               -1411.6532773835781427
    Two-Electron Energy =                 573.5566490265133552
    Total Energy =                       -399.7547525850799275
  Basis Set: (AUG-CC-PVTZ AUX)
    Blend: AUG-CC-PVTZ-RI
    Molecular point group: c1

    Geometry (in Angstrom), charge = 0, multiplicity = 1:

       Center              X                  Y                   Z               Mass
    ------------   -----------------  -----------------  -----------------  -----------------
         O            0.715278324870     1.923192218981    -0.172409569511    15.994914619570
         N            0.354232324870    -0.348919781019    -0.285258569511    14.003074004430
         C            1.790161324870    -0.523811781019    -0.536491569511    12.000000000000
         C           -0.088998675130     0.980811218981    -0.099094569511    12.000000000000
         C           -0.465239675130    -1.438756781019    -0.184521569511    12.000000000000
         C            2.592498324870    -0.459989781019     0.755088430489    12.000000000000
         C           -1.505148675130     1.094081218981     0.165370430489    12.000000000000
         C           -1.799862675130    -1.306289781019     0.083998430489    12.000000000000
         C           -2.286161775130    -0.092259281019     0.248991630489    12.000000000000
         H            1.917676324870    -1.484224781019    -1.043392569511     1.007825032230
         H            2.091628324870     0.276883218981    -1.213897569511     1.007825032230
         H            0.012392324870    -2.402062781019    -0.340059569511     1.007825032230
         H            2.450735324870     0.514967218981     1.223555430489     1.007825032230
         H            2.274421324870    -1.243624781019     1.448154430489     1.007825032230
         H            3.657623324870    -0.594744781019     0.544236430489     1.007825032230
         H           -1.880554675130     2.103764218981     0.298280430489     1.007825032230
         H           -2.427025675130    -2.187771781019     0.151857430489     1.007825032230
         H           -3.381926675130     0.134254218981     0.471293430489     1.007825032230

  Basis Set: AUG-CC-PVTZ
    Blend: AUG-CC-PVTZ
  Basis Set: (AUG-CC-PVTZ AUX)
    Blend: AUG-CC-PVTZ-JKFIT
	 Reference Energy          =    -399.7547525850799275 [Eh]
	 Singles Energy            =      -0.0000000000000000 [Eh]
	 Same-Spin Energy          =      -0.4257253434942369 [Eh]
	 Opposite-Spin Energy      =      -1.3418184844490129 [Eh]
	 Correlation Energy        =      -1.7675438279432498 [Eh]
	 Total Energy              =    -401.5222964130231844 [Eh]

	 ================> DF-SCS-MP2 Energies <==================
	-----------------------------------------------------------
	 SCS Same-Spin Scale       =       0.3333333333333333 [-]
	 SCS Opposite-Spin Scale   =       1.2000000000000000 [-]
	 SCS Same-Spin Energy      =      -0.1419084478314123 [Eh]
	 SCS Opposite-Spin Energy  =      -1.6101821813388153 [Eh]
	 SCS Correlation Energy    =      -1.7520906291702276 [Eh]
	 SCS Total Energy          =    -401.5068432142501820 [Eh]
	-----------------------------------------------------------

  Dipole Moment: [D]
     X:    -0.6796      Y:    -4.0189      Z:     0.0132     Total:     4.0760

*** Psi4 exiting successfully. Buy a developer a beer!
