                               Psi4 1.3.2 release

  ==> Input File <==

--------------------------------------------------------------------------
#psi4
#
memory 32 gb

molecule  {
0 1
  O        0.6831730     1.9514370    -0.1851230
  N        0.3221270    -0.3206750    -0.2979720
  C        1.7580560    -0.4955670    -0.5492050
  C       -0.0584106     0.8209705    -0.1381402
  C       -0.4973450    -1.4105120    -0.1972350
  C        2.5603930    -0.4317450     0.7423750
  C       -1.5372540     1.1223260     0.1526570
  C       -1.8319680    -1.2780450     0.0712850
  C       -2.3551590     0.0280850     0.2487950
  H        1.8855710    -1.4559800    -1.0561060
  H        2.0595230     0.3051280    -1.2266110
  H       -0.0197130    -2.3738180    -0.3527730
  H        2.4186300     0.5432120     1.2108420
  H        2.2423160    -1.2153800     1.4354410
  H        3.6255180    -0.5665000     0.5315230
  H       -1.9126600     2.1320090     0.2855670
  H       -2.4591310    -2.1595270     0.1391440
  H       -3.4140320     0.1624990     0.4585800
units angstrom
no_reorient  #important for SAPT in psi4, default
symmetry c1  #important for SAPT in psi4, default
}

set PROPERTIES_ORIGIN ["COM"]
properties('MP2/aug-cc-pvtz', properties = ['dipole'])
--------------------------------------------------------------------------

    Molecular point group: c1
  Charge       = 0
  Multiplicity = 1
  Basis Set: AUG-CC-PVTZ
    Blend: AUG-CC-PVTZ
  Basis Set: (AUG-CC-PVTZ AUX)
    Blend: AUG-CC-PVTZ-JKFIT

    Orbital Energies [Eh]
    ---------------------

    Doubly Occupied:

       1A    -20.474929     2A    -15.640639     3A    -11.338273
       4A    -11.309486     5A    -11.282984     6A    -11.262424
       7A    -11.258254     8A    -11.254420     9A    -11.226032
      10A     -1.391201    11A     -1.240985    12A     -1.127663
      13A     -1.046527    14A     -1.030530    15A     -0.910976
      16A     -0.899897    17A     -0.815601    18A     -0.732394
      19A     -0.697296    20A     -0.673647    21A     -0.656694
      22A     -0.634511    23A     -0.615990    24A     -0.587091
      25A     -0.552963    26A     -0.544393    27A     -0.528242
      28A     -0.513152    29A     -0.501819    30A     -0.447710
      31A     -0.413504    32A     -0.388751    33A     -0.314877

  @DF-RHF Final Energy:  -399.71908220569287

   => Energetics <=

    Nuclear Repulsion Energy =            439.4112803686268762
    One-Electron Energy =               -1413.6330157385143593
    Two-Electron Energy =                 574.5026531641946121
    Total Energy =                       -399.7190822056928710
  Basis Set: (AUG-CC-PVTZ AUX)
    Blend: AUG-CC-PVTZ-RI
    Molecular point group: c1

    Geometry (in Angstrom), charge = 0, multiplicity = 1:

       Center              X                  Y                   Z               Mass
    ------------   -----------------  -----------------  -----------------  -----------------
         O            0.712762504684     1.932551501053    -0.171062474877    15.994914619570
         N            0.351716504684    -0.339560498947    -0.283911474877    14.003074004430
         C            1.787645504684    -0.514452498947    -0.535144474877    12.000000000000
         C           -0.028821095316     0.802085001053    -0.124079674877    12.000000000000
         C           -0.467755495316    -1.429397498947    -0.183174474877    12.000000000000
         C            2.589982504684    -0.450630498947     0.756435525123    12.000000000000
         C           -1.507664495316     1.103440501053     0.166717525123    12.000000000000
         C           -1.802378495316    -1.296930498947     0.085345525123    12.000000000000
         C           -2.325569495316     0.009199501053     0.262855525123    12.000000000000
         H            1.915160504684    -1.474865498947    -1.042045474877     1.007825032230
         H            2.089112504684     0.286242501053    -1.212550474877     1.007825032230
         H            0.009876504684    -2.392703498947    -0.338712474877     1.007825032230
         H            2.448219504684     0.524326501053     1.224902525123     1.007825032230
         H            2.271905504684    -1.234265498947     1.449501525123     1.007825032230
         H            3.655107504684    -0.585385498947     0.545583525123     1.007825032230
         H           -1.883070495316     2.113123501053     0.299627525123     1.007825032230
         H           -2.429541495316    -2.178412498947     0.153204525123     1.007825032230
         H           -3.384442495316     0.143613501053     0.472640525123     1.007825032230

  Basis Set: AUG-CC-PVTZ
    Blend: AUG-CC-PVTZ
  Basis Set: (AUG-CC-PVTZ AUX)
    Blend: AUG-CC-PVTZ-JKFIT
	 Reference Energy          =    -399.7190822056928710 [Eh]
	 Singles Energy            =      -0.0000000000000000 [Eh]
	 Same-Spin Energy          =      -0.4233652040776255 [Eh]
	 Opposite-Spin Energy      =      -1.3419104280812748 [Eh]
	 Correlation Energy        =      -1.7652756321589003 [Eh]
	 Total Energy              =    -401.4843578378517464 [Eh]

	 ================> DF-SCS-MP2 Energies <==================
	-----------------------------------------------------------
	 SCS Same-Spin Scale       =       0.3333333333333333 [-]
	 SCS Opposite-Spin Scale   =       1.2000000000000000 [-]
	 SCS Same-Spin Energy      =      -0.1411217346925418 [Eh]
	 SCS Opposite-Spin Energy  =      -1.6102925136975297 [Eh]
	 SCS Correlation Energy    =      -1.7514142483900714 [Eh]
	 SCS Total Energy          =    -401.4704964540829337 [Eh]
	-----------------------------------------------------------

  Dipole Moment: [D]
     X:    -1.0542      Y:    -4.8546      Z:     0.0470     Total:     4.9680

*** Psi4 exiting successfully. Buy a developer a beer!
