                               Psi4 1.3.2 release

  ==> Input File <==

--------------------------------------------------------------------------
#psi4
#
memory 32 gb

molecule  {
0 1
  O        0.6831730     1.9514370    -0.1851230
  N        0.3405036    -0.3351809    -0.3025900
  C        1.7580560    -0.4955670    -0.5492050
  C       -0.1211040     1.0090560    -0.1118080
  C       -0.4973450    -1.4105120    -0.1972350
  C        2.5603930    -0.4317450     0.7423750
  C       -1.5372540     1.1223260     0.1526570
  C       -1.8319680    -1.2780450     0.0712850
  C       -2.3551590     0.0280850     0.2487950
  H        1.8855710    -1.4559800    -1.0561060
  H        2.0595230     0.3051280    -1.2266110
  H       -0.0197130    -2.3738180    -0.3527730
  H        2.4186300     0.5432120     1.2108420
  H        2.2423160    -1.2153800     1.4354410
  H        3.6255180    -0.5665000     0.5315230
  H       -1.9126600     2.1320090     0.2855670
  H       -2.4591310    -2.1595270     0.1391440
  H       -3.4140320     0.1624990     0.4585800
units angstrom
no_reorient  #important for SAPT in psi4, default
symmetry c1  #important for SAPT in psi4, default
}

set PROPERTIES_ORIGIN ["COM"]
properties('MP2/aug-cc-pvtz', properties = ['dipole'])
--------------------------------------------------------------------------

    Molecular point group: c1
  Charge       = 0
  Multiplicity = 1
  Basis Set: AUG-CC-PVTZ
    Blend: AUG-CC-PVTZ
  Basis Set: (AUG-CC-PVTZ AUX)
    Blend: AUG-CC-PVTZ-JKFIT

    Orbital Energies [Eh]
    ---------------------

    Doubly Occupied:

       1A    -20.508756     2A    -15.625295     3A    -11.352370
       4A    -11.309322     5A    -11.271944     6A    -11.271522
       7A    -11.239747     8A    -11.237344     9A    -11.220437
      10A     -1.368993    11A     -1.279356    12A     -1.120768
      13A     -1.031894    14A     -1.015129    15A     -0.897604
      16A     -0.867428    17A     -0.825585    18A     -0.713400
      19A     -0.701189    20A     -0.668672    21A     -0.640696
      22A     -0.614435    23A     -0.606806    24A     -0.604626
      25A     -0.561144    26A     -0.537864    27A     -0.531030
      28A     -0.527090    29A     -0.504638    30A     -0.475575
      31A     -0.422103    32A     -0.407417    33A     -0.308156

  @DF-RHF Final Energy:  -399.77034485630526

   => Energetics <=

    Nuclear Repulsion Energy =            437.2654203342516439
    One-Electron Energy =               -1409.5348605657432017
    Two-Electron Energy =                 572.4990953751862435
    Total Energy =                       -399.7703448563053144
  Basis Set: (AUG-CC-PVTZ AUX)
    Blend: AUG-CC-PVTZ-RI
    Molecular point group: c1

    Geometry (in Angstrom), charge = 0, multiplicity = 1:

       Center              X                  Y                   Z               Mass
    ------------   -----------------  -----------------  -----------------  -----------------
         O            0.716784592030     1.915862419399    -0.173104592723    15.994914619570
         N            0.374115192030    -0.370755480601    -0.290571592723    14.003074004430
         C            1.791667592030    -0.531141580601    -0.537186592723    12.000000000000
         C           -0.087492407970     0.973481419399    -0.099789592723    12.000000000000
         C           -0.463733407970    -1.446086580601    -0.185216592723    12.000000000000
         C            2.594004592030    -0.467319580601     0.754393407277    12.000000000000
         C           -1.503642407970     1.086751419399     0.164675407277    12.000000000000
         C           -1.798356407970    -1.313619580601     0.083303407277    12.000000000000
         C           -2.321547407970    -0.007489580601     0.260813407277    12.000000000000
         H            1.919182592030    -1.491554580601    -1.044087592723     1.007825032230
         H            2.093134592030     0.269553419399    -1.214592592723     1.007825032230
         H            0.013898592030    -2.409392580601    -0.340754592723     1.007825032230
         H            2.452241592030     0.507637419399     1.222860407277     1.007825032230
         H            2.275927592030    -1.250954580601     1.447459407277     1.007825032230
         H            3.659129592030    -0.602074580601     0.543541407277     1.007825032230
         H           -1.879048407970     2.096434419399     0.297585407277     1.007825032230
         H           -2.425519407970    -2.195101580601     0.151162407277     1.007825032230
         H           -3.380420407970     0.126924419399     0.470598407277     1.007825032230

  Basis Set: AUG-CC-PVTZ
    Blend: AUG-CC-PVTZ
  Basis Set: (AUG-CC-PVTZ AUX)
    Blend: AUG-CC-PVTZ-JKFIT
	 Reference Energy          =    -399.7703448563052575 [Eh]
	 Singles Energy            =      -0.0000000000000000 [Eh]
	 Same-Spin Energy          =      -0.4236448792611868 [Eh]
	 Opposite-Spin Energy      =      -1.3401323574296338 [Eh]
	 Correlation Energy        =      -1.7637772366908204 [Eh]
	 Total Energy              =    -401.5341220929960855 [Eh]

	 ================> DF-SCS-MP2 Energies <==================
	-----------------------------------------------------------
	 SCS Same-Spin Scale       =       0.3333333333333333 [-]
	 SCS Opposite-Spin Scale   =       1.2000000000000000 [-]
	 SCS Same-Spin Energy      =      -0.1412149597537289 [Eh]
	 SCS Opposite-Spin Energy  =      -1.6081588289155604 [Eh]
	 SCS Correlation Energy    =      -1.7493737886692893 [Eh]
	 SCS Total Energy          =    -401.5197186449745459 [Eh]
	-----------------------------------------------------------

  Dipole Moment: [D]
     X:    -0.7705      Y:    -3.7347      Z:     0.0356     Total:     3.8135

*** Psi4 exiting successfully. Buy a developer a beer!
