                               Psi4 1.3.2 release

  ==> Input File <==

--------------------------------------------------------------------------
#psi4
#
memory 32 gb

molecule  {
0 1
  O        0.7147369     1.9228773    -0.1931670
  N        0.3221270    -0.3206750    -0.2979720
  C        1.7580560    -0.4955670    -0.5492050
  C       -0.1211040     1.0090560    -0.1118080
  C       -0.4973450    -1.4105120    -0.1972350
  C        2.5603930    -0.4317450     0.7423750
  C       -1.5372540     1.1223260     0.1526570
  C       -1.8319680    -1.2780450     0.0712850
  C       -2.3551590     0.0280850     0.2487950
  H        1.8855710    -1.4559800    -1.0561060
  H        2.0595230     0.3051280    -1.2266110
  H       -0.0197130    -2.3738180    -0.3527730
  H        2.4186300     0.5432120     1.2108420
  H        2.2423160    -1.2153800     1.4354410
  H        3.6255180    -0.5665000     0.5315230
  H       -1.9126600     2.1320090     0.2855670
  H       -2.4591310    -2.1595270     0.1391440
  H       -3.4140320     0.1624990     0.4585800
units angstrom
no_reorient  #important for SAPT in psi4, default
symmetry c1  #important for SAPT in psi4, default
}

set PROPERTIES_ORIGIN ["COM"]
properties('MP2/aug-cc-pvtz', properties = ['dipole'])
--------------------------------------------------------------------------

    Molecular point group: c1
  Charge       = 0
  Multiplicity = 1
  Basis Set: AUG-CC-PVTZ
    Blend: AUG-CC-PVTZ
  Basis Set: (AUG-CC-PVTZ AUX)
    Blend: AUG-CC-PVTZ-JKFIT

    Orbital Energies [Eh]
    ---------------------

    Doubly Occupied:

       1A    -20.505529     2A    -15.624325     3A    -11.349866
       4A    -11.308838     5A    -11.272554     6A    -11.271868
       7A    -11.239958     8A    -11.238088     9A    -11.220164
      10A     -1.369987    11A     -1.276459    12A     -1.119363
      13A     -1.031239    14A     -1.017680    15A     -0.895546
      16A     -0.869710    17A     -0.824709    18A     -0.714272
      19A     -0.700782    20A     -0.667418    21A     -0.639818
      22A     -0.613719    23A     -0.607265    24A     -0.604468
      25A     -0.560435    26A     -0.538368    27A     -0.529278
      28A     -0.525217    29A     -0.504565    30A     -0.474450
      31A     -0.421221    32A     -0.407626    33A     -0.309069

  @DF-RHF Final Energy:  -399.77103276737591

   => Energetics <=

    Nuclear Repulsion Energy =            437.7877706536287405
    One-Electron Energy =               -1410.6099020016347367
    Two-Electron Energy =                 573.0510985806300823
    Total Energy =                       -399.7710327673759139
  Basis Set: (AUG-CC-PVTZ AUX)
    Blend: AUG-CC-PVTZ-RI
    Molecular point group: c1

    Geometry (in Angstrom), charge = 0, multiplicity = 1:

       Center              X                  Y                   Z               Mass
    ------------   -----------------  -----------------  -----------------  -----------------
         O            0.746337147381     1.889364034434    -0.180628581979    15.994914619570
         N            0.353727247381    -0.354188265566    -0.285433581979    14.003074004430
         C            1.789656247381    -0.529080265566    -0.536666581979    12.000000000000
         C           -0.089503752619     0.975542734434    -0.099269581979    12.000000000000
         C           -0.465744752619    -1.444025265566    -0.184696581979    12.000000000000
         C            2.591993247381    -0.465258265566     0.754913418021    12.000000000000
         C           -1.505653752619     1.088812734434     0.165195418021    12.000000000000
         C           -1.800367752619    -1.311558265566     0.083823418021    12.000000000000
         C           -2.323558752619    -0.005428265566     0.261333418021    12.000000000000
         H            1.917171247381    -1.489493265566    -1.043567581979     1.007825032230
         H            2.091123247381     0.271614734434    -1.214072581979     1.007825032230
         H            0.011887247381    -2.407331265566    -0.340234581979     1.007825032230
         H            2.450230247381     0.509698734434     1.223380418021     1.007825032230
         H            2.273916247381    -1.248893265566     1.447979418021     1.007825032230
         H            3.657118247381    -0.600013265566     0.544061418021     1.007825032230
         H           -1.881059752619     2.098495734434     0.298105418021     1.007825032230
         H           -2.427530752619    -2.193040265566     0.151682418021     1.007825032230
         H           -3.382431752619     0.128985734434     0.471118418021     1.007825032230

  Basis Set: AUG-CC-PVTZ
    Blend: AUG-CC-PVTZ
  Basis Set: (AUG-CC-PVTZ AUX)
    Blend: AUG-CC-PVTZ-JKFIT
	 Reference Energy          =    -399.7710327673759139 [Eh]
	 Singles Energy            =      -0.0000000000000000 [Eh]
	 Same-Spin Energy          =      -0.4236182122138226 [Eh]
	 Opposite-Spin Energy      =      -1.3399022363641269 [Eh]
	 Correlation Energy        =      -1.7635204485779494 [Eh]
	 Total Energy              =    -401.5345532159538493 [Eh]

	 ================> DF-SCS-MP2 Energies <==================
	-----------------------------------------------------------
	 SCS Same-Spin Scale       =       0.3333333333333333 [-]
	 SCS Opposite-Spin Scale   =       1.2000000000000000 [-]
	 SCS Same-Spin Energy      =      -0.1412060707379408 [Eh]
	 SCS Opposite-Spin Energy  =      -1.6078826836369522 [Eh]
	 SCS Correlation Energy    =      -1.7490887543748930 [Eh]
	 SCS Total Energy          =    -401.5201215217508093 [Eh]
	-----------------------------------------------------------

  Dipole Moment: [D]
     X:    -0.8331      Y:    -3.7597      Z:     0.0445     Total:     3.8512

*** Psi4 exiting successfully. Buy a developer a beer!
