                               Psi4 1.4a3.dev225

  ==> Input File <==

--------------------------------------------------------------------------
#psi4
#
memory 32 gb

molecule  {
0 1
  O        0.6831730     1.9514370    -0.1851230
  N        0.3221270    -0.3206750    -0.2979720
  C        1.7384955    -0.4931846    -0.5457827
  C       -0.1211040     1.0090560    -0.1118080
  C       -0.4973450    -1.4105120    -0.1972350
  C        2.5603930    -0.4317450     0.7423750
  C       -1.5372540     1.1223260     0.1526570
  C       -1.8319680    -1.2780450     0.0712850
  C       -2.3551590     0.0280850     0.2487950
  H        1.8855710    -1.4559800    -1.0561060
  H        2.0595230     0.3051280    -1.2266110
  H       -0.0197130    -2.3738180    -0.3527730
  H        2.4186300     0.5432120     1.2108420
  H        2.2423160    -1.2153800     1.4354410
  H        3.6255180    -0.5665000     0.5315230
  H       -1.9126600     2.1320090     0.2855670
  H       -2.4591310    -2.1595270     0.1391440
  H       -3.4140320     0.1624990     0.4585800
units angstrom
no_reorient  #important for SAPT in psi4, default
symmetry c1  #important for SAPT in psi4, default
}

set PROPERTIES_ORIGIN ["COM"]
properties('MP2/aug-cc-pvtz', properties = ['dipole'])
--------------------------------------------------------------------------

    Molecular point group: c1
  Charge       = 0
  Multiplicity = 1
  Basis Set: AUG-CC-PVTZ
    Blend: AUG-CC-PVTZ
  Basis Set: (AUG-CC-PVTZ AUX)
    Blend: AUG-CC-PVTZ-JKFIT

    Orbital Energies [Eh]
    ---------------------

    Doubly Occupied:

       1A    -20.507018     2A    -15.626231     3A    -11.350579
       4A    -11.309370     5A    -11.272963     6A    -11.271160
       7A    -11.240811     8A    -11.237697     9A    -11.220678
      10A     -1.370635    11A     -1.281363    12A     -1.120575
      13A     -1.031057    14A     -1.016971    15A     -0.897165
      16A     -0.871545    17A     -0.824416    18A     -0.715269
      19A     -0.701408    20A     -0.669161    21A     -0.641035
      22A     -0.615493    23A     -0.606268    24A     -0.604761
      25A     -0.560724    26A     -0.539052    27A     -0.530262
      28A     -0.524685    29A     -0.502951    30A     -0.474906
      31A     -0.422072    32A     -0.407398    33A     -0.309369

  @DF-RHF Final Energy:  -399.77113736376100

   => Energetics <=

    Nuclear Repulsion Energy =            437.7713335262900500
    One-Electron Energy =               -1410.5348447457597558
    Two-Electron Energy =                 572.9923738557087063
    Total Energy =                       -399.7711373637609995
  Basis Set: (AUG-CC-PVTZ AUX)
    Blend: AUG-CC-PVTZ-RI
    Molecular point group: c1

    Geometry (in Angstrom), charge = 0, multiplicity = 1:

       Center              X                  Y                   Z               Mass
    ------------   -----------------  -----------------  -----------------  -----------------
         O            0.720782814434     1.913979596798    -0.173963739212    15.994914619570
         N            0.359736814434    -0.358132403202    -0.286812739212    14.003074004430
         C            1.776105314434    -0.530642003202    -0.534623439212    12.000000000000
         C           -0.083494185566     0.971598596798    -0.100648739212    12.000000000000
         C           -0.459735185566    -1.447969403202    -0.186075739212    12.000000000000
         C            2.598002814434    -0.469202403202     0.753534260788    12.000000000000
         C           -1.499644185566     1.084868596798     0.163816260788    12.000000000000
         C           -1.794358185566    -1.315502403202     0.082444260788    12.000000000000
         C           -2.317549185566    -0.009372403202     0.259954260788    12.000000000000
         H            1.923180814434    -1.493437403202    -1.044946739212     1.007825032230
         H            2.097132814434     0.267670596798    -1.215451739212     1.007825032230
         H            0.017896814434    -2.411275403202    -0.341613739212     1.007825032230
         H            2.456239814434     0.505754596798     1.222001260788     1.007825032230
         H            2.279925814434    -1.252837403202     1.446600260788     1.007825032230
         H            3.663127814434    -0.603957403202     0.542682260788     1.007825032230
         H           -1.875050185566     2.094551596798     0.296726260788     1.007825032230
         H           -2.421521185566    -2.196984403202     0.150303260788     1.007825032230
         H           -3.376422185566     0.125041596798     0.469739260788     1.007825032230

  Basis Set: AUG-CC-PVTZ
    Blend: AUG-CC-PVTZ
  Basis Set: (AUG-CC-PVTZ AUX)
    Blend: AUG-CC-PVTZ-JKFIT
	 Reference Energy          =    -399.7711373637609995 [Eh]
	 Singles Energy            =      -0.0000000000000000 [Eh]
	 Same-Spin Energy          =      -0.4235389990609740 [Eh]
	 Opposite-Spin Energy      =      -1.3398854791764618 [Eh]
	 Correlation Energy        =      -1.7634244782374358 [Eh]
	 Total Energy              =    -401.5345618419984248 [Eh]

	 ================> DF-SCS-MP2 Energies <==================
	-----------------------------------------------------------
	 SCS Same-Spin Scale       =       0.3333333333333333 [-]
	 SCS Opposite-Spin Scale   =       1.2000000000000000 [-]
	 SCS Same-Spin Energy      =      -0.1411796663536580 [Eh]
	 SCS Opposite-Spin Energy  =      -1.6078625750117541 [Eh]
	 SCS Correlation Energy    =      -1.7490422413654121 [Eh]
	 SCS Total Energy          =    -401.5201796051264296 [Eh]
	-----------------------------------------------------------

  Dipole Moment: [D]
     X:    -0.8199      Y:    -3.7953      Z:     0.0347     Total:     3.8830

*** Psi4 exiting successfully. Buy a developer a beer!
