                               Psi4 1.3.2 release

  ==> Input File <==

--------------------------------------------------------------------------
#psi4
#
memory 32 gb

molecule  {
0 1
  O        0.6831730     1.9514370    -0.1851230
  N        0.3221270    -0.3206750    -0.2979720
  C        1.7580560    -0.4955670    -0.5492050
  C       -0.1159054     1.1097090    -0.1078455
  C       -0.4973450    -1.4105120    -0.1972350
  C        2.5603930    -0.4317450     0.7423750
  C       -1.5372540     1.1223260     0.1526570
  C       -1.8319680    -1.2780450     0.0712850
  C       -2.3551590     0.0280850     0.2487950
  H        1.8855710    -1.4559800    -1.0561060
  H        2.0595230     0.3051280    -1.2266110
  H       -0.0197130    -2.3738180    -0.3527730
  H        2.4186300     0.5432120     1.2108420
  H        2.2423160    -1.2153800     1.4354410
  H        3.6255180    -0.5665000     0.5315230
  H       -1.9126600     2.1320090     0.2855670
  H       -2.4591310    -2.1595270     0.1391440
  H       -3.4140320     0.1624990     0.4585800
units angstrom
no_reorient  #important for SAPT in psi4, default
symmetry c1  #important for SAPT in psi4, default
}

set PROPERTIES_ORIGIN ["COM"]
properties('MP2/aug-cc-pvtz', properties = ['dipole'])
--------------------------------------------------------------------------

    Molecular point group: c1
  Charge       = 0
  Multiplicity = 1
  Basis Set: AUG-CC-PVTZ
    Blend: AUG-CC-PVTZ
  Basis Set: (AUG-CC-PVTZ AUX)
    Blend: AUG-CC-PVTZ-JKFIT

    Orbital Energies [Eh]
    ---------------------

    Doubly Occupied:

       1A    -20.528675     2A    -15.610543     3A    -11.354513
       4A    -11.304283     5A    -11.270355     6A    -11.268623
       7A    -11.231635     8A    -11.230155     9A    -11.219378
      10A     -1.421671    11A     -1.268489    12A     -1.111971
      13A     -1.028079    14A     -1.006676    15A     -0.892104
      16A     -0.849835    17A     -0.824030    18A     -0.707608
      19A     -0.701552    20A     -0.671367    21A     -0.636717
      22A     -0.623338    23A     -0.610054    24A     -0.600345
      25A     -0.567279    26A     -0.543765    27A     -0.534046
      28A     -0.528506    29A     -0.502465    30A     -0.488194
      31A     -0.426222    32A     -0.400504    33A     -0.303380

  @DF-RHF Final Energy:  -399.76186800672264

   => Energetics <=

    Nuclear Repulsion Energy =            436.8475169691485007
    One-Electron Energy =               -1408.6860544786138689
    Two-Electron Energy =                 572.0766695027427886
    Total Energy =                       -399.7618680067225796
  Basis Set: (AUG-CC-PVTZ AUX)
    Blend: AUG-CC-PVTZ-RI
    Molecular point group: c1

    Geometry (in Angstrom), charge = 0, multiplicity = 1:

       Center              X                  Y                   Z               Mass
    ------------   -----------------  -----------------  -----------------  -----------------
         O            0.718368635275     1.904397550825    -0.174016412354    15.994914619570
         N            0.357322635275    -0.367714449175    -0.286865412354    14.003074004430
         C            1.793251635275    -0.542606449175    -0.538098412354    12.000000000000
         C           -0.080709764725     1.062669550825    -0.096738912354    12.000000000000
         C           -0.462149364725    -1.457551449175    -0.186128412354    12.000000000000
         C            2.595588635275    -0.478784449175     0.753481587646    12.000000000000
         C           -1.502058364725     1.075286550825     0.163763587646    12.000000000000
         C           -1.796772364725    -1.325084449175     0.082391587646    12.000000000000
         C           -2.319963364725    -0.018954449175     0.259901587646    12.000000000000
         H            1.920766635275    -1.503019449175    -1.044999412354     1.007825032230
         H            2.094718635275     0.258088550825    -1.215504412354     1.007825032230
         H            0.015482635275    -2.420857449175    -0.341666412354     1.007825032230
         H            2.453825635275     0.496172550825     1.221948587646     1.007825032230
         H            2.277511635275    -1.262419449175     1.446547587646     1.007825032230
         H            3.660713635275    -0.613539449175     0.542629587646     1.007825032230
         H           -1.877464364725     2.084969550825     0.296673587646     1.007825032230
         H           -2.423935364725    -2.206566449175     0.150250587646     1.007825032230
         H           -3.378836364725     0.115459550825     0.469686587646     1.007825032230

  Basis Set: AUG-CC-PVTZ
    Blend: AUG-CC-PVTZ
  Basis Set: (AUG-CC-PVTZ AUX)
    Blend: AUG-CC-PVTZ-JKFIT
	 Reference Energy          =    -399.7618680067226364 [Eh]
	 Singles Energy            =      -0.0000000000000000 [Eh]
	 Same-Spin Energy          =      -0.4229365702678731 [Eh]
	 Opposite-Spin Energy      =      -1.3385435061588500 [Eh]
	 Correlation Energy        =      -1.7614800764267231 [Eh]
	 Total Energy              =    -401.5233480831493580 [Eh]

	 ================> DF-SCS-MP2 Energies <==================
	-----------------------------------------------------------
	 SCS Same-Spin Scale       =       0.3333333333333333 [-]
	 SCS Opposite-Spin Scale   =       1.2000000000000000 [-]
	 SCS Same-Spin Energy      =      -0.1409788567559577 [Eh]
	 SCS Opposite-Spin Energy  =      -1.6062522073906200 [Eh]
	 SCS Correlation Energy    =      -1.7472310641465778 [Eh]
	 SCS Total Energy          =    -401.5090990708692402 [Eh]
	-----------------------------------------------------------

  Dipole Moment: [D]
     X:    -0.4249      Y:    -3.0759      Z:     0.0074     Total:     3.1051

*** Psi4 exiting successfully. Buy a developer a beer!
