                               Psi4 1.3.2 release

  ==> Input File <==

--------------------------------------------------------------------------
#psi4
#
memory 32 gb

molecule  {
0 1
  O        0.6831730     1.9514370    -0.1851230
  N        0.3221270    -0.3206750    -0.2979720
  C        1.7580560    -0.4955670    -0.5492050
  C       -0.1211040     1.0090560    -0.1118080
  C       -0.4973450    -1.4105120    -0.1972350
  C        2.5603930    -0.4317450     0.7423750
  C       -1.5372540     1.1223260     0.1526570
  C       -1.7343934    -1.2877297     0.0516534
  C       -2.3551590     0.0280850     0.2487950
  H        1.8855710    -1.4559800    -1.0561060
  H        2.0595230     0.3051280    -1.2266110
  H       -0.0197130    -2.3738180    -0.3527730
  H        2.4186300     0.5432120     1.2108420
  H        2.2423160    -1.2153800     1.4354410
  H        3.6255180    -0.5665000     0.5315230
  H       -1.9126600     2.1320090     0.2855670
  H       -2.4591310    -2.1595270     0.1391440
  H       -3.4140320     0.1624990     0.4585800
units angstrom
no_reorient  #important for SAPT in psi4, default
symmetry c1  #important for SAPT in psi4, default
}

set PROPERTIES_ORIGIN ["COM"]
properties('MP2/aug-cc-pvtz', properties = ['dipole'])
--------------------------------------------------------------------------

    Molecular point group: c1
  Charge       = 0
  Multiplicity = 1
  Basis Set: AUG-CC-PVTZ
    Blend: AUG-CC-PVTZ
  Basis Set: (AUG-CC-PVTZ AUX)
    Blend: AUG-CC-PVTZ-JKFIT

    Orbital Energies [Eh]
    ---------------------

    Doubly Occupied:

       1A    -20.509348     2A    -15.614835     3A    -11.351475
       4A    -11.287705     5A    -11.275994     6A    -11.269979
       7A    -11.242013     8A    -11.236215     9A    -11.218482
      10A     -1.369604    11A     -1.277533    12A     -1.120352
      13A     -1.041923    14A     -1.016310    15A     -0.893536
      16A     -0.862410    17A     -0.827225    18A     -0.713559
      19A     -0.700584    20A     -0.665253    21A     -0.635916
      22A     -0.618995    23A     -0.608206    24A     -0.600517
      25A     -0.564934    26A     -0.530970    27A     -0.524724
      28A     -0.518828    29A     -0.502790    30A     -0.480731
      31A     -0.422992    32A     -0.402843    33A     -0.322106

  @DF-RHF Final Energy:  -399.76011117466174

   => Energetics <=

    Nuclear Repulsion Energy =            438.7877529139726107
    One-Electron Energy =               -1412.6379495163041611
    Two-Electron Energy =                 574.0900854276698055
    Total Energy =                       -399.7601111746618017
  Basis Set: (AUG-CC-PVTZ AUX)
    Blend: AUG-CC-PVTZ-RI
    Molecular point group: c1

    Geometry (in Angstrom), charge = 0, multiplicity = 1:

       Center              X                  Y                   Z               Mass
    ------------   -----------------  -----------------  -----------------  -----------------
         O            0.709361352539     1.915156220396    -0.171715828548    15.994914619570
         N            0.348315352539    -0.356955779604    -0.284564828548    14.003074004430
         C            1.784244352539    -0.531847779604    -0.535797828548    12.000000000000
         C           -0.094915647461     0.972775220396    -0.098400828548    12.000000000000
         C           -0.471156647461    -1.446792779604    -0.183827828548    12.000000000000
         C            2.586581352539    -0.468025779604     0.755782171452    12.000000000000
         C           -1.511065647461     1.086045220396     0.166064171452    12.000000000000
         C           -1.708205047461    -1.324010479604     0.065060571452    12.000000000000
         C           -2.328970647461    -0.008195779604     0.262202171452    12.000000000000
         H            1.911759352539    -1.492260779604    -1.042698828548     1.007825032230
         H            2.085711352539     0.268847220396    -1.213203828548     1.007825032230
         H            0.006475352539    -2.410098779604    -0.339365828548     1.007825032230
         H            2.444818352539     0.506931220396     1.224249171452     1.007825032230
         H            2.268504352539    -1.251660779604     1.448848171452     1.007825032230
         H            3.651706352539    -0.602780779604     0.544930171452     1.007825032230
         H           -1.886471647461     2.095728220396     0.298974171452     1.007825032230
         H           -2.432942647461    -2.195807779604     0.152551171452     1.007825032230
         H           -3.387843647461     0.126218220396     0.471987171452     1.007825032230

  Basis Set: AUG-CC-PVTZ
    Blend: AUG-CC-PVTZ
  Basis Set: (AUG-CC-PVTZ AUX)
    Blend: AUG-CC-PVTZ-JKFIT
	 Reference Energy          =    -399.7601111746617448 [Eh]
	 Singles Energy            =      -0.0000000000000000 [Eh]
	 Same-Spin Energy          =      -0.4217116809674353 [Eh]
	 Opposite-Spin Energy      =      -1.3382867040520741 [Eh]
	 Correlation Energy        =      -1.7599983850195093 [Eh]
	 Total Energy              =    -401.5201095596812593 [Eh]

	 ================> DF-SCS-MP2 Energies <==================
	-----------------------------------------------------------
	 SCS Same-Spin Scale       =       0.3333333333333333 [-]
	 SCS Opposite-Spin Scale   =       1.2000000000000000 [-]
	 SCS Same-Spin Energy      =      -0.1405705603224784 [Eh]
	 SCS Opposite-Spin Energy  =      -1.6059440448624889 [Eh]
	 SCS Correlation Energy    =      -1.7465146051849674 [Eh]
	 SCS Total Energy          =    -401.5066257798467291 [Eh]
	-----------------------------------------------------------

  Dipole Moment: [D]
     X:    -0.9421      Y:    -3.6632      Z:     0.0608     Total:     3.7829

*** Psi4 exiting successfully. Buy a developer a beer!
