                               Psi4 1.3.2 release

  ==> Input File <==

--------------------------------------------------------------------------
#psi4
#
memory 32 gb

molecule  {
0 1
  O        0.6831730     1.9514370    -0.1851230
  N        0.3221270    -0.3206750    -0.2979720
  C        1.7580560    -0.4955670    -0.5492050
  C       -0.1211040     1.0090560    -0.1118080
  C       -0.4374101    -1.3308030    -0.2046027
  C        2.5603930    -0.4317450     0.7423750
  C       -1.5372540     1.1223260     0.1526570
  C       -1.8319680    -1.2780450     0.0712850
  C       -2.3551590     0.0280850     0.2487950
  H        1.8855710    -1.4559800    -1.0561060
  H        2.0595230     0.3051280    -1.2266110
  H       -0.0197130    -2.3738180    -0.3527730
  H        2.4186300     0.5432120     1.2108420
  H        2.2423160    -1.2153800     1.4354410
  H        3.6255180    -0.5665000     0.5315230
  H       -1.9126600     2.1320090     0.2855670
  H       -2.4591310    -2.1595270     0.1391440
  H       -3.4140320     0.1624990     0.4585800
units angstrom
no_reorient  #important for SAPT in psi4, default
symmetry c1  #important for SAPT in psi4, default
}

set PROPERTIES_ORIGIN ["COM"]
properties('MP2/aug-cc-pvtz', properties = ['dipole'])
--------------------------------------------------------------------------

    Molecular point group: c1
  Charge       = 0
  Multiplicity = 1
  Basis Set: AUG-CC-PVTZ
    Blend: AUG-CC-PVTZ
  Basis Set: (AUG-CC-PVTZ AUX)
    Blend: AUG-CC-PVTZ-JKFIT

    Orbital Energies [Eh]
    ---------------------

    Doubly Occupied:

       1A    -20.506275     2A    -15.636688     3A    -11.350617
       4A    -11.314790     5A    -11.281104     6A    -11.266756
       7A    -11.237102     8A    -11.228086     9A    -11.226834
      10A     -1.381326    11A     -1.306946    12A     -1.115137
      13A     -1.039617    14A     -1.011111    15A     -0.899750
      16A     -0.881289    17A     -0.828981    18A     -0.717727
      19A     -0.702568    20A     -0.661992    21A     -0.648959
      22A     -0.625667    23A     -0.610764    24A     -0.595730
      25A     -0.562555    26A     -0.543083    27A     -0.532930
      28A     -0.517502    29A     -0.511868    30A     -0.479536
      31A     -0.420471    32A     -0.413624    33A     -0.295256

  @DF-RHF Final Energy:  -399.75852069016702

   => Energetics <=

    Nuclear Repulsion Energy =            439.1205151105868936
    One-Electron Energy =               -1413.0527935638717736
    Two-Electron Energy =                 574.1737577631179192
    Total Energy =                       -399.7585206901669608
  Basis Set: (AUG-CC-PVTZ AUX)
    Blend: AUG-CC-PVTZ-RI
    Molecular point group: c1

    Geometry (in Angstrom), charge = 0, multiplicity = 1:

       Center              X                  Y                   Z               Mass
    ------------   -----------------  -----------------  -----------------  -----------------
         O            0.713031477030     1.906439732015    -0.172911641473    15.994914619570
         N            0.351985477030    -0.365672267985    -0.285760641473    14.003074004430
         C            1.787914477030    -0.540564267985    -0.536993641473    12.000000000000
         C           -0.091245522970     0.964058732015    -0.099596641473    12.000000000000
         C           -0.407551622970    -1.375800267985    -0.192391341473    12.000000000000
         C            2.590251477030    -0.476742267985     0.754586358527    12.000000000000
         C           -1.507395522970     1.077328732015     0.164868358527    12.000000000000
         C           -1.802109522970    -1.323042267985     0.083496358527    12.000000000000
         C           -2.325300522970    -0.016912267985     0.261006358527    12.000000000000
         H            1.915429477030    -1.500977267985    -1.043894641473     1.007825032230
         H            2.089381477030     0.260130732015    -1.214399641473     1.007825032230
         H            0.010145477030    -2.418815267985    -0.340561641473     1.007825032230
         H            2.448488477030     0.498214732015     1.223053358527     1.007825032230
         H            2.272174477030    -1.260377267985     1.447652358527     1.007825032230
         H            3.655376477030    -0.611497267985     0.543734358527     1.007825032230
         H           -1.882801522970     2.087011732015     0.297778358527     1.007825032230
         H           -2.429272522970    -2.204524267985     0.151355358527     1.007825032230
         H           -3.384173522970     0.117501732015     0.470791358527     1.007825032230

  Basis Set: AUG-CC-PVTZ
    Blend: AUG-CC-PVTZ
  Basis Set: (AUG-CC-PVTZ AUX)
    Blend: AUG-CC-PVTZ-JKFIT
	 Reference Energy          =    -399.7585206901670176 [Eh]
	 Singles Energy            =      -0.0000000000000000 [Eh]
	 Same-Spin Energy          =      -0.4245513088532598 [Eh]
	 Opposite-Spin Energy      =      -1.3396375154251559 [Eh]
	 Correlation Energy        =      -1.7641888242784156 [Eh]
	 Total Energy              =    -401.5227095144454097 [Eh]

	 ================> DF-SCS-MP2 Energies <==================
	-----------------------------------------------------------
	 SCS Same-Spin Scale       =       0.3333333333333333 [-]
	 SCS Opposite-Spin Scale   =       1.2000000000000000 [-]
	 SCS Same-Spin Energy      =      -0.1415171029510866 [Eh]
	 SCS Opposite-Spin Energy  =      -1.6075650185101871 [Eh]
	 SCS Correlation Energy    =      -1.7490821214612737 [Eh]
	 SCS Total Energy          =    -401.5076028116283169 [Eh]
	-----------------------------------------------------------

  Dipole Moment: [D]
     X:    -0.3737      Y:    -3.8133      Z:    -0.0140     Total:     3.8315

*** Psi4 exiting successfully. Buy a developer a beer!
