                               Psi4 1.3.2 release

  ==> Input File <==

--------------------------------------------------------------------------
#psi4
#
memory 32 gb

molecule  {
0 1
  O        0.6831730     1.9514370    -0.1851230
  N        0.3176705    -0.3230542    -0.3230936
  C        1.7580560    -0.4955670    -0.5492050
  C       -0.1211040     1.0090560    -0.1118080
  C       -0.4973450    -1.4105120    -0.1972350
  C        2.5603930    -0.4317450     0.7423750
  C       -1.5372540     1.1223260     0.1526570
  C       -1.8319680    -1.2780450     0.0712850
  C       -2.3551590     0.0280850     0.2487950
  H        1.8855710    -1.4559800    -1.0561060
  H        2.0595230     0.3051280    -1.2266110
  H       -0.0197130    -2.3738180    -0.3527730
  H        2.4186300     0.5432120     1.2108420
  H        2.2423160    -1.2153800     1.4354410
  H        3.6255180    -0.5665000     0.5315230
  H       -1.9126600     2.1320090     0.2855670
  H       -2.4591310    -2.1595270     0.1391440
  H       -3.4140320     0.1624990     0.4585800
units angstrom
no_reorient  #important for SAPT in psi4, default
symmetry c1  #important for SAPT in psi4, default
}

set PROPERTIES_ORIGIN ["COM"]
properties('MP2/aug-cc-pvtz', properties = ['dipole'])
--------------------------------------------------------------------------

    Molecular point group: c1
  Charge       = 0
  Multiplicity = 1
  Basis Set: AUG-CC-PVTZ
    Blend: AUG-CC-PVTZ
  Basis Set: (AUG-CC-PVTZ AUX)
    Blend: AUG-CC-PVTZ-JKFIT

    Orbital Energies [Eh]
    ---------------------

    Doubly Occupied:

       1A    -20.506978     2A    -15.625500     3A    -11.350421
       4A    -11.308607     5A    -11.273742     6A    -11.270671
       7A    -11.239773     8A    -11.236887     9A    -11.221655
      10A     -1.368956    11A     -1.278671    12A     -1.118930
      13A     -1.031566    14A     -1.017522    15A     -0.896237
      16A     -0.869752    17A     -0.825094    18A     -0.713807
      19A     -0.700292    20A     -0.666548    21A     -0.640299
      22A     -0.614104    23A     -0.607374    24A     -0.605155
      25A     -0.560677    26A     -0.538717    27A     -0.530927
      28A     -0.525264    29A     -0.505345    30A     -0.475438
      31A     -0.421471    32A     -0.407821    33A     -0.308504

  @DF-RHF Final Energy:  -399.77119811839060

   => Energetics <=

    Nuclear Repulsion Energy =            437.3209753344223145
    One-Electron Energy =               -1409.6589389795597071
    Two-Electron Energy =                 572.5667655267468490
    Total Energy =                       -399.7711981183905436
  Basis Set: (AUG-CC-PVTZ AUX)
    Blend: AUG-CC-PVTZ-RI
    Molecular point group: c1

    Geometry (in Angstrom), charge = 0, multiplicity = 1:

       Center              X                  Y                   Z               Mass
    ------------   -----------------  -----------------  -----------------  -----------------
         O            0.719382607060     1.914482608998    -0.170771634825    15.994914619570
         N            0.353880107060    -0.360008591002    -0.308742234825    14.003074004430
         C            1.794265607060    -0.532521391002    -0.534853634825    12.000000000000
         C           -0.084894392940     0.972101608998    -0.097456634825    12.000000000000
         C           -0.461135392940    -1.447466391002    -0.182883634825    12.000000000000
         C            2.596602607060    -0.468699391002     0.756726365175    12.000000000000
         C           -1.501044392940     1.085371608998     0.167008365175    12.000000000000
         C           -1.795758392940    -1.314999391002     0.085636365175    12.000000000000
         C           -2.318949392940    -0.008869391002     0.263146365175    12.000000000000
         H            1.921780607060    -1.492934391002    -1.041754634825     1.007825032230
         H            2.095732607060     0.268173608998    -1.212259634825     1.007825032230
         H            0.016496607060    -2.410772391002    -0.338421634825     1.007825032230
         H            2.454839607060     0.506257608998     1.225193365175     1.007825032230
         H            2.278525607060    -1.252334391002     1.449792365175     1.007825032230
         H            3.661727607060    -0.603454391002     0.545874365175     1.007825032230
         H           -1.876450392940     2.095054608998     0.299918365175     1.007825032230
         H           -2.422921392940    -2.196481391002     0.153495365175     1.007825032230
         H           -3.377822392940     0.125544608998     0.472931365175     1.007825032230

  Basis Set: AUG-CC-PVTZ
    Blend: AUG-CC-PVTZ
  Basis Set: (AUG-CC-PVTZ AUX)
    Blend: AUG-CC-PVTZ-JKFIT
	 Reference Energy          =    -399.7711981183906005 [Eh]
	 Singles Energy            =      -0.0000000000000000 [Eh]
	 Same-Spin Energy          =      -0.4234790434049096 [Eh]
	 Opposite-Spin Energy      =      -1.3398666969471273 [Eh]
	 Correlation Energy        =      -1.7633457403520369 [Eh]
	 Total Energy              =    -401.5345438587426656 [Eh]

	 ================> DF-SCS-MP2 Energies <==================
	-----------------------------------------------------------
	 SCS Same-Spin Scale       =       0.3333333333333333 [-]
	 SCS Opposite-Spin Scale   =       1.2000000000000000 [-]
	 SCS Same-Spin Energy      =      -0.1411596811349698 [Eh]
	 SCS Opposite-Spin Energy  =      -1.6078400363365528 [Eh]
	 SCS Correlation Energy    =      -1.7489997174715226 [Eh]
	 SCS Total Energy          =    -401.5201978358621204 [Eh]
	-----------------------------------------------------------

  Dipole Moment: [D]
     X:    -0.7433      Y:    -3.7916      Z:     0.0500     Total:     3.8641

*** Psi4 exiting successfully. Buy a developer a beer!
