                               Psi4 1.3.2 release

  ==> Input File <==

--------------------------------------------------------------------------
#psi4
#
memory 32 gb

molecule  {
0 1
  O        0.6831730     1.9514370    -0.1851230
  N        0.3221270    -0.3206750    -0.2979720
  C        1.7580560    -0.4955670    -0.5492050
  C       -0.1211040     1.0090560    -0.1118080
  C       -0.4973450    -1.4105120    -0.1972350
  C        2.5603930    -0.4317450     0.7423750
  C       -1.5372540     1.1223260     0.1526570
  C       -1.8319680    -1.2780450     0.0712850
  C       -2.3551590     0.0280850     0.2487950
  H        1.8855710    -1.4559800    -1.0561060
  H        2.0595230     0.3051280    -1.2266110
  H       -0.0197130    -2.3738180    -0.3527730
  H        2.4186300     0.5432120     1.2108420
  H        2.2423160    -1.2153800     1.4354410
  H        3.6255180    -0.5665000     0.5315230
  H       -1.9126600     2.1320090     0.2855670
  H       -2.3434130    -1.9968845     0.1266233
  H       -3.4140320     0.1624990     0.4585800
units angstrom
no_reorient  #important for SAPT in psi4, default
symmetry c1  #important for SAPT in psi4, default
}

set PROPERTIES_ORIGIN ["COM"]
properties('MP2/aug-cc-pvtz', properties = ['dipole'])
--------------------------------------------------------------------------

    Molecular point group: c1
  Charge       = 0
  Multiplicity = 1
  Basis Set: AUG-CC-PVTZ
    Blend: AUG-CC-PVTZ
  Basis Set: (AUG-CC-PVTZ AUX)
    Blend: AUG-CC-PVTZ-JKFIT

    Orbital Energies [Eh]
    ---------------------

    Doubly Occupied:

       1A    -20.505975     2A    -15.624910     3A    -11.349459
       4A    -11.308132     5A    -11.273466     6A    -11.269145
       7A    -11.236043     8A    -11.220966     9A    -11.216605
      10A     -1.368657    11A     -1.277889    12A     -1.122529
      13A     -1.032897    14A     -1.023629    15A     -0.896536
      16A     -0.877782    17A     -0.831075    18A     -0.731650
      19A     -0.705741    20A     -0.669641    21A     -0.645038
      22A     -0.614838    23A     -0.612020    24A     -0.606490
      25A     -0.567416    26A     -0.543054    27A     -0.529318
      28A     -0.525511    29A     -0.505603    30A     -0.474468
      31A     -0.420768    32A     -0.407043    33A     -0.308538

  @DF-RHF Final Energy:  -399.73596851509905

   => Energetics <=

    Nuclear Repulsion Energy =            438.6137371927418940
    One-Electron Energy =               -1412.0937497845634425
    Two-Electron Energy =                 573.7440440767226164
    Total Energy =                       -399.7359685150989890
  Basis Set: (AUG-CC-PVTZ AUX)
    Blend: AUG-CC-PVTZ-RI
    Molecular point group: c1

    Geometry (in Angstrom), charge = 0, multiplicity = 1:

       Center              X                  Y                   Z               Mass
    ------------   -----------------  -----------------  -----------------  -----------------
         O            0.717927902390     1.912879993915    -0.173527508069    15.994914619570
         N            0.356881902390    -0.359232006085    -0.286376508069    14.003074004430
         C            1.792810902390    -0.534124006085    -0.537609508069    12.000000000000
         C           -0.086349097610     0.970498993915    -0.100212508069    12.000000000000
         C           -0.462590097610    -1.449069006085    -0.185639508069    12.000000000000
         C            2.595147902390    -0.470302006085     0.753970491931    12.000000000000
         C           -1.502499097610     1.083768993915     0.164252491931    12.000000000000
         C           -1.797213097610    -1.316602006085     0.082880491931    12.000000000000
         C           -2.320404097610    -0.010472006085     0.260390491931    12.000000000000
         H            1.920325902390    -1.494537006085    -1.044510508069     1.007825032230
         H            2.094277902390     0.266570993915    -1.215015508069     1.007825032230
         H            0.015041902390    -2.412375006085    -0.341177508069     1.007825032230
         H            2.453384902390     0.504654993915     1.222437491931     1.007825032230
         H            2.277070902390    -1.253937006085     1.447036491931     1.007825032230
         H            3.660272902390    -0.605057006085     0.543118491931     1.007825032230
         H           -1.877905097610     2.093451993915     0.297162491931     1.007825032230
         H           -2.308658097610    -2.035441506085     0.138218791931     1.007825032230
         H           -3.379277097610     0.123941993915     0.470175491931     1.007825032230

  Basis Set: AUG-CC-PVTZ
    Blend: AUG-CC-PVTZ
  Basis Set: (AUG-CC-PVTZ AUX)
    Blend: AUG-CC-PVTZ-JKFIT
	 Reference Energy          =    -399.7359685150990458 [Eh]
	 Singles Energy            =      -0.0000000000000000 [Eh]
	 Same-Spin Energy          =      -0.4233010944329532 [Eh]
	 Opposite-Spin Energy      =      -1.3393377057027136 [Eh]
	 Correlation Energy        =      -1.7626388001356668 [Eh]
	 Total Energy              =    -401.4986073152347217 [Eh]

	 ================> DF-SCS-MP2 Energies <==================
	-----------------------------------------------------------
	 SCS Same-Spin Scale       =       0.3333333333333333 [-]
	 SCS Opposite-Spin Scale   =       1.2000000000000000 [-]
	 SCS Same-Spin Energy      =      -0.1411003648109844 [Eh]
	 SCS Opposite-Spin Energy  =      -1.6072052468432563 [Eh]
	 SCS Correlation Energy    =      -1.7483056116542406 [Eh]
	 SCS Total Energy          =    -401.4842741267532915 [Eh]
	-----------------------------------------------------------

  Dipole Moment: [D]
     X:    -0.7525      Y:    -3.8275      Z:     0.0287     Total:     3.9009

*** Psi4 exiting successfully. Buy a developer a beer!
