                               Psi4 1.3.2 release

  ==> Input File <==

--------------------------------------------------------------------------
#psi4
#
memory 32 gb

molecule  {
0 1
  O        0.6831730     1.9514370    -0.1851230
  N        0.3221270    -0.3206750    -0.2979720
  C        1.7580560    -0.4955670    -0.5492050
  C       -0.1176399     1.0593441    -0.1099867
  C       -0.4973450    -1.4105120    -0.1972350
  C        2.5603930    -0.4317450     0.7423750
  C       -1.5372540     1.1223260     0.1526570
  C       -1.8319680    -1.2780450     0.0712850
  C       -2.3551590     0.0280850     0.2487950
  H        1.8855710    -1.4559800    -1.0561060
  H        2.0595230     0.3051280    -1.2266110
  H       -0.0197130    -2.3738180    -0.3527730
  H        2.4186300     0.5432120     1.2108420
  H        2.2423160    -1.2153800     1.4354410
  H        3.6255180    -0.5665000     0.5315230
  H       -1.9126600     2.1320090     0.2855670
  H       -2.4591310    -2.1595270     0.1391440
  H       -3.4140320     0.1624990     0.4585800
units angstrom
no_reorient  #important for SAPT in psi4, default
symmetry c1  #important for SAPT in psi4, default
}

set PROPERTIES_ORIGIN ["COM"]
properties('MP2/aug-cc-pvtz', properties = ['dipole'])
--------------------------------------------------------------------------

    Molecular point group: c1
  Charge       = 0
  Multiplicity = 1
  Basis Set: AUG-CC-PVTZ
    Blend: AUG-CC-PVTZ
  Basis Set: (AUG-CC-PVTZ AUX)
    Blend: AUG-CC-PVTZ-JKFIT

    Orbital Energies [Eh]
    ---------------------

    Doubly Occupied:

       1A    -20.517386     2A    -15.618462     3A    -11.352299
       4A    -11.306721     5A    -11.271259     6A    -11.270384
       7A    -11.235092     8A    -11.234047     9A    -11.220270
      10A     -1.392304    11A     -1.275621    12A     -1.115432
      13A     -1.029731    14A     -1.012117    15A     -0.893750
      16A     -0.859958    17A     -0.824482    18A     -0.710294
      19A     -0.700881    20A     -0.667773    21A     -0.637336
      22A     -0.616724    23A     -0.610287    24A     -0.603827
      25A     -0.564090    26A     -0.538072    27A     -0.533512
      28A     -0.527036    29A     -0.503896    30A     -0.483482
      31A     -0.425572    32A     -0.404186    33A     -0.306197

  @DF-RHF Final Energy:  -399.76978810613707

   => Energetics <=

    Nuclear Repulsion Energy =            437.1220677257041984
    One-Electron Energy =               -1409.2587511492108661
    Two-Electron Energy =                 572.3668953173695400
    Total Energy =                       -399.7697881061370708
  Basis Set: (AUG-CC-PVTZ AUX)
    Blend: AUG-CC-PVTZ-RI
    Molecular point group: c1

    Geometry (in Angstrom), charge = 0, multiplicity = 1:

       Center              X                  Y                   Z               Mass
    ------------   -----------------  -----------------  -----------------  -----------------
         O            0.718537760718     1.909308468100    -0.173807630919    15.994914619570
         N            0.357491760718    -0.362803531900    -0.286656630919    14.003074004430
         C            1.793420760718    -0.537695531900    -0.537889630919    12.000000000000
         C           -0.082275139282     1.017215568100    -0.098671330919    12.000000000000
         C           -0.461980239282    -1.452640531900    -0.185919630919    12.000000000000
         C            2.595757760718    -0.473873531900     0.753690369081    12.000000000000
         C           -1.501889239282     1.080197468100     0.163972369081    12.000000000000
         C           -1.796603239282    -1.320173531900     0.082600369081    12.000000000000
         C           -2.319794239282    -0.014043531900     0.260110369081    12.000000000000
         H            1.920935760718    -1.498108531900    -1.044790630919     1.007825032230
         H            2.094887760718     0.262999468100    -1.215295630919     1.007825032230
         H            0.015651760718    -2.415946531900    -0.341457630919     1.007825032230
         H            2.453994760718     0.501083468100     1.222157369081     1.007825032230
         H            2.277680760718    -1.257508531900     1.446756369081     1.007825032230
         H            3.660882760718    -0.608628531900     0.542838369081     1.007825032230
         H           -1.877295239282     2.089880468100     0.296882369081     1.007825032230
         H           -2.423766239282    -2.201655531900     0.150459369081     1.007825032230
         H           -3.378667239282     0.120370468100     0.469895369081     1.007825032230

  Basis Set: AUG-CC-PVTZ
    Blend: AUG-CC-PVTZ
  Basis Set: (AUG-CC-PVTZ AUX)
    Blend: AUG-CC-PVTZ-JKFIT
	 Reference Energy          =    -399.7697881061370708 [Eh]
	 Singles Energy            =      -0.0000000000000000 [Eh]
	 Same-Spin Energy          =      -0.4231332330701578 [Eh]
	 Opposite-Spin Energy      =      -1.3390947074812232 [Eh]
	 Correlation Energy        =      -1.7622279405513810 [Eh]
	 Total Energy              =    -401.5320160466884545 [Eh]

	 ================> DF-SCS-MP2 Energies <==================
	-----------------------------------------------------------
	 SCS Same-Spin Scale       =       0.3333333333333333 [-]
	 SCS Opposite-Spin Scale   =       1.2000000000000000 [-]
	 SCS Same-Spin Energy      =      -0.1410444110233859 [Eh]
	 SCS Opposite-Spin Energy  =      -1.6069136489774678 [Eh]
	 SCS Correlation Energy    =      -1.7479580600008537 [Eh]
	 SCS Total Energy          =    -401.5177461661378970 [Eh]
	-----------------------------------------------------------

  Dipole Moment: [D]
     X:    -0.5920      Y:    -3.4542      Z:     0.0188     Total:     3.5046

*** Psi4 exiting successfully. Buy a developer a beer!
