                               Psi4 1.3.2 release

  ==> Input File <==

--------------------------------------------------------------------------
#psi4
#
memory 32 gb

molecule  {
0 1
  O        0.6831730     1.9514370    -0.1851230
  N        0.3221270    -0.3206750    -0.2979720
  C        1.7410954    -0.5964658    -0.5550038
  C       -0.1211040     1.0090560    -0.1118080
  C       -0.4973450    -1.4105120    -0.1972350
  C        2.5603930    -0.4317450     0.7423750
  C       -1.5372540     1.1223260     0.1526570
  C       -1.8319680    -1.2780450     0.0712850
  C       -2.3551590     0.0280850     0.2487950
  H        1.8855710    -1.4559800    -1.0561060
  H        2.0595230     0.3051280    -1.2266110
  H       -0.0197130    -2.3738180    -0.3527730
  H        2.4186300     0.5432120     1.2108420
  H        2.2423160    -1.2153800     1.4354410
  H        3.6255180    -0.5665000     0.5315230
  H       -1.9126600     2.1320090     0.2855670
  H       -2.4591310    -2.1595270     0.1391440
  H       -3.4140320     0.1624990     0.4585800
units angstrom
no_reorient  #important for SAPT in psi4, default
symmetry c1  #important for SAPT in psi4, default
}

set PROPERTIES_ORIGIN ["COM"]
properties('MP2/aug-cc-pvtz', properties = ['dipole'])
--------------------------------------------------------------------------

    Molecular point group: c1
  Charge       = 0
  Multiplicity = 1
  Basis Set: AUG-CC-PVTZ
    Blend: AUG-CC-PVTZ
  Basis Set: (AUG-CC-PVTZ AUX)
    Blend: AUG-CC-PVTZ-JKFIT

    Orbital Energies [Eh]
    ---------------------

    Doubly Occupied:

       1A    -20.506312     2A    -15.626529     3A    -11.351383
       4A    -11.307641     5A    -11.273672     6A    -11.270681
       7A    -11.239546     8A    -11.237698     9A    -11.222714
      10A     -1.368290    11A     -1.279673    12A     -1.118681
      13A     -1.029125    14A     -1.017722    15A     -0.895207
      16A     -0.874847    17A     -0.825862    18A     -0.718628
      19A     -0.697565    20A     -0.673210    21A     -0.637173
      22A     -0.616147    23A     -0.608076    24A     -0.601779
      25A     -0.560252    26A     -0.541262    27A     -0.537458
      28A     -0.526180    29A     -0.489583    30A     -0.475963
      31A     -0.421283    32A     -0.404847    33A     -0.308457

  @DF-RHF Final Energy:  -399.75810471287190

   => Energetics <=

    Nuclear Repulsion Energy =            437.0479868890668627
    One-Electron Energy =               -1409.0852911332160602
    Two-Electron Energy =                 572.2791995312774134
    Total Energy =                       -399.7581047128718410
  Basis Set: (AUG-CC-PVTZ AUX)
    Blend: AUG-CC-PVTZ-RI
    Molecular point group: c1

    Geometry (in Angstrom), charge = 0, multiplicity = 1:

       Center              X                  Y                   Z               Mass
    ------------   -----------------  -----------------  -----------------  -----------------
         O            0.720529306657     1.924050210050    -0.173064619800    15.994914619570
         N            0.359483306657    -0.348061789950    -0.285913619800    14.003074004430
         C            1.778451706657    -0.623852589950    -0.542945419800    12.000000000000
         C           -0.083747693343     0.981669210050    -0.099749619800    12.000000000000
         C           -0.459988693343    -1.437898789950    -0.185176619800    12.000000000000
         C            2.597749306657    -0.459131789950     0.754433380200    12.000000000000
         C           -1.499897693343     1.094939210050     0.164715380200    12.000000000000
         C           -1.794611693343    -1.305431789950     0.083343380200    12.000000000000
         C           -2.317802693343     0.000698210050     0.260853380200    12.000000000000
         H            1.922927306657    -1.483366789950    -1.044047619800     1.007825032230
         H            2.096879306657     0.277741210050    -1.214552619800     1.007825032230
         H            0.017643306657    -2.401204789950    -0.340714619800     1.007825032230
         H            2.455986306657     0.515825210050     1.222900380200     1.007825032230
         H            2.279672306657    -1.242766789950     1.447499380200     1.007825032230
         H            3.662874306657    -0.593886789950     0.543581380200     1.007825032230
         H           -1.875303693343     2.104622210050     0.297625380200     1.007825032230
         H           -2.421774693343    -2.186913789950     0.151202380200     1.007825032230
         H           -3.376675693343     0.135112210050     0.470638380200     1.007825032230

  Basis Set: AUG-CC-PVTZ
    Blend: AUG-CC-PVTZ
  Basis Set: (AUG-CC-PVTZ AUX)
    Blend: AUG-CC-PVTZ-JKFIT
	 Reference Energy          =    -399.7581047128718978 [Eh]
	 Singles Energy            =      -0.0000000000000000 [Eh]
	 Same-Spin Energy          =      -0.4237529554249014 [Eh]
	 Opposite-Spin Energy      =      -1.3406455885050437 [Eh]
	 Correlation Energy        =      -1.7643985439299450 [Eh]
	 Total Energy              =    -401.5225032568018264 [Eh]

	 ================> DF-SCS-MP2 Energies <==================
	-----------------------------------------------------------
	 SCS Same-Spin Scale       =       0.3333333333333333 [-]
	 SCS Opposite-Spin Scale   =       1.2000000000000000 [-]
	 SCS Same-Spin Energy      =      -0.1412509851416338 [Eh]
	 SCS Opposite-Spin Energy  =      -1.6087747062060525 [Eh]
	 SCS Correlation Energy    =      -1.7500256913476862 [Eh]
	 SCS Total Energy          =    -401.5081304042195711 [Eh]
	-----------------------------------------------------------

  Dipole Moment: [D]
     X:    -0.7727      Y:    -3.8726      Z:     0.0262     Total:     3.9491

*** Psi4 exiting successfully. Buy a developer a beer!
