                               Psi4 1.3.2 release

  ==> Input File <==

--------------------------------------------------------------------------
#psi4
#
memory 32 gb

molecule  {
0 1
  O        0.6831730     1.9514370    -0.1851230
  N        0.3035008    -0.3065011    -0.2933234
  C        1.7580560    -0.4955670    -0.5492050
  C       -0.1211040     1.0090560    -0.1118080
  C       -0.4973450    -1.4105120    -0.1972350
  C        2.5603930    -0.4317450     0.7423750
  C       -1.5372540     1.1223260     0.1526570
  C       -1.8319680    -1.2780450     0.0712850
  C       -2.3551590     0.0280850     0.2487950
  H        1.8855710    -1.4559800    -1.0561060
  H        2.0595230     0.3051280    -1.2266110
  H       -0.0197130    -2.3738180    -0.3527730
  H        2.4186300     0.5432120     1.2108420
  H        2.2423160    -1.2153800     1.4354410
  H        3.6255180    -0.5665000     0.5315230
  H       -1.9126600     2.1320090     0.2855670
  H       -2.4591310    -2.1595270     0.1391440
  H       -3.4140320     0.1624990     0.4585800
units angstrom
no_reorient  #important for SAPT in psi4, default
symmetry c1  #important for SAPT in psi4, default
}

set PROPERTIES_ORIGIN ["COM"]
properties('MP2/aug-cc-pvtz', properties = ['dipole'])
--------------------------------------------------------------------------

    Molecular point group: c1
  Charge       = 0
  Multiplicity = 1
  Basis Set: AUG-CC-PVTZ
    Blend: AUG-CC-PVTZ
  Basis Set: (AUG-CC-PVTZ AUX)
    Blend: AUG-CC-PVTZ-JKFIT

    Orbital Energies [Eh]
    ---------------------

    Doubly Occupied:

       1A    -20.503685     2A    -15.625573     3A    -11.347264
       4A    -11.308386     5A    -11.275669     6A    -11.269639
       7A    -11.240556     8A    -11.236787     9A    -11.221827
      10A     -1.369181    11A     -1.277473    12A     -1.117441
      13A     -1.030972    14A     -1.020931    15A     -0.893659
      16A     -0.873133    17A     -0.824219    18A     -0.715547
      19A     -0.699659    20A     -0.666305    21A     -0.639254
      22A     -0.613406    23A     -0.608595    24A     -0.605179
      25A     -0.559986    26A     -0.539132    27A     -0.529173
      28A     -0.523514    29A     -0.506423    30A     -0.474213
      31A     -0.419996    32A     -0.407928    33A     -0.309399

  @DF-RHF Final Energy:  -399.77135120356661

   => Energetics <=

    Nuclear Repulsion Energy =            437.6112433693128878
    One-Electron Energy =               -1410.2569803883795885
    Two-Electron Energy =                 572.8743858155000908
    Total Energy =                       -399.7713512035666099
  Basis Set: (AUG-CC-PVTZ AUX)
    Blend: AUG-CC-PVTZ-RI
    Molecular point group: c1

    Geometry (in Angstrom), charge = 0, multiplicity = 1:

       Center              X                  Y                   Z               Mass
    ------------   -----------------  -----------------  -----------------  -----------------
         O            0.720994875808     1.912599150222    -0.174158972815    15.994914619570
         N            0.341322675808    -0.345338949778    -0.282359372815    14.003074004430
         C            1.795877875808    -0.534404849778    -0.538240972815    12.000000000000
         C           -0.083282124192     0.970218150222    -0.100843972815    12.000000000000
         C           -0.459523124192    -1.449349849778    -0.186270972815    12.000000000000
         C            2.598214875808    -0.470582849778     0.753339027185    12.000000000000
         C           -1.499432124192     1.083488150222     0.163621027185    12.000000000000
         C           -1.794146124192    -1.316882849778     0.082249027185    12.000000000000
         C           -2.317337124192    -0.010752849778     0.259759027185    12.000000000000
         H            1.923392875808    -1.494817849778    -1.045141972815     1.007825032230
         H            2.097344875808     0.266290150222    -1.215646972815     1.007825032230
         H            0.018108875808    -2.412655849778    -0.341808972815     1.007825032230
         H            2.456451875808     0.504374150222     1.221806027185     1.007825032230
         H            2.280137875808    -1.254217849778     1.446405027185     1.007825032230
         H            3.663339875808    -0.605337849778     0.542487027185     1.007825032230
         H           -1.874838124192     2.093171150222     0.296531027185     1.007825032230
         H           -2.421309124192    -2.198364849778     0.150108027185     1.007825032230
         H           -3.376210124192     0.123661150222     0.469544027185     1.007825032230

  Basis Set: AUG-CC-PVTZ
    Blend: AUG-CC-PVTZ
  Basis Set: (AUG-CC-PVTZ AUX)
    Blend: AUG-CC-PVTZ-JKFIT
	 Reference Energy          =    -399.7713512035666099 [Eh]
	 Singles Energy            =      -0.0000000000000000 [Eh]
	 Same-Spin Energy          =      -0.4233264803127201 [Eh]
	 Opposite-Spin Energy      =      -1.3396704548560494 [Eh]
	 Correlation Energy        =      -1.7629969351687695 [Eh]
	 Total Energy              =    -401.5343481387353677 [Eh]

	 ================> DF-SCS-MP2 Energies <==================
	-----------------------------------------------------------
	 SCS Same-Spin Scale       =       0.3333333333333333 [-]
	 SCS Opposite-Spin Scale   =       1.2000000000000000 [-]
	 SCS Same-Spin Energy      =      -0.1411088267709067 [Eh]
	 SCS Opposite-Spin Energy  =      -1.6076045458272592 [Eh]
	 SCS Correlation Energy    =      -1.7487133725981658 [Eh]
	 SCS Total Energy          =    -401.5200645761647706 [Eh]
	-----------------------------------------------------------

  Dipole Moment: [D]
     X:    -0.7453      Y:    -3.8905      Z:     0.0286     Total:     3.9613

*** Psi4 exiting successfully. Buy a developer a beer!
