                               Psi4 1.3.2 release

  ==> Input File <==

--------------------------------------------------------------------------
#psi4
#
memory 32 gb

molecule  {
0 1
  O        0.6831730     1.9514370    -0.1851230
  N        0.3221270    -0.3206750    -0.2979720
  C        1.7580560    -0.4955670    -0.5492050
  C       -0.1332020     0.9089548    -0.1144821
  C       -0.4973450    -1.4105120    -0.1972350
  C        2.5603930    -0.4317450     0.7423750
  C       -1.5372540     1.1223260     0.1526570
  C       -1.8319680    -1.2780450     0.0712850
  C       -2.3551590     0.0280850     0.2487950
  H        1.8855710    -1.4559800    -1.0561060
  H        2.0595230     0.3051280    -1.2266110
  H       -0.0197130    -2.3738180    -0.3527730
  H        2.4186300     0.5432120     1.2108420
  H        2.2423160    -1.2153800     1.4354410
  H        3.6255180    -0.5665000     0.5315230
  H       -1.9126600     2.1320090     0.2855670
  H       -2.4591310    -2.1595270     0.1391440
  H       -3.4140320     0.1624990     0.4585800
units angstrom
no_reorient  #important for SAPT in psi4, default
symmetry c1  #important for SAPT in psi4, default
}

set PROPERTIES_ORIGIN ["COM"]
properties('MP2/aug-cc-pvtz', properties = ['dipole'])
--------------------------------------------------------------------------

    Molecular point group: c1
  Charge       = 0
  Multiplicity = 1
  Basis Set: AUG-CC-PVTZ
    Blend: AUG-CC-PVTZ
  Basis Set: (AUG-CC-PVTZ AUX)
    Blend: AUG-CC-PVTZ-JKFIT

    Orbital Energies [Eh]
    ---------------------

    Doubly Occupied:

       1A    -20.484065     2A    -15.637275     3A    -11.343423
       4A    -11.312166     5A    -11.278721     6A    -11.271381
       7A    -11.250367     8A    -11.244360     9A    -11.222830
      10A     -1.358834    11A     -1.254178    12A     -1.126967
      13A     -1.034511    14A     -1.030614    15A     -0.899902
      16A     -0.890821    17A     -0.825507    18A     -0.723919
      19A     -0.701418    20A     -0.670744    21A     -0.647859
      22A     -0.623842    23A     -0.612431    24A     -0.591059
      25A     -0.551667    26A     -0.539327    27A     -0.526166
      28A     -0.520383    29A     -0.508631    30A     -0.452007
      31A     -0.414988    32A     -0.402685    33A     -0.312988

  @DF-RHF Final Energy:  -399.75618101929427

   => Energetics <=

    Nuclear Repulsion Energy =            438.1926241171228185
    One-Electron Energy =               -1411.3655407142757667
    Two-Electron Energy =                 573.4167355778586170
    Total Energy =                       -399.7561810192943312
  Basis Set: (AUG-CC-PVTZ AUX)
    Blend: AUG-CC-PVTZ-RI
    Molecular point group: c1

    Geometry (in Angstrom), charge = 0, multiplicity = 1:

       Center              X                  Y                   Z               Mass
    ------------   -----------------  -----------------  -----------------  -----------------
         O            0.720055170377     1.923972438673    -0.173369299114    15.994914619570
         N            0.359009170377    -0.348139561327    -0.286218299114    14.003074004430
         C            1.794938170377    -0.523031561327    -0.537451299114    12.000000000000
         C           -0.096319829623     0.881490238673    -0.102728399114    12.000000000000
         C           -0.460462829623    -1.437976561327    -0.185481299114    12.000000000000
         C            2.597275170377    -0.459209561327     0.754128700886    12.000000000000
         C           -1.500371829623     1.094861438673     0.164410700886    12.000000000000
         C           -1.795085829623    -1.305509561327     0.083038700886    12.000000000000
         C           -2.318276829623     0.000620438673     0.260548700886    12.000000000000
         H            1.922453170377    -1.483444561327    -1.044352299114     1.007825032230
         H            2.096405170377     0.277663438673    -1.214857299114     1.007825032230
         H            0.017169170377    -2.401282561327    -0.341019299114     1.007825032230
         H            2.455512170377     0.515747438673     1.222595700886     1.007825032230
         H            2.279198170377    -1.242844561327     1.447194700886     1.007825032230
         H            3.662400170377    -0.593964561327     0.543276700886     1.007825032230
         H           -1.875777829623     2.104544438673     0.297320700886     1.007825032230
         H           -2.422248829623    -2.186991561327     0.150897700886     1.007825032230
         H           -3.377149829623     0.135034438673     0.470333700886     1.007825032230

  Basis Set: AUG-CC-PVTZ
    Blend: AUG-CC-PVTZ
  Basis Set: (AUG-CC-PVTZ AUX)
    Blend: AUG-CC-PVTZ-JKFIT
	 Reference Energy          =    -399.7561810192942744 [Eh]
	 Singles Energy            =      -0.0000000000000000 [Eh]
	 Same-Spin Energy          =      -0.4243040894900309 [Eh]
	 Opposite-Spin Energy      =      -1.3417052119838502 [Eh]
	 Correlation Energy        =      -1.7660093014738811 [Eh]
	 Total Energy              =    -401.5221903207681748 [Eh]

	 ================> DF-SCS-MP2 Energies <==================
	-----------------------------------------------------------
	 SCS Same-Spin Scale       =       0.3333333333333333 [-]
	 SCS Opposite-Spin Scale   =       1.2000000000000000 [-]
	 SCS Same-Spin Energy      =      -0.1414346964966769 [Eh]
	 SCS Opposite-Spin Energy  =      -1.6100462543806202 [Eh]
	 SCS Correlation Energy    =      -1.7514809508772973 [Eh]
	 SCS Total Energy          =    -401.5076619701715686 [Eh]
	-----------------------------------------------------------

  Dipole Moment: [D]
     X:    -1.0885      Y:    -4.4846      Z:     0.0625     Total:     4.6152

*** Psi4 exiting successfully. Buy a developer a beer!
