                               Psi4 1.3.2 release

  ==> Input File <==

--------------------------------------------------------------------------
#psi4
#
memory 32 gb

molecule  {
0 1
  O        0.6831730     1.9514370    -0.1851230
  N        0.4284492    -0.4125317    -0.3251706
  C        1.7580560    -0.4955670    -0.5492050
  C       -0.1211040     1.0090560    -0.1118080
  C       -0.4973450    -1.4105120    -0.1972350
  C        2.5603930    -0.4317450     0.7423750
  C       -1.5372540     1.1223260     0.1526570
  C       -1.8319680    -1.2780450     0.0712850
  C       -2.3551590     0.0280850     0.2487950
  H        1.8855710    -1.4559800    -1.0561060
  H        2.0595230     0.3051280    -1.2266110
  H       -0.0197130    -2.3738180    -0.3527730
  H        2.4186300     0.5432120     1.2108420
  H        2.2423160    -1.2153800     1.4354410
  H        3.6255180    -0.5665000     0.5315230
  H       -1.9126600     2.1320090     0.2855670
  H       -2.4591310    -2.1595270     0.1391440
  H       -3.4140320     0.1624990     0.4585800
units angstrom
no_reorient  #important for SAPT in psi4, default
symmetry c1  #important for SAPT in psi4, default
}

set PROPERTIES_ORIGIN ["COM"]
properties('MP2/aug-cc-pvtz', properties = ['dipole'])
--------------------------------------------------------------------------

    Molecular point group: c1
  Charge       = 0
  Multiplicity = 1
  Basis Set: AUG-CC-PVTZ
    Blend: AUG-CC-PVTZ
  Basis Set: (AUG-CC-PVTZ AUX)
    Blend: AUG-CC-PVTZ-JKFIT

    Orbital Energies [Eh]
    ---------------------

    Doubly Occupied:

       1A    -20.521347     2A    -15.623358     3A    -11.363555
       4A    -11.312617     5A    -11.275801     6A    -11.263321
       7A    -11.238878     8A    -11.238422     9A    -11.217174
      10A     -1.370601    11A     -1.288908    12A     -1.128836
      13A     -1.035969    14A     -1.003126    15A     -0.907937
      16A     -0.851875    17A     -0.830133    18A     -0.713305
      19A     -0.703180    20A     -0.676318    21A     -0.644337
      22A     -0.617621    23A     -0.608966    24A     -0.595232
      25A     -0.566635    26A     -0.538108    27A     -0.533768
      28A     -0.529121    29A     -0.499352    30A     -0.478104
      31A     -0.423129    32A     -0.404428    33A     -0.305293

  @DF-RHF Final Energy:  -399.74456127736431

   => Energetics <=

    Nuclear Repulsion Energy =            436.5184320455562101
    One-Electron Energy =               -1407.9084746603029998
    Two-Electron Energy =                 571.6454813373825345
    Total Energy =                       -399.7445612773642551
  Basis Set: (AUG-CC-PVTZ AUX)
    Blend: AUG-CC-PVTZ-RI
    Molecular point group: c1

    Geometry (in Angstrom), charge = 0, multiplicity = 1:

       Center              X                  Y                   Z               Mass
    ------------   -----------------  -----------------  -----------------  -----------------
         O            0.706777891643     1.924663613323    -0.170535307861    15.994914619570
         N            0.452054091643    -0.439305086677    -0.310582907861    14.003074004430
         C            1.781660891643    -0.522340386677    -0.534617307861    12.000000000000
         C           -0.097499108357     0.982282613323    -0.097220307861    12.000000000000
         C           -0.473740108357    -1.437285386677    -0.182647307861    12.000000000000
         C            2.583997891643    -0.458518386677     0.756962692139    12.000000000000
         C           -1.513649108357     1.095552613323     0.167244692139    12.000000000000
         C           -1.808363108357    -1.304818386677     0.085872692139    12.000000000000
         C           -2.331554108357     0.001311613323     0.263382692139    12.000000000000
         H            1.909175891643    -1.482753386677    -1.041518307861     1.007825032230
         H            2.083127891643     0.278354613323    -1.212023307861     1.007825032230
         H            0.003891891643    -2.400591386677    -0.338185307861     1.007825032230
         H            2.442234891643     0.516438613323     1.225429692139     1.007825032230
         H            2.265920891643    -1.242153386677     1.450028692139     1.007825032230
         H            3.649122891643    -0.593273386677     0.546110692139     1.007825032230
         H           -1.889055108357     2.105235613323     0.300154692139     1.007825032230
         H           -2.435526108357    -2.186300386677     0.153731692139     1.007825032230
         H           -3.390427108357     0.135725613323     0.473167692139     1.007825032230

  Basis Set: AUG-CC-PVTZ
    Blend: AUG-CC-PVTZ
  Basis Set: (AUG-CC-PVTZ AUX)
    Blend: AUG-CC-PVTZ-JKFIT
	 Reference Energy          =    -399.7445612773643120 [Eh]
	 Singles Energy            =      -0.0000000000000000 [Eh]
	 Same-Spin Energy          =      -0.4255578013670778 [Eh]
	 Opposite-Spin Energy      =      -1.3434549801629392 [Eh]
	 Correlation Energy        =      -1.7690127815300170 [Eh]
	 Total Energy              =    -401.5135740588943349 [Eh]

	 ================> DF-SCS-MP2 Energies <==================
	-----------------------------------------------------------
	 SCS Same-Spin Scale       =       0.3333333333333333 [-]
	 SCS Opposite-Spin Scale   =       1.2000000000000000 [-]
	 SCS Same-Spin Energy      =      -0.1418526004556926 [Eh]
	 SCS Opposite-Spin Energy  =      -1.6121459761955270 [Eh]
	 SCS Correlation Energy    =      -1.7539985766512196 [Eh]
	 SCS Total Energy          =    -401.4985598540155252 [Eh]
	-----------------------------------------------------------

  Dipole Moment: [D]
     X:    -0.8129      Y:    -3.3414      Z:     0.0563     Total:     3.4393

*** Psi4 exiting successfully. Buy a developer a beer!
