                               Psi4 1.3.2 release

  ==> Input File <==

--------------------------------------------------------------------------
#psi4
#
memory 32 gb

molecule  {
0 1
  O        0.6831730     1.9514370    -0.1851230
  N        0.3221270    -0.3206750    -0.2979720
  C        1.7580560    -0.4955670    -0.5492050
  C       -0.1211040     1.0090560    -0.1118080
  C       -0.4973450    -1.4105120    -0.1972350
  C        2.5603930    -0.4317450     0.7423750
  C       -1.4300949     1.0305959     0.1271287
  C       -1.8319680    -1.2780450     0.0712850
  C       -2.3551590     0.0280850     0.2487950
  H        1.8855710    -1.4559800    -1.0561060
  H        2.0595230     0.3051280    -1.2266110
  H       -0.0197130    -2.3738180    -0.3527730
  H        2.4186300     0.5432120     1.2108420
  H        2.2423160    -1.2153800     1.4354410
  H        3.6255180    -0.5665000     0.5315230
  H       -1.9126600     2.1320090     0.2855670
  H       -2.4591310    -2.1595270     0.1391440
  H       -3.4140320     0.1624990     0.4585800
units angstrom
no_reorient  #important for SAPT in psi4, default
symmetry c1  #important for SAPT in psi4, default
}

set PROPERTIES_ORIGIN ["COM"]
properties('MP2/aug-cc-pvtz', properties = ['dipole'])
--------------------------------------------------------------------------

    Molecular point group: c1
  Charge       = 0
  Multiplicity = 1
  Basis Set: AUG-CC-PVTZ
    Blend: AUG-CC-PVTZ
  Basis Set: (AUG-CC-PVTZ AUX)
    Blend: AUG-CC-PVTZ-JKFIT

    Orbital Energies [Eh]
    ---------------------

    Doubly Occupied:

       1A    -20.497716     2A    -15.627689     3A    -11.336629
       4A    -11.311074     5A    -11.279047     6A    -11.273253
       7A    -11.242246     8A    -11.234858     9A    -11.221070
      10A     -1.368219    11A     -1.279142    12A     -1.127328
      13A     -1.037828    14A     -1.024961    15A     -0.907645
      16A     -0.863420    17A     -0.834321    18A     -0.715243
      19A     -0.709476    20A     -0.665787    21A     -0.632282
      22A     -0.616631    23A     -0.606905    24A     -0.604737
      25A     -0.569744    26A     -0.535636    27A     -0.528489
      28A     -0.508906    29A     -0.490336    30A     -0.474827
      31A     -0.421871    32A     -0.406982    33A     -0.312978

  @DF-RHF Final Energy:  -399.74267193314762

   => Energetics <=

    Nuclear Repulsion Energy =            440.1772709874466614
    One-Electron Energy =               -1415.3053400484739086
    Two-Electron Energy =                 575.3853971278795143
    Total Energy =                       -399.7426719331476761
  Basis Set: (AUG-CC-PVTZ AUX)
    Blend: AUG-CC-PVTZ-RI
    Molecular point group: c1

    Geometry (in Angstrom), charge = 0, multiplicity = 1:

       Center              X                  Y                   Z               Mass
    ------------   -----------------  -----------------  -----------------  -----------------
         O            0.708426799177     1.923156199990    -0.171140860547    15.994914619570
         N            0.347380799177    -0.348955800010    -0.283989860547    14.003074004430
         C            1.783309799177    -0.523847800010    -0.535222860547    12.000000000000
         C           -0.095850200823     0.980775199990    -0.097825860547    12.000000000000
         C           -0.472091200823    -1.438792800010    -0.183252860547    12.000000000000
         C            2.585646799177    -0.460025800010     0.756357139453    12.000000000000
         C           -1.404841100823     1.002315099990     0.141110839453    12.000000000000
         C           -1.806714200823    -1.306325800010     0.085267139453    12.000000000000
         C           -2.329905200823    -0.000195800010     0.262777139453    12.000000000000
         H            1.910824799177    -1.484260800010    -1.042123860547     1.007825032230
         H            2.084776799177     0.276847199990    -1.212628860547     1.007825032230
         H            0.005540799177    -2.402098800010    -0.338790860547     1.007825032230
         H            2.443883799177     0.514931199990     1.224824139453     1.007825032230
         H            2.267569799177    -1.243660800010     1.449423139453     1.007825032230
         H            3.650771799177    -0.594780800010     0.545505139453     1.007825032230
         H           -1.887406200823     2.103728199990     0.299549139453     1.007825032230
         H           -2.433877200823    -2.187807800010     0.153126139453     1.007825032230
         H           -3.388778200823     0.134218199990     0.472562139453     1.007825032230

  Basis Set: AUG-CC-PVTZ
    Blend: AUG-CC-PVTZ
  Basis Set: (AUG-CC-PVTZ AUX)
    Blend: AUG-CC-PVTZ-JKFIT
	 Reference Energy          =    -399.7426719331476193 [Eh]
	 Singles Energy            =      -0.0000000000000000 [Eh]
	 Same-Spin Energy          =      -0.4264848911281047 [Eh]
	 Opposite-Spin Energy      =      -1.3431314183970804 [Eh]
	 Correlation Energy        =      -1.7696163095251851 [Eh]
	 Total Energy              =    -401.5122882426728097 [Eh]

	 ================> DF-SCS-MP2 Energies <==================
	-----------------------------------------------------------
	 SCS Same-Spin Scale       =       0.3333333333333333 [-]
	 SCS Opposite-Spin Scale   =       1.2000000000000000 [-]
	 SCS Same-Spin Energy      =      -0.1421616303760349 [Eh]
	 SCS Opposite-Spin Energy  =      -1.6117577020764964 [Eh]
	 SCS Correlation Energy    =      -1.7539193324525313 [Eh]
	 SCS Total Energy          =    -401.4965912656001592 [Eh]
	-----------------------------------------------------------

  Dipole Moment: [D]
     X:    -0.9121      Y:    -4.1112      Z:     0.0483     Total:     4.2115

*** Psi4 exiting successfully. Buy a developer a beer!
