                               Psi4 1.3.2 release

  ==> Input File <==

--------------------------------------------------------------------------
#psi4
#
memory 32 gb

molecule  {
0 1
  O        0.6990940     1.9372925    -0.1890792
  N        0.3221270    -0.3206750    -0.2979720
  C        1.7580560    -0.4955670    -0.5492050
  C       -0.1211040     1.0090560    -0.1118080
  C       -0.4973450    -1.4105120    -0.1972350
  C        2.5603930    -0.4317450     0.7423750
  C       -1.5372540     1.1223260     0.1526570
  C       -1.8319680    -1.2780450     0.0712850
  C       -2.3551590     0.0280850     0.2487950
  H        1.8855710    -1.4559800    -1.0561060
  H        2.0595230     0.3051280    -1.2266110
  H       -0.0197130    -2.3738180    -0.3527730
  H        2.4186300     0.5432120     1.2108420
  H        2.2423160    -1.2153800     1.4354410
  H        3.6255180    -0.5665000     0.5315230
  H       -1.9126600     2.1320090     0.2855670
  H       -2.4591310    -2.1595270     0.1391440
  H       -3.4140320     0.1624990     0.4585800
units angstrom
no_reorient  #important for SAPT in psi4, default
symmetry c1  #important for SAPT in psi4, default
}

set PROPERTIES_ORIGIN ["COM"]
properties('MP2/aug-cc-pvtz', properties = ['dipole'])
--------------------------------------------------------------------------

    Molecular point group: c1
  Charge       = 0
  Multiplicity = 1
  Basis Set: AUG-CC-PVTZ
    Blend: AUG-CC-PVTZ
  Basis Set: (AUG-CC-PVTZ AUX)
    Blend: AUG-CC-PVTZ-JKFIT

    Orbital Energies [Eh]
    ---------------------

    Doubly Occupied:

       1A    -20.505882     2A    -15.624902     3A    -11.349854
       4A    -11.308839     5A    -11.273182     6A    -11.271238
       7A    -11.240049     8A    -11.237577     9A    -11.220647
      10A     -1.369481    11A     -1.277383    12A     -1.119236
      13A     -1.031300    14A     -1.017841    15A     -0.895577
      16A     -0.870034    17A     -0.824792    18A     -0.714313
      19A     -0.700620    20A     -0.667415    21A     -0.639883
      22A     -0.613809    23A     -0.607151    24A     -0.605060
      25A     -0.560454    26A     -0.538435    27A     -0.529513
      28A     -0.525544    29A     -0.505065    30A     -0.474687
      31A     -0.421206    32A     -0.407681    33A     -0.308926

  @DF-RHF Final Energy:  -399.77136903018942

   => Energetics <=

    Nuclear Repulsion Energy =            437.6077530766588097
    One-Electron Energy =               -1410.2430958138704682
    Two-Electron Energy =                 572.8639737070221827
    Total Energy =                       -399.7713690301894758
  Basis Set: (AUG-CC-PVTZ AUX)
    Blend: AUG-CC-PVTZ-RI
    Molecular point group: c1

    Geometry (in Angstrom), charge = 0, multiplicity = 1:

       Center              X                  Y                   Z               Mass
    ------------   -----------------  -----------------  -----------------  -----------------
         O            0.732727318596     1.901905724522    -0.177072063807    15.994914619570
         N            0.355760318596    -0.356061775478    -0.285964863807    14.003074004430
         C            1.791689318596    -0.530953775478    -0.537197863807    12.000000000000
         C           -0.087470681404     0.973669224522    -0.099800863807    12.000000000000
         C           -0.463711681404    -1.445898775478    -0.185227863807    12.000000000000
         C            2.594026318596    -0.467131775478     0.754382136193    12.000000000000
         C           -1.503620681404     1.086939224522     0.164664136193    12.000000000000
         C           -1.798334681404    -1.313431775478     0.083292136193    12.000000000000
         C           -2.321525681404    -0.007301775478     0.260802136193    12.000000000000
         H            1.919204318596    -1.491366775478    -1.044098863807     1.007825032230
         H            2.093156318596     0.269741224522    -1.214603863807     1.007825032230
         H            0.013920318596    -2.409204775478    -0.340765863807     1.007825032230
         H            2.452263318596     0.507825224522     1.222849136193     1.007825032230
         H            2.275949318596    -1.250766775478     1.447448136193     1.007825032230
         H            3.659151318596    -0.601886775478     0.543530136193     1.007825032230
         H           -1.879026681404     2.096622224522     0.297574136193     1.007825032230
         H           -2.425497681404    -2.194913775478     0.151151136193     1.007825032230
         H           -3.380398681404     0.127112224522     0.470587136193     1.007825032230

  Basis Set: AUG-CC-PVTZ
    Blend: AUG-CC-PVTZ
  Basis Set: (AUG-CC-PVTZ AUX)
    Blend: AUG-CC-PVTZ-JKFIT
	 Reference Energy          =    -399.7713690301894189 [Eh]
	 Singles Energy            =      -0.0000000000000000 [Eh]
	 Same-Spin Energy          =      -0.4235323898936896 [Eh]
	 Opposite-Spin Energy      =      -1.3398642068750113 [Eh]
	 Correlation Energy        =      -1.7633965967687009 [Eh]
	 Total Energy              =    -401.5347656269581194 [Eh]

	 ================> DF-SCS-MP2 Energies <==================
	-----------------------------------------------------------
	 SCS Same-Spin Scale       =       0.3333333333333333 [-]
	 SCS Opposite-Spin Scale   =       1.2000000000000000 [-]
	 SCS Same-Spin Energy      =      -0.1411774632978965 [Eh]
	 SCS Opposite-Spin Energy  =      -1.6078370482500135 [Eh]
	 SCS Correlation Energy    =      -1.7490145115479101 [Eh]
	 SCS Total Energy          =    -401.5203835417373170 [Eh]
	-----------------------------------------------------------

  Dipole Moment: [D]
     X:    -0.7961      Y:    -3.7867      Z:     0.0381     Total:     3.8697

*** Psi4 exiting successfully. Buy a developer a beer!
