                               Psi4 1.3.2 release

  ==> Input File <==

--------------------------------------------------------------------------
#psi4
#
memory 32 gb

molecule  {
0 1
  O        2.3111590    -1.3984000     0.0000580
  O       -2.2718830    -1.4902890    -0.0001310
  N        1.1826080     0.6255060     0.0000550
  N        0.0153410    -1.3761840    -0.0000340
  C       -1.2346770     0.6647280    -0.0000250
  C       -0.0650273     1.2252748     0.0000317
  C        1.2605820    -0.7608720     0.0000310
  C       -1.2542960    -0.7955090    -0.0000670
  C        2.4628710     1.3282243     0.0001231
  C       -2.5504790     1.3758010    -0.0000570
  H        0.0516650     2.3739750     0.0000690
  H        0.0461780    -2.3935470    -0.0000610
  H        2.4800130     2.0209940     0.8935150
  H        2.4798690     2.0213500    -0.8930780
  H        3.2466700     0.6823050    -0.0000520
  H       -3.1375530     1.0948740    -0.8785960
  H       -2.4103180     2.4605130    -0.0000230
  H       -3.1376190     1.0948280     0.8784230
units angstrom
no_reorient  #important for SAPT in psi4, default
symmetry c1  #important for SAPT in psi4, default
}

set PROPERTIES_ORIGIN ["COM"]
properties('MP2/aug-cc-pvtz', properties = ['dipole'])
--------------------------------------------------------------------------

    Molecular point group: c1
  Charge       = 0
  Multiplicity = 1
  Basis Set: AUG-CC-PVTZ
    Blend: AUG-CC-PVTZ
  Basis Set: (AUG-CC-PVTZ AUX)
    Blend: AUG-CC-PVTZ-JKFIT

    Orbital Energies [Eh]
    ---------------------

    Doubly Occupied:

       1A    -20.539799     2A    -20.539636     3A    -15.637255
       4A    -15.624128     5A    -11.410784     6A    -11.376716
       7A    -11.322263     8A    -11.288864     9A    -11.254272
      10A    -11.239342    11A     -1.424663    12A     -1.387932
      13A     -1.307141    14A     -1.242419    15A     -1.122201
      16A     -0.996474    17A     -0.961799    18A     -0.909669
      19A     -0.859015    20A     -0.775055    21A     -0.735469
      22A     -0.680982    23A     -0.679562    24A     -0.654256
      25A     -0.635358    26A     -0.613050    27A     -0.608207
      28A     -0.592526    29A     -0.583473    30A     -0.562799
      31A     -0.550238    32A     -0.540782    33A     -0.487467
      34A     -0.472247    35A     -0.444503    36A     -0.430745
      37A     -0.354774

  @DF-RHF Final Energy:  -490.69901915100183

   => Energetics <=

    Nuclear Repulsion Energy =            531.7582670298082803
    One-Electron Energy =               -1723.2228424103770976
    Two-Electron Energy =                 700.7655562295670961
    Total Energy =                       -490.6990191510018349
  Basis Set: (AUG-CC-PVTZ AUX)
    Blend: AUG-CC-PVTZ-RI
    Molecular point group: c1

    Geometry (in Angstrom), charge = 0, multiplicity = 1:

       Center              X                  Y                   Z               Mass
    ------------   -----------------  -----------------  -----------------  -----------------
         O            2.307968962700    -1.321033293608     0.000059666608    15.994914619570
         O           -2.275073037300    -1.412922293608    -0.000129333392    15.994914619570
         N            1.179417962700     0.702872706392     0.000056666608    14.003074004430
         N            0.012150962700    -1.298817293608    -0.000032333392    14.003074004430
         C           -1.237867037300     0.742094706392    -0.000023333392    12.000000000000
         C           -0.068217337300     1.302641506392     0.000033366608    12.000000000000
         C            1.257391962700    -0.683505293608     0.000032666608    12.000000000000
         C           -1.257486037300    -0.718142293608    -0.000065333392    12.000000000000
         C            2.459680962700     1.405591006392     0.000124766608    12.000000000000
         C           -2.553669037300     1.453167706392    -0.000055333392    12.000000000000
         H            0.048474962700     2.451341706392     0.000070666608     1.007825032230
         H            0.042987962700    -2.316180293608    -0.000059333392     1.007825032230
         H            2.476822962700     2.098360706392     0.893516666608     1.007825032230
         H            2.476678962700     2.098716706392    -0.893076333392     1.007825032230
         H            3.243479962700     0.759671706392    -0.000050333392     1.007825032230
         H           -3.140743037300     1.172240706392    -0.878594333392     1.007825032230
         H           -2.413508037300     2.537879706392    -0.000021333392     1.007825032230
         H           -3.140809037300     1.172194706392     0.878424666608     1.007825032230

  Basis Set: AUG-CC-PVTZ
    Blend: AUG-CC-PVTZ
  Basis Set: (AUG-CC-PVTZ AUX)
    Blend: AUG-CC-PVTZ-JKFIT
	 Reference Energy          =    -490.6990191510018349 [Eh]
	 Singles Energy            =      -0.0000000000000000 [Eh]
	 Same-Spin Energy          =      -0.5018367120279649 [Eh]
	 Opposite-Spin Energy      =      -1.5405868175276560 [Eh]
	 Correlation Energy        =      -2.0424235295556210 [Eh]
	 Total Energy              =    -492.7414426805574408 [Eh]

	 ================> DF-SCS-MP2 Energies <==================
	-----------------------------------------------------------
	 SCS Same-Spin Scale       =       0.3333333333333333 [-]
	 SCS Opposite-Spin Scale   =       1.2000000000000000 [-]
	 SCS Same-Spin Energy      =      -0.1672789040093216 [Eh]
	 SCS Opposite-Spin Energy  =      -1.8487041810331872 [Eh]
	 SCS Correlation Energy    =      -2.0159830850425089 [Eh]
	 SCS Total Energy          =    -492.7150022360443700 [Eh]
	-----------------------------------------------------------

  Dipole Moment: [D]
     X:     0.9751      Y:     4.4324      Z:     0.0002     Total:     4.5384

*** Psi4 exiting successfully. Buy a developer a beer!
