                               Psi4 1.4a3.dev225

  ==> Input File <==

--------------------------------------------------------------------------
#psi4
#
memory 32 gb

molecule  {
0 1
  O        2.3212770    -1.3580180     0.0000020
  O       -2.2717460    -1.4962290     0.0000010
  N        1.1724310     0.6334210    -0.0000020
  N        0.0162060    -1.3769820    -0.0000020
  C       -1.2398930     0.6613320     0.0000000
  C       -0.0398910     1.2934770    -0.0000010
  C        1.2527440    -0.7526170    -0.0000010
  C       -1.2589250    -0.7964470     0.0000000
  C        2.4447950     1.3519700     0.0000010
  C       -2.5550880     1.3760200     0.0000010
  H        0.0310140     2.3780990    -0.0000010
  H        0.0457120    -2.3937650    -0.0000010
  H        2.2343430     2.4214070    -0.0000200
  H        3.0241620     1.0875710    -0.8862110
  H        3.0241420     1.0876020     0.8862360
  H       -3.1540231     1.0926999    -0.8951294
  H       -2.4120010     2.4600010     0.0000010
  H       -3.1432670     1.0977870     0.8790540
units angstrom
no_reorient  #important for SAPT in psi4, default
symmetry c1  #important for SAPT in psi4, default
}

set PROPERTIES_ORIGIN ["COM"]
properties('MP2/aug-cc-pvtz', properties = ['dipole'])
--------------------------------------------------------------------------

    Molecular point group: c1
  Charge       = 0
  Multiplicity = 1
  Basis Set: AUG-CC-PVTZ
    Blend: AUG-CC-PVTZ
  Basis Set: (AUG-CC-PVTZ AUX)
    Blend: AUG-CC-PVTZ-JKFIT

    Orbital Energies [Eh]
    ---------------------

    Doubly Occupied:

       1A    -20.541180     2A    -20.538057     3A    -15.638683
       4A    -15.624891     5A    -11.411584     6A    -11.375936
       7A    -11.326575     8A    -11.288778     9A    -11.257345
      10A    -11.238785    11A     -1.424962    12A     -1.387278
      13A     -1.306626    14A     -1.243631    15A     -1.108576
      16A     -0.993419    17A     -0.961622    18A     -0.914591
      19A     -0.852657    20A     -0.770856    21A     -0.735294
      22A     -0.693813    23A     -0.683117    24A     -0.650237
      25A     -0.636724    26A     -0.612444    27A     -0.608971
      28A     -0.590937    29A     -0.579576    30A     -0.557976
      31A     -0.547004    32A     -0.539619    33A     -0.491879
      34A     -0.475594    35A     -0.444259    36A     -0.430317
      37A     -0.343819

  @DF-RHF Final Energy:  -490.71200721065793

   => Energetics <=

    Nuclear Repulsion Energy =            530.6616032946458290
    One-Electron Energy =               -1721.0919958667914216
    Two-Electron Energy =                 699.7183853614876625
    Total Energy =                       -490.7120072106579300
  Basis Set: (AUG-CC-PVTZ AUX)
    Blend: AUG-CC-PVTZ-RI
    Molecular point group: c1

    Geometry (in Angstrom), charge = 0, multiplicity = 1:

       Center              X                  Y                   Z               Mass
    ------------   -----------------  -----------------  -----------------  -----------------
         O            2.318927527537    -1.292637364100     0.000117702923    15.994914619570
         O           -2.274095472463    -1.430848364100     0.000116702923    15.994914619570
         N            1.170081527537     0.698801635900     0.000113702923    14.003074004430
         N            0.013856527537    -1.311601364100     0.000113702923    14.003074004430
         C           -1.242242472463     0.726712635900     0.000115702923    12.000000000000
         C           -0.042240472463     1.358857635900     0.000114702923    12.000000000000
         C            1.250394527537    -0.687236364100     0.000114702923    12.000000000000
         C           -1.261274472463    -0.731066364100     0.000115702923    12.000000000000
         C            2.442445527537     1.417350635900     0.000116702923    12.000000000000
         C           -2.557437472463     1.441400635900     0.000116702923    12.000000000000
         H            0.028664527537     2.443479635900     0.000114702923     1.007825032230
         H            0.043362527537    -2.328384364100     0.000114702923     1.007825032230
         H            2.231993527537     2.486787635900     0.000095702923     1.007825032230
         H            3.021812527537     1.152951635900    -0.886095297077     1.007825032230
         H            3.021792527537     1.152982635900     0.886351702923     1.007825032230
         H           -3.156372572463     1.158080535900    -0.895013697077     1.007825032230
         H           -2.414350472463     2.525381635900     0.000116702923     1.007825032230
         H           -3.145616472463     1.163167635900     0.879169702923     1.007825032230

  Basis Set: AUG-CC-PVTZ
    Blend: AUG-CC-PVTZ
  Basis Set: (AUG-CC-PVTZ AUX)
    Blend: AUG-CC-PVTZ-JKFIT
	 Reference Energy          =    -490.7120072106579300 [Eh]
	 Singles Energy            =      -0.0000000000000000 [Eh]
	 Same-Spin Energy          =      -0.5023699231201610 [Eh]
	 Opposite-Spin Energy      =      -1.5414290792321794 [Eh]
	 Correlation Energy        =      -2.0437990023523405 [Eh]
	 Total Energy              =    -492.7558062130102599 [Eh]

	 ================> DF-SCS-MP2 Energies <==================
	-----------------------------------------------------------
	 SCS Same-Spin Scale       =       0.3333333333333333 [-]
	 SCS Opposite-Spin Scale   =       1.2000000000000000 [-]
	 SCS Same-Spin Energy      =      -0.1674566410400537 [Eh]
	 SCS Opposite-Spin Energy  =      -1.8497148950786153 [Eh]
	 SCS Correlation Energy    =      -2.0171715361186688 [Eh]
	 SCS Total Energy          =    -492.7291787467765971 [Eh]
	-----------------------------------------------------------

  Dipole Moment: [D]
     X:     1.1031      Y:     4.5089      Z:     0.0045     Total:     4.6419

*** Psi4 exiting successfully. Buy a developer a beer!
