                               Psi4 1.3.2 release

  ==> Input File <==

--------------------------------------------------------------------------
#psi4
#
memory 32 gb

molecule  {
0 1
  O        2.3111590    -1.3984000     0.0000580
  O       -2.2718830    -1.4902890    -0.0001310
  N        1.1793593     0.6308601    -0.0110448
  N        0.0153410    -1.3761840    -0.0000340
  C       -1.2346770     0.6647280    -0.0000250
  C       -0.0319280     1.2897490     0.0000350
  C        1.2605820    -0.7608720     0.0000310
  C       -1.2542960    -0.7955090    -0.0000670
  C        2.4243390     1.3942650     0.0001240
  C       -2.5504790     1.3758010    -0.0000570
  H        0.0516650     2.3739750     0.0000690
  H        0.0461780    -2.3935470    -0.0000610
  H        2.4800130     2.0209940     0.8935150
  H        2.4714060     2.0179906    -0.8959117
  H        3.2466700     0.6823050    -0.0000520
  H       -3.1375530     1.0948740    -0.8785960
  H       -2.4103180     2.4605130    -0.0000230
  H       -3.1376190     1.0948280     0.8784230
units angstrom
no_reorient  #important for SAPT in psi4, default
symmetry c1  #important for SAPT in psi4, default
}

set PROPERTIES_ORIGIN ["COM"]
properties('MP2/aug-cc-pvtz', properties = ['dipole'])
--------------------------------------------------------------------------

    Molecular point group: c1
  Charge       = 0
  Multiplicity = 1
  Basis Set: AUG-CC-PVTZ
    Blend: AUG-CC-PVTZ
  Basis Set: (AUG-CC-PVTZ AUX)
    Blend: AUG-CC-PVTZ-JKFIT

    Orbital Energies [Eh]
    ---------------------

    Doubly Occupied:

       1A    -20.541643     2A    -20.538198     3A    -15.638246
       4A    -15.624818     5A    -11.414639     6A    -11.375925
       7A    -11.324558     8A    -11.286151     9A    -11.258821
      10A    -11.236722    11A     -1.424181    12A     -1.386834
      13A     -1.307577    14A     -1.243182    15A     -1.108572
      16A     -0.993325    17A     -0.963059    18A     -0.914172
      19A     -0.853092    20A     -0.770536    21A     -0.734680
      22A     -0.692594    23A     -0.682330    24A     -0.649676
      25A     -0.638023    26A     -0.615987    27A     -0.609580
      28A     -0.588183    29A     -0.583815    30A     -0.555565
      31A     -0.547887    32A     -0.543045    33A     -0.488986
      34A     -0.475679    35A     -0.444238    36A     -0.430693
      37A     -0.345036

  @DF-RHF Final Energy:  -490.71171908038048

   => Energetics <=

    Nuclear Repulsion Energy =            530.3704014092052148
    One-Electron Energy =               -1720.5037451655837231
    Two-Electron Energy =                 699.4216246759980322
    Total Energy =                       -490.7117190803804760
  Basis Set: (AUG-CC-PVTZ AUX)
    Blend: AUG-CC-PVTZ-RI
    Molecular point group: c1

    Geometry (in Angstrom), charge = 0, multiplicity = 1:

       Center              X                  Y                   Z               Mass
    ------------   -----------------  -----------------  -----------------  -----------------
         O            2.308820130917    -1.332726736454     0.001189456710    15.994914619570
         O           -2.274221869083    -1.424615736454     0.001000456710    15.994914619570
         N            1.177020430917     0.696533363546    -0.009913343290    14.003074004430
         N            0.013002130917    -1.310510736454     0.001097456710    14.003074004430
         C           -1.237015869083     0.730401263546     0.001106456710    12.000000000000
         C           -0.034266869083     1.355422263546     0.001166456710    12.000000000000
         C            1.258243130917    -0.695198736454     0.001162456710    12.000000000000
         C           -1.256634869083    -0.729835736454     0.001064456710    12.000000000000
         C            2.422000130917     1.459938263546     0.001255456710    12.000000000000
         C           -2.552817869083     1.441474263546     0.001074456710    12.000000000000
         H            0.049326130917     2.439648263546     0.001200456710     1.007825032230
         H            0.043839130917    -2.327873736454     0.001070456710     1.007825032230
         H            2.477674130917     2.086667263546     0.894646456710     1.007825032230
         H            2.469067130917     2.083663863546    -0.894780243290     1.007825032230
         H            3.244331130917     0.747978263546     0.001079456710     1.007825032230
         H           -3.139891869083     1.160547263546    -0.877464543290     1.007825032230
         H           -2.412656869083     2.526186263546     0.001108456710     1.007825032230
         H           -3.139957869083     1.160501263546     0.879554456710     1.007825032230

  Basis Set: AUG-CC-PVTZ
    Blend: AUG-CC-PVTZ
  Basis Set: (AUG-CC-PVTZ AUX)
    Blend: AUG-CC-PVTZ-JKFIT
	 Reference Energy          =    -490.7117190803804760 [Eh]
	 Singles Energy            =      -0.0000000000000000 [Eh]
	 Same-Spin Energy          =      -0.5024813814308742 [Eh]
	 Opposite-Spin Energy      =      -1.5415704432346189 [Eh]
	 Correlation Energy        =      -2.0440518246654928 [Eh]
	 Total Energy              =    -492.7557709050459493 [Eh]

	 ================> DF-SCS-MP2 Energies <==================
	-----------------------------------------------------------
	 SCS Same-Spin Scale       =       0.3333333333333333 [-]
	 SCS Opposite-Spin Scale   =       1.2000000000000000 [-]
	 SCS Same-Spin Energy      =      -0.1674937938102914 [Eh]
	 SCS Opposite-Spin Energy  =      -1.8498845318815427 [Eh]
	 SCS Correlation Energy    =      -2.0173783256918343 [Eh]
	 SCS Total Energy          =    -492.7290974060722988 [Eh]
	-----------------------------------------------------------

  Dipole Moment: [D]
     X:     1.0892      Y:     4.4989      Z:     0.0084     Total:     4.6289

*** Psi4 exiting successfully. Buy a developer a beer!
