                               Psi4 1.3.2 release

  ==> Input File <==

--------------------------------------------------------------------------
#psi4
#
memory 32 gb

molecule  {
0 1
  O        2.3111590    -1.3984000     0.0000580
  O       -2.2718830    -1.4902890    -0.0001310
  N        1.1826080     0.6255060     0.0000550
  N        0.0153410    -1.3761840    -0.0000340
  C       -1.2657397     0.7285316    -0.0000243
  C       -0.0319280     1.2897490     0.0000350
  C        1.2605820    -0.7608720     0.0000310
  C       -1.2542960    -0.7955090    -0.0000670
  C        2.4243390     1.3942650     0.0001240
  C       -2.5504790     1.3758010    -0.0000570
  H       -0.0051936     2.3768640     0.0000671
  H        0.0461780    -2.3935470    -0.0000610
  H        2.4800130     2.0209940     0.8935150
  H        2.4798690     2.0213500    -0.8930780
  H        3.2466700     0.6823050    -0.0000520
  H       -3.1375530     1.0948740    -0.8785960
  H       -2.4103180     2.4605130    -0.0000230
  H       -3.1376190     1.0948280     0.8784230
units angstrom
no_reorient  #important for SAPT in psi4, default
symmetry c1  #important for SAPT in psi4, default
}

set PROPERTIES_ORIGIN ["COM"]
properties('MP2/aug-cc-pvtz', properties = ['dipole'])
--------------------------------------------------------------------------

    Molecular point group: c1
  Charge       = 0
  Multiplicity = 1
  Basis Set: AUG-CC-PVTZ
    Blend: AUG-CC-PVTZ
  Basis Set: (AUG-CC-PVTZ AUX)
    Blend: AUG-CC-PVTZ-JKFIT

    Orbital Energies [Eh]
    ---------------------

    Doubly Occupied:

       1A    -20.541166     2A    -20.540769     3A    -15.638096
       4A    -15.625984     5A    -11.414208     6A    -11.379612
       7A    -11.319700     8A    -11.285073     9A    -11.262815
      10A    -11.235337    11A     -1.423885    12A     -1.387261
      13A     -1.304986    14A     -1.242723    15A     -1.112426
      16A     -0.995130    17A     -0.967409    18A     -0.902633
      19A     -0.854186    20A     -0.769322    21A     -0.733638
      22A     -0.687197    23A     -0.681187    24A     -0.650462
      25A     -0.637085    26A     -0.614976    27A     -0.607533
      28A     -0.596167    29A     -0.588780    30A     -0.566679
      31A     -0.544257    32A     -0.543438    33A     -0.486639
      34A     -0.473106    35A     -0.440696    36A     -0.431273
      37A     -0.344018

  @DF-RHF Final Energy:  -490.70588844212369

   => Energetics <=

    Nuclear Repulsion Energy =            529.5945232105709692
    One-Electron Energy =               -1718.9411239459941498
    Two-Electron Energy =                 698.6407122932994298
    Total Energy =                       -490.7058884421237508
  Basis Set: (AUG-CC-PVTZ AUX)
    Blend: AUG-CC-PVTZ-RI
    Molecular point group: c1

    Geometry (in Angstrom), charge = 0, multiplicity = 1:

       Center              X                  Y                   Z               Mass
    ------------   -----------------  -----------------  -----------------  -----------------
         O            2.311504971198    -1.337702987447     0.000059260455    15.994914619570
         O           -2.271537028802    -1.429591987447    -0.000129739545    15.994914619570
         N            1.182953971198     0.686203012553     0.000056260455    14.003074004430
         N            0.015686971198    -1.315486987447    -0.000032739545    14.003074004430
         C           -1.265393728802     0.789228612553    -0.000023039545    12.000000000000
         C           -0.031582028802     1.350446012553     0.000036260455    12.000000000000
         C            1.260927971198    -0.700174987447     0.000032260455    12.000000000000
         C           -1.253950028802    -0.734811987447    -0.000065739545    12.000000000000
         C            2.424684971198     1.454962012553     0.000125260455    12.000000000000
         C           -2.550133028802     1.436498012553    -0.000055739545    12.000000000000
         H           -0.004847628802     2.437561012553     0.000068360455     1.007825032230
         H            0.046523971198    -2.332849987447    -0.000059739545     1.007825032230
         H            2.480358971198     2.081691012553     0.893516260455     1.007825032230
         H            2.480214971198     2.082047012553    -0.893076739545     1.007825032230
         H            3.247015971198     0.743002012553    -0.000050739545     1.007825032230
         H           -3.137207028802     1.155571012553    -0.878594739545     1.007825032230
         H           -2.409972028802     2.521210012553    -0.000021739545     1.007825032230
         H           -3.137273028802     1.155525012553     0.878424260455     1.007825032230

  Basis Set: AUG-CC-PVTZ
    Blend: AUG-CC-PVTZ
  Basis Set: (AUG-CC-PVTZ AUX)
    Blend: AUG-CC-PVTZ-JKFIT
	 Reference Energy          =    -490.7058884421236939 [Eh]
	 Singles Energy            =      -0.0000000000000000 [Eh]
	 Same-Spin Energy          =      -0.5023450361861734 [Eh]
	 Opposite-Spin Energy      =      -1.5416125510458456 [Eh]
	 Correlation Energy        =      -2.0439575872320193 [Eh]
	 Total Energy              =    -492.7498460293556946 [Eh]

	 ================> DF-SCS-MP2 Energies <==================
	-----------------------------------------------------------
	 SCS Same-Spin Scale       =       0.3333333333333333 [-]
	 SCS Opposite-Spin Scale   =       1.2000000000000000 [-]
	 SCS Same-Spin Energy      =      -0.1674483453953911 [Eh]
	 SCS Opposite-Spin Energy  =      -1.8499350612550147 [Eh]
	 SCS Correlation Energy    =      -2.0173834066504059 [Eh]
	 SCS Total Energy          =    -492.7232718487741181 [Eh]
	-----------------------------------------------------------

  Dipole Moment: [D]
     X:     0.8921      Y:     4.3944      Z:     0.0002     Total:     4.4840

*** Psi4 exiting successfully. Buy a developer a beer!
