                               Psi4 1.4a3.dev225

  ==> Input File <==

--------------------------------------------------------------------------
#psi4
#
memory 32 gb

molecule  {
0 1
  O        2.3212770    -1.3580180     0.0000020
  O       -2.2717460    -1.4962290     0.0000010
  N        1.1724310     0.6334210    -0.0000020
  N        0.0162060    -1.3769820    -0.0000020
  C       -1.2398930     0.6613320     0.0000000
  C       -0.0398910     1.2934770    -0.0000010
  C        1.2081110    -0.7751535    -0.0000010
  C       -1.2589250    -0.7964470     0.0000000
  C        2.4447950     1.3519700     0.0000010
  C       -2.5550880     1.3760200     0.0000010
  H        0.0310140     2.3780990    -0.0000010
  H        0.0457120    -2.3937650    -0.0000010
  H        2.2343430     2.4214070    -0.0000200
  H        3.0241620     1.0875710    -0.8862110
  H        3.0241420     1.0876020     0.8862360
  H       -3.1432670     1.0977880    -0.8790540
  H       -2.4120010     2.4600010     0.0000010
  H       -3.1432670     1.0977870     0.8790540
units angstrom
no_reorient  #important for SAPT in psi4, default
symmetry c1  #important for SAPT in psi4, default
}

set PROPERTIES_ORIGIN ["COM"]
properties('MP2/aug-cc-pvtz', properties = ['dipole'])
--------------------------------------------------------------------------

    Molecular point group: c1
  Charge       = 0
  Multiplicity = 1
  Basis Set: AUG-CC-PVTZ
    Blend: AUG-CC-PVTZ
  Basis Set: (AUG-CC-PVTZ AUX)
    Blend: AUG-CC-PVTZ-JKFIT

    Orbital Energies [Eh]
    ---------------------

    Doubly Occupied:

       1A    -20.542710     2A    -20.533969     3A    -15.638019
       4A    -15.632934     5A    -11.411341     6A    -11.380566
       7A    -11.327158     8A    -11.287505     9A    -11.256957
      10A    -11.237111    11A     -1.419857    12A     -1.385540
      13A     -1.297643    14A     -1.257795    15A     -1.108813
      16A     -0.992962    17A     -0.960902    18A     -0.918987
      19A     -0.862821    20A     -0.770823    21A     -0.742885
      22A     -0.692539    23A     -0.682177    24A     -0.652858
      25A     -0.627423    26A     -0.615779    27A     -0.610163
      28A     -0.589385    29A     -0.582387    30A     -0.557080
      31A     -0.548825    32A     -0.537240    33A     -0.490279
      34A     -0.468569    35A     -0.447499    36A     -0.432533
      37A     -0.342694

  @DF-RHF Final Energy:  -490.70759774008491

   => Energetics <=

    Nuclear Repulsion Energy =            530.8502407873485254
    One-Electron Energy =               -1721.4262207646252136
    Two-Electron Energy =                 699.8683822371918950
    Total Energy =                       -490.7075977400849069
  Basis Set: (AUG-CC-PVTZ AUX)
    Blend: AUG-CC-PVTZ-RI
    Molecular point group: c1

    Geometry (in Angstrom), charge = 0, multiplicity = 1:

       Center              X                  Y                   Z               Mass
    ------------   -----------------  -----------------  -----------------  -----------------
         O            2.322674215120    -1.290743084648     0.000002028533    15.994914619570
         O           -2.270348784880    -1.428954084648     0.000001028533    15.994914619570
         N            1.173828215120     0.700695915352    -0.000001971467    14.003074004430
         N            0.017603215120    -1.309707084648    -0.000001971467    14.003074004430
         C           -1.238495784880     0.728606915352     0.000000028533    12.000000000000
         C           -0.038493784880     1.360751915352    -0.000000971467    12.000000000000
         C            1.209508215120    -0.707878584648    -0.000000971467    12.000000000000
         C           -1.257527784880    -0.729172084648     0.000000028533    12.000000000000
         C            2.446192215120     1.419244915352     0.000001028533    12.000000000000
         C           -2.553690784880     1.443294915352     0.000001028533    12.000000000000
         H            0.032411215120     2.445373915352    -0.000000971467     1.007825032230
         H            0.047109215120    -2.326490084648    -0.000000971467     1.007825032230
         H            2.235740215120     2.488681915352    -0.000019971467     1.007825032230
         H            3.025559215120     1.154845915352    -0.886210971467     1.007825032230
         H            3.025539215120     1.154876915352     0.886236028533     1.007825032230
         H           -3.141869784880     1.165062915352    -0.879053971467     1.007825032230
         H           -2.410603784880     2.527275915352     0.000001028533     1.007825032230
         H           -3.141869784880     1.165061915352     0.879054028533     1.007825032230

  Basis Set: AUG-CC-PVTZ
    Blend: AUG-CC-PVTZ
  Basis Set: (AUG-CC-PVTZ AUX)
    Blend: AUG-CC-PVTZ-JKFIT
	 Reference Energy          =    -490.7075977400849069 [Eh]
	 Singles Energy            =      -0.0000000000000000 [Eh]
	 Same-Spin Energy          =      -0.5029195182229962 [Eh]
	 Opposite-Spin Energy      =      -1.5421244771702551 [Eh]
	 Correlation Energy        =      -2.0450439953932511 [Eh]
	 Total Energy              =    -492.7526417354781643 [Eh]

	 ================> DF-SCS-MP2 Energies <==================
	-----------------------------------------------------------
	 SCS Same-Spin Scale       =       0.3333333333333333 [-]
	 SCS Opposite-Spin Scale   =       1.2000000000000000 [-]
	 SCS Same-Spin Energy      =      -0.1676398394076654 [Eh]
	 SCS Opposite-Spin Energy  =      -1.8505493726043061 [Eh]
	 SCS Correlation Energy    =      -2.0181892120119715 [Eh]
	 SCS Total Energy          =    -492.7257869520968825 [Eh]
	-----------------------------------------------------------

  Dipole Moment: [D]
     X:     0.7722      Y:     4.4361      Z:    -0.0000     Total:     4.5028

*** Psi4 exiting successfully. Buy a developer a beer!
