                               Psi4 1.3.2 release

  ==> Input File <==

--------------------------------------------------------------------------
#psi4
#
memory 32 gb

molecule  {
0 1
  O        2.3111590    -1.3984000     0.0000580
  O       -2.2718830    -1.4902890    -0.0001310
  N        1.1826080     0.6255060     0.0000550
  N        0.0153410    -1.3761840    -0.0000340
  C       -1.2346770     0.6647280    -0.0000250
  C       -0.0319280     1.2897490     0.0000350
  C        1.3502342    -0.7165721     0.0000357
  C       -1.2542960    -0.7955090    -0.0000670
  C        2.4243390     1.3942650     0.0001240
  C       -2.5504790     1.3758010    -0.0000570
  H        0.0516650     2.3739750     0.0000690
  H        0.0461780    -2.3935470    -0.0000610
  H        2.4800130     2.0209940     0.8935150
  H        2.4798690     2.0213500    -0.8930780
  H        3.2466700     0.6823050    -0.0000520
  H       -3.1375530     1.0948740    -0.8785960
  H       -2.4103180     2.4605130    -0.0000230
  H       -3.1376190     1.0948280     0.8784230
units angstrom
no_reorient  #important for SAPT in psi4, default
symmetry c1  #important for SAPT in psi4, default
}

set PROPERTIES_ORIGIN ["COM"]
properties('MP2/aug-cc-pvtz', properties = ['dipole'])
--------------------------------------------------------------------------

    Molecular point group: c1
  Charge       = 0
  Multiplicity = 1
  Basis Set: AUG-CC-PVTZ
    Blend: AUG-CC-PVTZ
  Basis Set: (AUG-CC-PVTZ AUX)
    Blend: AUG-CC-PVTZ-JKFIT

    Orbital Energies [Eh]
    ---------------------

    Doubly Occupied:

       1A    -20.554355     2A    -20.529058     3A    -15.640791
       4A    -15.606633     5A    -11.414683     6A    -11.366332
       7A    -11.323727     8A    -11.288898     9A    -11.260357
      10A    -11.236001    11A     -1.450929    12A     -1.381472
      13A     -1.322152    14A     -1.214655    15A     -1.108830
      16A     -0.994794    17A     -0.969909    18A     -0.907100
      19A     -0.835311    20A     -0.768633    21A     -0.722543
      22A     -0.698046    23A     -0.687527    24A     -0.652819
      25A     -0.641500    26A     -0.610341    27A     -0.609242
      28A     -0.589431    29A     -0.587449    30A     -0.557149
      31A     -0.546640    32A     -0.546570    33A     -0.493313
      34A     -0.484440    35A     -0.434964    36A     -0.419516
      37A     -0.348582

  @DF-RHF Final Energy:  -490.70199027086352

   => Energetics <=

    Nuclear Repulsion Energy =            530.2263154852474827
    One-Electron Energy =               -1720.2472295809086518
    Two-Electron Energy =                 699.3189238247977073
    Total Energy =                       -490.7019902708635755
  Basis Set: (AUG-CC-PVTZ AUX)
    Blend: AUG-CC-PVTZ-RI
    Molecular point group: c1

    Geometry (in Angstrom), charge = 0, multiplicity = 1:

       Center              X                  Y                   Z               Mass
    ------------   -----------------  -----------------  -----------------  -----------------
         O            2.300753167580    -1.336011152425     0.000058904069    15.994914619570
         O           -2.282288832420    -1.427900152425    -0.000130095931    15.994914619570
         N            1.172202167580     0.687894847575     0.000055904069    14.003074004430
         N            0.004935167580    -1.313795152425    -0.000033095931    14.003074004430
         C           -1.245082832420     0.727116847575    -0.000024095931    12.000000000000
         C           -0.042333832420     1.352137847575     0.000035904069    12.000000000000
         C            1.339828367580    -0.654183252425     0.000036604069    12.000000000000
         C           -1.264701832420    -0.733120152425    -0.000066095931    12.000000000000
         C            2.413933167580     1.456653847575     0.000124904069    12.000000000000
         C           -2.560884832420     1.438189847575    -0.000056095931    12.000000000000
         H            0.041259167580     2.436363847575     0.000069904069     1.007825032230
         H            0.035772167580    -2.331158152425    -0.000060095931     1.007825032230
         H            2.469607167580     2.083382847575     0.893515904069     1.007825032230
         H            2.469463167580     2.083738847575    -0.893077095931     1.007825032230
         H            3.236264167580     0.744693847575    -0.000051095931     1.007825032230
         H           -3.147958832420     1.157262847575    -0.878595095931     1.007825032230
         H           -2.420723832420     2.522901847575    -0.000022095931     1.007825032230
         H           -3.148024832420     1.157216847575     0.878423904069     1.007825032230

  Basis Set: AUG-CC-PVTZ
    Blend: AUG-CC-PVTZ
  Basis Set: (AUG-CC-PVTZ AUX)
    Blend: AUG-CC-PVTZ-JKFIT
	 Reference Energy          =    -490.7019902708635186 [Eh]
	 Singles Energy            =      -0.0000000000000000 [Eh]
	 Same-Spin Energy          =      -0.5018555914024458 [Eh]
	 Opposite-Spin Energy      =      -1.5411631000435020 [Eh]
	 Correlation Energy        =      -2.0430186914459476 [Eh]
	 Total Energy              =    -492.7450089623094414 [Eh]

	 ================> DF-SCS-MP2 Energies <==================
	-----------------------------------------------------------
	 SCS Same-Spin Scale       =       0.3333333333333333 [-]
	 SCS Opposite-Spin Scale   =       1.2000000000000000 [-]
	 SCS Same-Spin Energy      =      -0.1672851971341486 [Eh]
	 SCS Opposite-Spin Energy  =      -1.8493957200522022 [Eh]
	 SCS Correlation Energy    =      -2.0166809171863509 [Eh]
	 SCS Total Energy          =    -492.7186711880498819 [Eh]
	-----------------------------------------------------------

  Dipole Moment: [D]
     X:     1.7291      Y:     4.6940      Z:     0.0002     Total:     5.0023

*** Psi4 exiting successfully. Buy a developer a beer!
