                               Psi4 1.3.2 release

  ==> Input File <==

--------------------------------------------------------------------------
#psi4
#
memory 32 gb

molecule  {
0 1
  O        2.3111590    -1.3984000     0.0000580
  O       -2.2657812    -1.4991426    -0.0001310
  N        1.1826080     0.6255060     0.0000550
  N        0.0102254    -1.3872414    -0.0000346
  C       -1.2346770     0.6647280    -0.0000250
  C       -0.0319280     1.2897490     0.0000350
  C        1.2605820    -0.7608720     0.0000310
  C       -1.2542960    -0.7955090    -0.0000670
  C        2.4243390     1.3942650     0.0001240
  C       -2.5504790     1.3758010    -0.0000570
  H        0.0516650     2.3739750     0.0000690
  H        0.0461780    -2.3935470    -0.0000610
  H        2.4800130     2.0209940     0.8935150
  H        2.4798690     2.0213500    -0.8930780
  H        3.2466700     0.6823050    -0.0000520
  H       -3.1375530     1.0948740    -0.8785960
  H       -2.4103180     2.4605130    -0.0000230
  H       -3.1376190     1.0948280     0.8784230
units angstrom
no_reorient  #important for SAPT in psi4, default
symmetry c1  #important for SAPT in psi4, default
}

set PROPERTIES_ORIGIN ["COM"]
properties('MP2/aug-cc-pvtz', properties = ['dipole'])
--------------------------------------------------------------------------

    Molecular point group: c1
  Charge       = 0
  Multiplicity = 1
  Basis Set: AUG-CC-PVTZ
    Blend: AUG-CC-PVTZ
  Basis Set: (AUG-CC-PVTZ AUX)
    Blend: AUG-CC-PVTZ-JKFIT

    Orbital Energies [Eh]
    ---------------------

    Doubly Occupied:

       1A    -20.541085     2A    -20.537408     3A    -15.638791
       4A    -15.623057     5A    -11.414337     6A    -11.375536
       7A    -11.325457     8A    -11.286378     9A    -11.260345
      10A    -11.237541    11A     -1.423498    12A     -1.386722
      13A     -1.306620    14A     -1.241385    15A     -1.109398
      16A     -0.993427    17A     -0.963563    18A     -0.914514
      19A     -0.850877    20A     -0.770721    21A     -0.737037
      22A     -0.693100    23A     -0.681725    24A     -0.649477
      25A     -0.637620    26A     -0.615304    27A     -0.609824
      28A     -0.589090    29A     -0.583923    30A     -0.556178
      31A     -0.548528    32A     -0.543256    33A     -0.488249
      34A     -0.475563    35A     -0.443535    36A     -0.429573
      37A     -0.346276

  @DF-RHF Final Energy:  -490.71208978190117

   => Energetics <=

    Nuclear Repulsion Energy =            530.1402891601863985
    One-Electron Energy =               -1720.0469232568507323
    Two-Electron Energy =                 699.1945443147629931
    Total Energy =                       -490.7120897819012271
  Basis Set: (AUG-CC-PVTZ AUX)
    Blend: AUG-CC-PVTZ-RI
    Molecular point group: c1

    Geometry (in Angstrom), charge = 0, multiplicity = 1:

       Center              X                  Y                   Z               Mass
    ------------   -----------------  -----------------  -----------------  -----------------
         O            2.308249050903    -1.330098990662     0.000059366746    15.994914619570
         O           -2.268691149097    -1.430841590662    -0.000129633254    15.994914619570
         N            1.179698050903     0.693807009338     0.000056366746    14.003074004430
         N            0.007315450903    -1.318940390662    -0.000033233254    14.003074004430
         C           -1.237586949097     0.733029009338    -0.000023633254    12.000000000000
         C           -0.034837949097     1.358050009338     0.000036366746    12.000000000000
         C            1.257672050903    -0.692570990662     0.000032366746    12.000000000000
         C           -1.257205949097    -0.727207990662    -0.000065633254    12.000000000000
         C            2.421429050903     1.462566009338     0.000125366746    12.000000000000
         C           -2.553388949097     1.444102009338    -0.000055633254    12.000000000000
         H            0.048755050903     2.442276009338     0.000070366746     1.007825032230
         H            0.043268050903    -2.325245990662    -0.000059633254     1.007825032230
         H            2.477103050903     2.089295009338     0.893516366746     1.007825032230
         H            2.476959050903     2.089651009338    -0.893076633254     1.007825032230
         H            3.243760050903     0.750606009338    -0.000050633254     1.007825032230
         H           -3.140462949097     1.163175009338    -0.878594633254     1.007825032230
         H           -2.413227949097     2.528814009338    -0.000021633254     1.007825032230
         H           -3.140528949097     1.163129009338     0.878424366746     1.007825032230

  Basis Set: AUG-CC-PVTZ
    Blend: AUG-CC-PVTZ
  Basis Set: (AUG-CC-PVTZ AUX)
    Blend: AUG-CC-PVTZ-JKFIT
	 Reference Energy          =    -490.7120897819011702 [Eh]
	 Singles Energy            =      -0.0000000000000000 [Eh]
	 Same-Spin Energy          =      -0.5022002936210324 [Eh]
	 Opposite-Spin Energy      =      -1.5412763615161369 [Eh]
	 Correlation Energy        =      -2.0434766551371695 [Eh]
	 Total Energy              =    -492.7555664370383397 [Eh]

	 ================> DF-SCS-MP2 Energies <==================
	-----------------------------------------------------------
	 SCS Same-Spin Scale       =       0.3333333333333333 [-]
	 SCS Opposite-Spin Scale   =       1.2000000000000000 [-]
	 SCS Same-Spin Energy      =      -0.1674000978736774 [Eh]
	 SCS Opposite-Spin Energy  =      -1.8495316338193641 [Eh]
	 SCS Correlation Energy    =      -2.0169317316930417 [Eh]
	 SCS Total Energy          =    -492.7290215135942049 [Eh]
	-----------------------------------------------------------

  Dipole Moment: [D]
     X:     1.0696      Y:     4.5676      Z:     0.0002     Total:     4.6912

*** Psi4 exiting successfully. Buy a developer a beer!
