                               Psi4 1.3.2 release

  ==> Input File <==

--------------------------------------------------------------------------
#psi4
#
memory 32 gb

molecule  {
0 1
  O        2.3111590    -1.3984000     0.0000580
  O       -2.2718830    -1.4902890    -0.0001310
  N        1.1826080     0.6255060     0.0000550
  N        0.0153410    -1.3761840    -0.0000340
  C       -1.2346770     0.6647280    -0.0000250
  C       -0.0662874     1.3518394     0.0000352
  C        1.2605820    -0.7608720     0.0000310
  C       -1.2542960    -0.7955090    -0.0000670
  C        2.4243390     1.3942650     0.0001240
  C       -2.5114611     1.4436903    -0.0000539
  H        0.0516650     2.3739750     0.0000690
  H        0.0461780    -2.3935470    -0.0000610
  H        2.4800130     2.0209940     0.8935150
  H        2.4798690     2.0213500    -0.8930780
  H        3.2466700     0.6823050    -0.0000520
  H       -3.1375530     1.0948740    -0.8785960
  H       -2.4103180     2.4605130    -0.0000230
  H       -3.1376190     1.0948280     0.8784230
units angstrom
no_reorient  #important for SAPT in psi4, default
symmetry c1  #important for SAPT in psi4, default
}

set PROPERTIES_ORIGIN ["COM"]
properties('MP2/aug-cc-pvtz', properties = ['dipole'])
--------------------------------------------------------------------------

    Molecular point group: c1
  Charge       = 0
  Multiplicity = 1
  Basis Set: AUG-CC-PVTZ
    Blend: AUG-CC-PVTZ
  Basis Set: (AUG-CC-PVTZ AUX)
    Blend: AUG-CC-PVTZ-JKFIT

    Orbital Energies [Eh]
    ---------------------

    Doubly Occupied:

       1A    -20.544125     2A    -20.537490     3A    -15.631797
       4A    -15.625209     5A    -11.411249     6A    -11.383092
       7A    -11.323342     8A    -11.280879     9A    -11.266832
      10A    -11.239554    11A     -1.420582    12A     -1.390033
      13A     -1.292855    14A     -1.239469    15A     -1.113588
      16A     -0.985364    17A     -0.962961    18A     -0.920255
      19A     -0.848033    20A     -0.765616    21A     -0.738401
      22A     -0.704353    23A     -0.675251    24A     -0.646294
      25A     -0.640314    26A     -0.618337    27A     -0.613203
      28A     -0.591441    29A     -0.572885    30A     -0.572854
      31A     -0.539246    32A     -0.536401    33A     -0.476403
      34A     -0.475598    35A     -0.448172    36A     -0.431160
      37A     -0.347736

  @DF-RHF Final Energy:  -490.69702156011954

   => Energetics <=

    Nuclear Repulsion Energy =            529.0311378591308085
    One-Electron Energy =               -1717.8355742112084954
    Two-Electron Energy =                 698.1074147919580355
    Total Energy =                       -490.6970215601195378
  Basis Set: (AUG-CC-PVTZ AUX)
    Blend: AUG-CC-PVTZ-RI
    Molecular point group: c1

    Geometry (in Angstrom), charge = 0, multiplicity = 1:

       Center              X                  Y                   Z               Mass
    ------------   -----------------  -----------------  -----------------  -----------------
         O            2.308035294946    -1.343352063766     0.000059024019    15.994914619570
         O           -2.275006705054    -1.435241063766    -0.000129975981    15.994914619570
         N            1.179484294946     0.680553936234     0.000056024019    14.003074004430
         N            0.012217294946    -1.321136063766    -0.000032975981    14.003074004430
         C           -1.237800705054     0.719775936234    -0.000023975981    12.000000000000
         C           -0.069411105054     1.406887336234     0.000036224019    12.000000000000
         C            1.257458294946    -0.705824063766     0.000032024019    12.000000000000
         C           -1.257419705054    -0.740461063766    -0.000065975981    12.000000000000
         C            2.421215294946     1.449312936234     0.000125024019    12.000000000000
         C           -2.514584805054     1.498738236234    -0.000052875981    12.000000000000
         H            0.048541294946     2.429022936234     0.000070024019     1.007825032230
         H            0.043054294946    -2.338499063766    -0.000059975981     1.007825032230
         H            2.476889294946     2.076041936234     0.893516024019     1.007825032230
         H            2.476745294946     2.076397936234    -0.893076975981     1.007825032230
         H            3.243546294946     0.737352936234    -0.000050975981     1.007825032230
         H           -3.140676705054     1.149921936234    -0.878594975981     1.007825032230
         H           -2.413441705054     2.515560936234    -0.000021975981     1.007825032230
         H           -3.140742705054     1.149875936234     0.878424024019     1.007825032230

  Basis Set: AUG-CC-PVTZ
    Blend: AUG-CC-PVTZ
  Basis Set: (AUG-CC-PVTZ AUX)
    Blend: AUG-CC-PVTZ-JKFIT
	 Reference Energy          =    -490.6970215601195378 [Eh]
	 Singles Energy            =      -0.0000000000000000 [Eh]
	 Same-Spin Energy          =      -0.5023186252920687 [Eh]
	 Opposite-Spin Energy      =      -1.5426297652800152 [Eh]
	 Correlation Energy        =      -2.0449483905720838 [Eh]
	 Total Energy              =    -492.7419699506916118 [Eh]

	 ================> DF-SCS-MP2 Energies <==================
	-----------------------------------------------------------
	 SCS Same-Spin Scale       =       0.3333333333333333 [-]
	 SCS Opposite-Spin Scale   =       1.2000000000000000 [-]
	 SCS Same-Spin Energy      =      -0.1674395417640229 [Eh]
	 SCS Opposite-Spin Energy  =      -1.8511557183360181 [Eh]
	 SCS Correlation Energy    =      -2.0185952601000410 [Eh]
	 SCS Total Energy          =    -492.7156168202195659 [Eh]
	-----------------------------------------------------------

  Dipole Moment: [D]
     X:     0.7311      Y:     4.5671      Z:     0.0002     Total:     4.6253

*** Psi4 exiting successfully. Buy a developer a beer!
