                               Psi4 1.4a3.dev225

  ==> Input File <==

--------------------------------------------------------------------------
#psi4
#
memory 32 gb

molecule  {
0 1
  O        2.3212770    -1.3580180     0.0000020
  O       -2.2717460    -1.4962290     0.0000010
  N        1.1724310     0.6334210    -0.0000020
  N        0.0162060    -1.3769820    -0.0000020
  C       -1.2398930     0.6613320     0.0000000
  C       -0.0221961     1.3027985    -0.0000010
  C        1.2527440    -0.7526170    -0.0000010
  C       -1.2589250    -0.7964470     0.0000000
  C        2.4447950     1.3519700     0.0000010
  C       -2.5550880     1.3760200     0.0000010
  H        0.0310140     2.3780990    -0.0000010
  H        0.0457120    -2.3937650    -0.0000010
  H        2.2343430     2.4214070    -0.0000200
  H        3.0241620     1.0875710    -0.8862110
  H        3.0241420     1.0876020     0.8862360
  H       -3.1432670     1.0977880    -0.8790540
  H       -2.4120010     2.4600010     0.0000010
  H       -3.1432670     1.0977870     0.8790540
units angstrom
no_reorient  #important for SAPT in psi4, default
symmetry c1  #important for SAPT in psi4, default
}

set PROPERTIES_ORIGIN ["COM"]
properties('MP2/aug-cc-pvtz', properties = ['dipole'])
--------------------------------------------------------------------------

    Molecular point group: c1
  Charge       = 0
  Multiplicity = 1
  Basis Set: AUG-CC-PVTZ
    Blend: AUG-CC-PVTZ
  Basis Set: (AUG-CC-PVTZ AUX)
    Blend: AUG-CC-PVTZ-JKFIT

    Orbital Energies [Eh]
    ---------------------

    Doubly Occupied:

       1A    -20.542119     2A    -20.536657     3A    -15.640484
       4A    -15.625000     5A    -11.412758     6A    -11.374827
       7A    -11.328259     8A    -11.289453     9A    -11.258033
      10A    -11.235693    11A     -1.425900    12A     -1.386451
      13A     -1.309541    14A     -1.244406    15A     -1.104490
      16A     -0.994724    17A     -0.963556    18A     -0.915708
      19A     -0.852330    20A     -0.770773    21A     -0.735466
      22A     -0.696836    23A     -0.684357    24A     -0.650743
      25A     -0.637288    26A     -0.612587    27A     -0.608603
      28A     -0.591688    29A     -0.580745    30A     -0.557696
      31A     -0.546358    32A     -0.540030    33A     -0.493255
      34A     -0.476599    35A     -0.443436    36A     -0.430227
      37A     -0.339945

  @DF-RHF Final Energy:  -490.71108539874291

   => Energetics <=

    Nuclear Repulsion Energy =            530.6032050675200935
    One-Electron Energy =               -1720.9545421105005971
    Two-Electron Energy =                 699.6402516442375372
    Total Energy =                       -490.7110853987429664
  Basis Set: (AUG-CC-PVTZ AUX)
    Blend: AUG-CC-PVTZ-RI
    Molecular point group: c1

    Geometry (in Angstrom), charge = 0, multiplicity = 1:

       Center              X                  Y                   Z               Mass
    ------------   -----------------  -----------------  -----------------  -----------------
         O            2.317334058070    -1.293472628292     0.000002028533    15.994914619570
         O           -2.275688941930    -1.431683628292     0.000001028533    15.994914619570
         N            1.168488058070     0.697966371708    -0.000001971467    14.003074004430
         N            0.012263058070    -1.312436628292    -0.000001971467    14.003074004430
         C           -1.243835941930     0.725877371708     0.000000028533    12.000000000000
         C           -0.026139041930     1.367343871708    -0.000000971467    12.000000000000
         C            1.248801058070    -0.688071628292    -0.000000971467    12.000000000000
         C           -1.262867941930    -0.731901628292     0.000000028533    12.000000000000
         C            2.440852058070     1.416515371708     0.000001028533    12.000000000000
         C           -2.559030941930     1.440565371708     0.000001028533    12.000000000000
         H            0.027071058070     2.442644371708    -0.000000971467     1.007825032230
         H            0.041769058070    -2.329219628292    -0.000000971467     1.007825032230
         H            2.230400058070     2.485952371708    -0.000019971467     1.007825032230
         H            3.020219058070     1.152116371708    -0.886210971467     1.007825032230
         H            3.020199058070     1.152147371708     0.886236028533     1.007825032230
         H           -3.147209941930     1.162333371708    -0.879053971467     1.007825032230
         H           -2.415943941930     2.524546371708     0.000001028533     1.007825032230
         H           -3.147209941930     1.162332371708     0.879054028533     1.007825032230

  Basis Set: AUG-CC-PVTZ
    Blend: AUG-CC-PVTZ
  Basis Set: (AUG-CC-PVTZ AUX)
    Blend: AUG-CC-PVTZ-JKFIT
	 Reference Energy          =    -490.7110853987429095 [Eh]
	 Singles Energy            =      -0.0000000000000000 [Eh]
	 Same-Spin Energy          =      -0.5027181426264640 [Eh]
	 Opposite-Spin Energy      =      -1.5417719649152857 [Eh]
	 Correlation Energy        =      -2.0444901075417494 [Eh]
	 Total Energy              =    -492.7555755062846856 [Eh]

	 ================> DF-SCS-MP2 Energies <==================
	-----------------------------------------------------------
	 SCS Same-Spin Scale       =       0.3333333333333333 [-]
	 SCS Opposite-Spin Scale   =       1.2000000000000000 [-]
	 SCS Same-Spin Energy      =      -0.1675727142088213 [Eh]
	 SCS Opposite-Spin Energy  =      -1.8501263578983427 [Eh]
	 SCS Correlation Energy    =      -2.0176990721071641 [Eh]
	 SCS Total Energy          =    -492.7287844708500870 [Eh]
	-----------------------------------------------------------

  Dipole Moment: [D]
     X:     1.1749      Y:     4.5252      Z:    -0.0000     Total:     4.6752

*** Psi4 exiting successfully. Buy a developer a beer!
