                               Psi4 1.3.2 release

  ==> Input File <==

--------------------------------------------------------------------------
#psi4
#
memory 32 gb

molecule  {
0 1
  O        2.3111590    -1.3984000     0.0000580
  O       -2.2718830    -1.4902890    -0.0001310
  N        1.1826080     0.6255060     0.0000550
  N        0.0348328    -1.3315206    -0.0000320
  C       -1.1837274     0.6631538    -0.0000231
  C       -0.0319280     1.2897490     0.0000350
  C        1.2605820    -0.7608720     0.0000310
  C       -1.2542960    -0.7955090    -0.0000670
  C        2.4243390     1.3942650     0.0001240
  C       -2.5504790     1.3758010    -0.0000570
  H        0.0516650     2.3739750     0.0000690
  H        0.0461780    -2.3935470    -0.0000610
  H        2.4800130     2.0209940     0.8935150
  H        2.4798690     2.0213500    -0.8930780
  H        3.2466700     0.6823050    -0.0000520
  H       -3.1375530     1.0948740    -0.8785960
  H       -2.4103180     2.4605130    -0.0000230
  H       -3.1376190     1.0948280     0.8784230
units angstrom
no_reorient  #important for SAPT in psi4, default
symmetry c1  #important for SAPT in psi4, default
}

set PROPERTIES_ORIGIN ["COM"]
properties('MP2/aug-cc-pvtz', properties = ['dipole'])
--------------------------------------------------------------------------

    Molecular point group: c1
  Charge       = 0
  Multiplicity = 1
  Basis Set: AUG-CC-PVTZ
    Blend: AUG-CC-PVTZ
  Basis Set: (AUG-CC-PVTZ AUX)
    Blend: AUG-CC-PVTZ-JKFIT

    Orbital Energies [Eh]
    ---------------------

    Doubly Occupied:

       1A    -20.546151     2A    -20.536647     3A    -15.632797
       4A    -15.627883     5A    -11.409320     6A    -11.381478
       7A    -11.317967     8A    -11.283137     9A    -11.255202
      10A    -11.239056    11A     -1.426251    12A     -1.389725
      13A     -1.308161    14A     -1.246811    15A     -1.112262
      16A     -0.990659    17A     -0.962398    18A     -0.915475
      19A     -0.860878    20A     -0.773814    21A     -0.724731
      22A     -0.691568    23A     -0.684107    24A     -0.649893
      25A     -0.638344    26A     -0.616309    27A     -0.609248
      28A     -0.584214    29A     -0.582197    30A     -0.550821
      31A     -0.543722    32A     -0.540644    33A     -0.490301
      34A     -0.474142    35A     -0.447885    36A     -0.433166
      37A     -0.352557

  @DF-RHF Final Energy:  -490.70480836011768

   => Energetics <=

    Nuclear Repulsion Energy =            531.8190121648447075
    One-Electron Energy =               -1723.3878058280533878
    Two-Electron Energy =                 700.8639853030909990
    Total Energy =                       -490.7048083601176813
  Basis Set: (AUG-CC-PVTZ AUX)
    Blend: AUG-CC-PVTZ-RI
    Molecular point group: c1

    Geometry (in Angstrom), charge = 0, multiplicity = 1:

       Center              X                  Y                   Z               Mass
    ------------   -----------------  -----------------  -----------------  -----------------
         O            2.302120353264    -1.336546183530     0.000058944009    15.994914619570
         O           -2.280921646736    -1.428435183530    -0.000130055991    15.994914619570
         N            1.173569353264     0.687359816470     0.000055944009    14.003074004430
         N            0.025794153264    -1.269666783530    -0.000031055991    14.003074004430
         C           -1.192766046736     0.725007616470    -0.000022155991    12.000000000000
         C           -0.040966646736     1.351602816470     0.000035944009    12.000000000000
         C            1.251543353264    -0.699018183530     0.000031944009    12.000000000000
         C           -1.263334646736    -0.733655183530    -0.000066055991    12.000000000000
         C            2.415300353264     1.456118816470     0.000124944009    12.000000000000
         C           -2.559517646736     1.437654816470    -0.000056055991    12.000000000000
         H            0.042626353264     2.435828816470     0.000069944009     1.007825032230
         H            0.037139353264    -2.331693183530    -0.000060055991     1.007825032230
         H            2.470974353264     2.082847816470     0.893515944009     1.007825032230
         H            2.470830353264     2.083203816470    -0.893077055991     1.007825032230
         H            3.237631353264     0.744158816470    -0.000051055991     1.007825032230
         H           -3.146591646736     1.156727816470    -0.878595055991     1.007825032230
         H           -2.419356646736     2.522366816470    -0.000022055991     1.007825032230
         H           -3.146657646736     1.156681816470     0.878423944009     1.007825032230

  Basis Set: AUG-CC-PVTZ
    Blend: AUG-CC-PVTZ
  Basis Set: (AUG-CC-PVTZ AUX)
    Blend: AUG-CC-PVTZ-JKFIT
	 Reference Energy          =    -490.7048083601176813 [Eh]
	 Singles Energy            =      -0.0000000000000000 [Eh]
	 Same-Spin Energy          =      -0.5025761549603540 [Eh]
	 Opposite-Spin Energy      =      -1.5415327560316090 [Eh]
	 Correlation Energy        =      -2.0441089109919632 [Eh]
	 Total Energy              =    -492.7489172711096330 [Eh]

	 ================> DF-SCS-MP2 Energies <==================
	-----------------------------------------------------------
	 SCS Same-Spin Scale       =       0.3333333333333333 [-]
	 SCS Opposite-Spin Scale   =       1.2000000000000000 [-]
	 SCS Same-Spin Energy      =      -0.1675253849867847 [Eh]
	 SCS Opposite-Spin Energy  =      -1.8498393072379307 [Eh]
	 SCS Correlation Energy    =      -2.0173646922247155 [Eh]
	 SCS Total Energy          =    -492.7221730523423844 [Eh]
	-----------------------------------------------------------

  Dipole Moment: [D]
     X:     0.8710      Y:     4.3983      Z:     0.0002     Total:     4.4837

*** Psi4 exiting successfully. Buy a developer a beer!
