                               Psi4 1.3.2 release

  ==> Input File <==

--------------------------------------------------------------------------
#psi4
#
memory 32 gb

molecule  {
0 1
  O        2.3111590    -1.3984000     0.0000580
  O       -2.2718830    -1.4902890    -0.0001310
  N        1.1826080     0.6255060     0.0000550
  N        0.0153410    -1.3761840    -0.0000340
  C       -1.2346770     0.6647280    -0.0000250
  C       -0.0319280     1.2897490     0.0000350
  C        1.2605820    -0.7608720     0.0000310
  C       -1.2542960    -0.7955090    -0.0000670
  C        2.4243390     1.3942650     0.0001240
  C       -2.5504790     1.3758010    -0.0000570
  H        0.0516650     2.3739750     0.0000690
  H        0.0461780    -2.3935470    -0.0000610
  H        2.4800130     2.0209940     0.8935150
  H        2.4798690     2.0213500    -0.8930780
  H        3.2466700     0.6823050    -0.0000520
  H       -3.0838579     1.1205682    -0.7982428
  H       -2.4103180     2.4605130    -0.0000230
  H       -3.1376190     1.0948280     0.8784230
units angstrom
no_reorient  #important for SAPT in psi4, default
symmetry c1  #important for SAPT in psi4, default
}

set PROPERTIES_ORIGIN ["COM"]
properties('MP2/aug-cc-pvtz', properties = ['dipole'])
--------------------------------------------------------------------------

    Molecular point group: c1
  Charge       = 0
  Multiplicity = 1
  Basis Set: AUG-CC-PVTZ
    Blend: AUG-CC-PVTZ
  Basis Set: (AUG-CC-PVTZ AUX)
    Blend: AUG-CC-PVTZ-JKFIT

    Orbital Energies [Eh]
    ---------------------

    Doubly Occupied:

       1A    -20.540346     2A    -20.538555     3A    -15.637885
       4A    -15.624494     5A    -11.413544     6A    -11.376182
       7A    -11.324533     8A    -11.285785     9A    -11.258986
      10A    -11.225244    11A     -1.423942    12A     -1.387025
      13A     -1.306548    14A     -1.242781    15A     -1.110185
      16A     -0.995404    17A     -0.968863    18A     -0.915482
      19A     -0.854619    20A     -0.770871    21A     -0.735646
      22A     -0.692094    23A     -0.682118    24A     -0.649696
      25A     -0.637844    26A     -0.618530    27A     -0.611002
      28A     -0.594711    29A     -0.587926    30A     -0.555762
      31A     -0.551780    32A     -0.543971    33A     -0.488588
      34A     -0.475169    35A     -0.444313    36A     -0.430630
      37A     -0.346282

  @DF-RHF Final Energy:  -490.70593763149890

   => Energetics <=

    Nuclear Repulsion Energy =            530.8491186055977096
    One-Electron Energy =               -1721.4154435344071317
    Two-Electron Energy =                 699.8603872973106945
    Total Energy =                       -490.7059376314988413
  Basis Set: (AUG-CC-PVTZ AUX)
    Blend: AUG-CC-PVTZ-RI
    Molecular point group: c1

    Geometry (in Angstrom), charge = 0, multiplicity = 1:

       Center              X                  Y                   Z               Mass
    ------------   -----------------  -----------------  -----------------  -----------------
         O            2.308048051994    -1.332400495005    -0.000518893934    15.994914619570
         O           -2.274993948006    -1.424289495005    -0.000707893934    15.994914619570
         N            1.179497051994     0.691505504995    -0.000521893934    14.003074004430
         N            0.012230051994    -1.310184495005    -0.000610893934    14.003074004430
         C           -1.237787948006     0.730727504995    -0.000601893934    12.000000000000
         C           -0.035038948006     1.355748504995    -0.000541893934    12.000000000000
         C            1.257471051994    -0.694872495005    -0.000545893934    12.000000000000
         C           -1.257406948006    -0.729509495005    -0.000643893934    12.000000000000
         C            2.421228051994     1.460264504995    -0.000452893934    12.000000000000
         C           -2.553589948006     1.441800504995    -0.000633893934    12.000000000000
         H            0.048554051994     2.439974504995    -0.000507893934     1.007825032230
         H            0.043067051994    -2.327547495005    -0.000637893934     1.007825032230
         H            2.476902051994     2.086993504995     0.892938106066     1.007825032230
         H            2.476758051994     2.087349504995    -0.893654893934     1.007825032230
         H            3.243559051994     0.748304504995    -0.000628893934     1.007825032230
         H           -3.086968848006     1.186567704995    -0.798819693934     1.007825032230
         H           -2.413428948006     2.526512504995    -0.000599893934     1.007825032230
         H           -3.140729948006     1.160827504995     0.877846106066     1.007825032230

  Basis Set: AUG-CC-PVTZ
    Blend: AUG-CC-PVTZ
  Basis Set: (AUG-CC-PVTZ AUX)
    Blend: AUG-CC-PVTZ-JKFIT
	 Reference Energy          =    -490.7059376314988981 [Eh]
	 Singles Energy            =      -0.0000000000000000 [Eh]
	 Same-Spin Energy          =      -0.5023802250078222 [Eh]
	 Opposite-Spin Energy      =      -1.5409536408987381 [Eh]
	 Correlation Energy        =      -2.0433338659065603 [Eh]
	 Total Energy              =    -492.7492714974054593 [Eh]

	 ================> DF-SCS-MP2 Energies <==================
	-----------------------------------------------------------
	 SCS Same-Spin Scale       =       0.3333333333333333 [-]
	 SCS Opposite-Spin Scale   =       1.2000000000000000 [-]
	 SCS Same-Spin Energy      =      -0.1674600750026074 [Eh]
	 SCS Opposite-Spin Energy  =      -1.8491443690784857 [Eh]
	 SCS Correlation Energy    =      -2.0166044440810929 [Eh]
	 SCS Total Energy          =    -492.7225420755800087 [Eh]
	-----------------------------------------------------------

  Dipole Moment: [D]
     X:     1.0240      Y:     4.5315      Z:    -0.0154     Total:     4.6458

*** Psi4 exiting successfully. Buy a developer a beer!
