                               Psi4 1.3.2 release

  ==> Input File <==

--------------------------------------------------------------------------
#psi4
#
memory 32 gb

molecule  {
0 1
  O        2.3111590    -1.3984000     0.0000580
  O       -2.2718830    -1.4902890    -0.0001310
  N        1.1826080     0.6255060     0.0000550
  N        0.0153410    -1.3761840    -0.0000340
  C       -1.2291769     0.6542560    -0.0000251
  C       -0.0319280     1.2897490     0.0000350
  C        1.2605820    -0.7608720     0.0000310
  C       -1.2542960    -0.7955090    -0.0000670
  C        2.4243390     1.3942650     0.0001240
  C       -2.5504790     1.3758010    -0.0000570
  H        0.0611234     2.3732042     0.0000693
  H        0.0461780    -2.3935470    -0.0000610
  H        2.4800130     2.0209940     0.8935150
  H        2.4798690     2.0213500    -0.8930780
  H        3.2466700     0.6823050    -0.0000520
  H       -3.1375530     1.0948740    -0.8785960
  H       -2.4103180     2.4605130    -0.0000230
  H       -3.1376190     1.0948280     0.8784230
units angstrom
no_reorient  #important for SAPT in psi4, default
symmetry c1  #important for SAPT in psi4, default
}

set PROPERTIES_ORIGIN ["COM"]
properties('MP2/aug-cc-pvtz', properties = ['dipole'])
--------------------------------------------------------------------------

    Molecular point group: c1
  Charge       = 0
  Multiplicity = 1
  Basis Set: AUG-CC-PVTZ
    Blend: AUG-CC-PVTZ
  Basis Set: (AUG-CC-PVTZ AUX)
    Blend: AUG-CC-PVTZ-JKFIT

    Orbital Energies [Eh]
    ---------------------

    Doubly Occupied:

       1A    -20.540404     2A    -20.538117     3A    -15.638251
       4A    -15.624335     5A    -11.413632     6A    -11.375486
       7A    -11.325956     8A    -11.286146     9A    -11.259159
      10A    -11.237456    11A     -1.424140    12A     -1.386919
      13A     -1.307123    14A     -1.242942    15A     -1.108704
      16A     -0.992988    17A     -0.963200    18A     -0.916246
      19A     -0.852502    20A     -0.771061    21A     -0.735066
      22A     -0.693156    23A     -0.682366    24A     -0.649357
      25A     -0.637908    26A     -0.615831    27A     -0.610206
      28A     -0.588055    29A     -0.583281    30A     -0.553389
      31A     -0.547996    32A     -0.543123    33A     -0.488256
      34A     -0.475642    35A     -0.444652    36A     -0.430450
      37A     -0.346256

  @DF-RHF Final Energy:  -490.71172809116842

   => Energetics <=

    Nuclear Repulsion Energy =            530.5169425172075535
    One-Electron Energy =               -1720.7978243152740561
    Two-Electron Energy =                 699.5691537068980779
    Total Energy =                       -490.7117280911684247
  Basis Set: (AUG-CC-PVTZ AUX)
    Blend: AUG-CC-PVTZ-RI
    Molecular point group: c1

    Geometry (in Angstrom), charge = 0, multiplicity = 1:

       Center              X                  Y                   Z               Mass
    ------------   -----------------  -----------------  -----------------  -----------------
         O            2.307895127791    -1.331312835169     0.000059313167    15.994914619570
         O           -2.275146872209    -1.423201835169    -0.000129686833    15.994914619570
         N            1.179344127791     0.692593164831     0.000056313167    14.003074004430
         N            0.012077127791    -1.309096835169    -0.000032686833    14.003074004430
         C           -1.232440772209     0.721343164831    -0.000023786833    12.000000000000
         C           -0.035191872209     1.356836164831     0.000036313167    12.000000000000
         C            1.257318127791    -0.693784835169     0.000032313167    12.000000000000
         C           -1.257559872209    -0.728421835169    -0.000065686833    12.000000000000
         C            2.421075127791     1.461352164831     0.000125313167    12.000000000000
         C           -2.553742872209     1.442888164831    -0.000055686833    12.000000000000
         H            0.057859527791     2.440291364831     0.000070613167     1.007825032230
         H            0.042914127791    -2.326459835169    -0.000059686833     1.007825032230
         H            2.476749127791     2.088081164831     0.893516313167     1.007825032230
         H            2.476605127791     2.088437164831    -0.893076686833     1.007825032230
         H            3.243406127791     0.749392164831    -0.000050686833     1.007825032230
         H           -3.140816872209     1.161961164831    -0.878594686833     1.007825032230
         H           -2.413581872209     2.527600164831    -0.000021686833     1.007825032230
         H           -3.140882872209     1.161915164831     0.878424313167     1.007825032230

  Basis Set: AUG-CC-PVTZ
    Blend: AUG-CC-PVTZ
  Basis Set: (AUG-CC-PVTZ AUX)
    Blend: AUG-CC-PVTZ-JKFIT
	 Reference Energy          =    -490.7117280911684247 [Eh]
	 Singles Energy            =      -0.0000000000000000 [Eh]
	 Same-Spin Energy          =      -0.5024541776284966 [Eh]
	 Opposite-Spin Energy      =      -1.5415390082396203 [Eh]
	 Correlation Energy        =      -2.0439931858681168 [Eh]
	 Total Energy              =    -492.7557212770365140 [Eh]

	 ================> DF-SCS-MP2 Energies <==================
	-----------------------------------------------------------
	 SCS Same-Spin Scale       =       0.3333333333333333 [-]
	 SCS Opposite-Spin Scale   =       1.2000000000000000 [-]
	 SCS Same-Spin Energy      =      -0.1674847258761655 [Eh]
	 SCS Opposite-Spin Energy  =      -1.8498468098875442 [Eh]
	 SCS Correlation Energy    =      -2.0173315357637098 [Eh]
	 SCS Total Energy          =    -492.7290596269321554 [Eh]
	-----------------------------------------------------------

  Dipole Moment: [D]
     X:     1.0742      Y:     4.5446      Z:     0.0002     Total:     4.6698

*** Psi4 exiting successfully. Buy a developer a beer!
