                               Psi4 1.3.2 release

  ==> Input File <==

--------------------------------------------------------------------------
#psi4
#
memory 32 gb

molecule  {
0 1
  O        2.2998726    -1.4166380     0.0000571
  O       -2.2718830    -1.4902890    -0.0001310
  N        1.1826080     0.6255060     0.0000550
  N        0.0262693    -1.3978227    -0.0000341
  C       -1.2346770     0.6647280    -0.0000250
  C       -0.0319280     1.2897490     0.0000350
  C        1.2605820    -0.7608720     0.0000310
  C       -1.2542960    -0.7955090    -0.0000670
  C        2.4243390     1.3942650     0.0001240
  C       -2.5504790     1.3758010    -0.0000570
  H        0.0516650     2.3739750     0.0000690
  H        0.0461780    -2.3935470    -0.0000610
  H        2.4800130     2.0209940     0.8935150
  H        2.4798690     2.0213500    -0.8930780
  H        3.2466700     0.6823050    -0.0000520
  H       -3.1375530     1.0948740    -0.8785960
  H       -2.4103180     2.4605130    -0.0000230
  H       -3.1376190     1.0948280     0.8784230
units angstrom
no_reorient  #important for SAPT in psi4, default
symmetry c1  #important for SAPT in psi4, default
}

set PROPERTIES_ORIGIN ["COM"]
properties('MP2/aug-cc-pvtz', properties = ['dipole'])
--------------------------------------------------------------------------

    Molecular point group: c1
  Charge       = 0
  Multiplicity = 1
  Basis Set: AUG-CC-PVTZ
    Blend: AUG-CC-PVTZ
  Basis Set: (AUG-CC-PVTZ AUX)
    Blend: AUG-CC-PVTZ-JKFIT

    Orbital Energies [Eh]
    ---------------------

    Doubly Occupied:

       1A    -20.539988     2A    -20.538234     3A    -15.639377
       4A    -15.621041     5A    -11.412220     6A    -11.377528
       7A    -11.326111     8A    -11.286954     9A    -11.260777
      10A    -11.237896    11A     -1.422662    12A     -1.386556
      13A     -1.306533    14A     -1.240151    15A     -1.109803
      16A     -0.993603    17A     -0.963354    18A     -0.914358
      19A     -0.849402    20A     -0.771450    21A     -0.738184
      22A     -0.693694    23A     -0.681575    24A     -0.649880
      25A     -0.635929    26A     -0.614645    27A     -0.611292
      28A     -0.589757    29A     -0.584326    30A     -0.556853
      31A     -0.548965    32A     -0.542261    33A     -0.488623
      34A     -0.474926    35A     -0.443157    36A     -0.428993
      37A     -0.346622

  @DF-RHF Final Energy:  -490.71175295302811

   => Energetics <=

    Nuclear Repulsion Energy =            529.9002056542921082
    One-Electron Energy =               -1719.5685555981958714
    Two-Electron Energy =                 698.9565969908755960
    Total Energy =                       -490.7117529530280535
  Basis Set: (AUG-CC-PVTZ AUX)
    Blend: AUG-CC-PVTZ-RI
    Molecular point group: c1

    Geometry (in Angstrom), charge = 0, multiplicity = 1:

       Center              X                  Y                   Z               Mass
    ------------   -----------------  -----------------  -----------------  -----------------
         O            2.297344340167    -1.346207357411     0.000058519538    15.994914619570
         O           -2.274411259833    -1.419858357411    -0.000129580462    15.994914619570
         N            1.180079740167     0.695936642589     0.000056419538    14.003074004430
         N            0.023741040167    -1.327392057411    -0.000032680462    14.003074004430
         C           -1.237205259833     0.735158642589    -0.000023580462    12.000000000000
         C           -0.034456259833     1.360179642589     0.000036419538    12.000000000000
         C            1.258053740167    -0.690441357411     0.000032419538    12.000000000000
         C           -1.256824259833    -0.725078357411    -0.000065580462    12.000000000000
         C            2.421810740167     1.464695642589     0.000125419538    12.000000000000
         C           -2.553007259833     1.446231642589    -0.000055580462    12.000000000000
         H            0.049136740167     2.444405642589     0.000070419538     1.007825032230
         H            0.043649740167    -2.323116357411    -0.000059580462     1.007825032230
         H            2.477484740167     2.091424642589     0.893516419538     1.007825032230
         H            2.477340740167     2.091780642589    -0.893076580462     1.007825032230
         H            3.244141740167     0.752735642589    -0.000050580462     1.007825032230
         H           -3.140081259833     1.165304642589    -0.878594580462     1.007825032230
         H           -2.412846259833     2.530943642589    -0.000021580462     1.007825032230
         H           -3.140147259833     1.165258642589     0.878424419538     1.007825032230

  Basis Set: AUG-CC-PVTZ
    Blend: AUG-CC-PVTZ
  Basis Set: (AUG-CC-PVTZ AUX)
    Blend: AUG-CC-PVTZ-JKFIT
	 Reference Energy          =    -490.7117529530281104 [Eh]
	 Singles Energy            =      -0.0000000000000000 [Eh]
	 Same-Spin Energy          =      -0.5019969200334926 [Eh]
	 Opposite-Spin Energy      =      -1.5410837324597795 [Eh]
	 Correlation Energy        =      -2.0430806524932721 [Eh]
	 Total Energy              =    -492.7548336055213554 [Eh]

	 ================> DF-SCS-MP2 Energies <==================
	-----------------------------------------------------------
	 SCS Same-Spin Scale       =       0.3333333333333333 [-]
	 SCS Opposite-Spin Scale   =       1.2000000000000000 [-]
	 SCS Same-Spin Energy      =      -0.1673323066778309 [Eh]
	 SCS Opposite-Spin Energy  =      -1.8493004789517353 [Eh]
	 SCS Correlation Energy    =      -2.0166327856295663 [Eh]
	 SCS Total Energy          =    -492.7283857386576642 [Eh]
	-----------------------------------------------------------

  Dipole Moment: [D]
     X:     0.9870      Y:     4.6106      Z:     0.0002     Total:     4.7150

*** Psi4 exiting successfully. Buy a developer a beer!
