                               Psi4 1.3.2 release

  ==> Input File <==

--------------------------------------------------------------------------
#psi4
#
memory 32 gb

molecule  {
0 1
  O        2.3111590    -1.3984000     0.0000580
  O       -2.2838536    -1.4724238    -0.0001310
  N        1.1826080     0.6255060     0.0000550
  N        0.0153410    -1.3761840    -0.0000340
  C       -1.2601646     0.6648480    -0.0000261
  C       -0.0319280     1.2897490     0.0000350
  C        1.2605820    -0.7608720     0.0000310
  C       -1.2542960    -0.7955090    -0.0000670
  C        2.4243390     1.3942650     0.0001240
  C       -2.5504790     1.3758010    -0.0000570
  H        0.0516650     2.3739750     0.0000690
  H        0.0461780    -2.3935470    -0.0000610
  H        2.4800130     2.0209940     0.8935150
  H        2.4798690     2.0213500    -0.8930780
  H        3.2466700     0.6823050    -0.0000520
  H       -3.1375530     1.0948740    -0.8785960
  H       -2.4103180     2.4605130    -0.0000230
  H       -3.1376190     1.0948280     0.8784230
units angstrom
no_reorient  #important for SAPT in psi4, default
symmetry c1  #important for SAPT in psi4, default
}

set PROPERTIES_ORIGIN ["COM"]
properties('MP2/aug-cc-pvtz', properties = ['dipole'])
--------------------------------------------------------------------------

    Molecular point group: c1
  Charge       = 0
  Multiplicity = 1
  Basis Set: AUG-CC-PVTZ
    Blend: AUG-CC-PVTZ
  Basis Set: (AUG-CC-PVTZ AUX)
    Blend: AUG-CC-PVTZ-JKFIT

    Orbital Energies [Eh]
    ---------------------

    Doubly Occupied:

       1A    -20.541296     2A    -20.537132     3A    -15.639574
       4A    -15.626032     5A    -11.414590     6A    -11.375283
       7A    -11.327270     8A    -11.286513     9A    -11.260595
      10A    -11.235336    11A     -1.424483    12A     -1.386370
      13A     -1.306774    14A     -1.243896    15A     -1.107402
      16A     -0.994125    17A     -0.965052    18A     -0.913733
      19A     -0.851756    20A     -0.768851    21A     -0.736428
      22A     -0.690795    23A     -0.682343    24A     -0.649659
      25A     -0.637682    26A     -0.616143    27A     -0.609572
      28A     -0.590670    29A     -0.585207    30A     -0.560532
      31A     -0.545523    32A     -0.542901    33A     -0.486601
      34A     -0.475182    35A     -0.443637    36A     -0.431307
      37A     -0.341624

  @DF-RHF Final Energy:  -490.70972972098093

   => Energetics <=

    Nuclear Repulsion Energy =            530.1745717839985446
    One-Electron Energy =               -1720.1048640895282915
    Two-Electron Energy =                 699.2205625845488157
    Total Energy =                       -490.7097297209809312
  Basis Set: (AUG-CC-PVTZ AUX)
    Blend: AUG-CC-PVTZ-RI
    Molecular point group: c1

    Geometry (in Angstrom), charge = 0, multiplicity = 1:

       Center              X                  Y                   Z               Mass
    ------------   -----------------  -----------------  -----------------  -----------------
         O            2.311985227429    -1.334266122198     0.000059401004    15.994914619570
         O           -2.283027372571    -1.408289922198    -0.000129598996    15.994914619570
         N            1.183434227429     0.689639877802     0.000056401004    14.003074004430
         N            0.016167227429    -1.312050122198    -0.000032598996    14.003074004430
         C           -1.259338372571     0.728981877802    -0.000024698996    12.000000000000
         C           -0.031101772571     1.353882877802     0.000036401004    12.000000000000
         C            1.261408227429    -0.696738122198     0.000032401004    12.000000000000
         C           -1.253469772571    -0.731375122198    -0.000065598996    12.000000000000
         C            2.425165227429     1.458398877802     0.000125401004    12.000000000000
         C           -2.549652772571     1.439934877802    -0.000055598996    12.000000000000
         H            0.052491227429     2.438108877802     0.000070401004     1.007825032230
         H            0.047004227429    -2.329413122198    -0.000059598996     1.007825032230
         H            2.480839227429     2.085127877802     0.893516401004     1.007825032230
         H            2.480695227429     2.085483877802    -0.893076598996     1.007825032230
         H            3.247496227429     0.746438877802    -0.000050598996     1.007825032230
         H           -3.136726772571     1.159007877802    -0.878594598996     1.007825032230
         H           -2.409491772571     2.524646877802    -0.000021598996     1.007825032230
         H           -3.136792772571     1.158961877802     0.878424401004     1.007825032230

  Basis Set: AUG-CC-PVTZ
    Blend: AUG-CC-PVTZ
  Basis Set: (AUG-CC-PVTZ AUX)
    Blend: AUG-CC-PVTZ-JKFIT
	 Reference Energy          =    -490.7097297209809312 [Eh]
	 Singles Energy            =      -0.0000000000000000 [Eh]
	 Same-Spin Energy          =      -0.5028571668800040 [Eh]
	 Opposite-Spin Energy      =      -1.5421714434930867 [Eh]
	 Correlation Energy        =      -2.0450286103730906 [Eh]
	 Total Energy              =    -492.7547583313540258 [Eh]

	 ================> DF-SCS-MP2 Energies <==================
	-----------------------------------------------------------
	 SCS Same-Spin Scale       =       0.3333333333333333 [-]
	 SCS Opposite-Spin Scale   =       1.2000000000000000 [-]
	 SCS Same-Spin Energy      =      -0.1676190556266680 [Eh]
	 SCS Opposite-Spin Energy  =      -1.8506057321917040 [Eh]
	 SCS Correlation Energy    =      -2.0182247878183719 [Eh]
	 SCS Total Energy          =    -492.7279545087993142 [Eh]
	-----------------------------------------------------------

  Dipole Moment: [D]
     X:     1.0841      Y:     4.4939      Z:     0.0002     Total:     4.6228

*** Psi4 exiting successfully. Buy a developer a beer!
