                               Psi4 1.3.2 release

  ==> Input File <==

--------------------------------------------------------------------------
#psi4
#
memory 32 gb

molecule  {
0 1
  O        2.3111590    -1.3984000     0.0000580
  O       -2.2718830    -1.4902890    -0.0001310
  N        1.1584242     0.6239340     0.0000539
  N        0.0047920    -1.3543578    -0.0000340
  C       -1.2346770     0.6647280    -0.0000250
  C       -0.0319280     1.2897490     0.0000350
  C        1.2605820    -0.7608720     0.0000310
  C       -1.2542960    -0.7955090    -0.0000670
  C        2.4243390     1.3942650     0.0001240
  C       -2.5504790     1.3758010    -0.0000570
  H        0.0516650     2.3739750     0.0000690
  H        0.0461780    -2.3935470    -0.0000610
  H        2.4800130     2.0209940     0.8935150
  H        2.4798690     2.0213500    -0.8930780
  H        3.2466700     0.6823050    -0.0000520
  H       -3.1375530     1.0948740    -0.8785960
  H       -2.4103180     2.4605130    -0.0000230
  H       -3.1376190     1.0948280     0.8784230
units angstrom
no_reorient  #important for SAPT in psi4, default
symmetry c1  #important for SAPT in psi4, default
}

set PROPERTIES_ORIGIN ["COM"]
properties('MP2/aug-cc-pvtz', properties = ['dipole'])
--------------------------------------------------------------------------

    Molecular point group: c1
  Charge       = 0
  Multiplicity = 1
  Basis Set: AUG-CC-PVTZ
    Blend: AUG-CC-PVTZ
  Basis Set: (AUG-CC-PVTZ AUX)
    Blend: AUG-CC-PVTZ-JKFIT

    Orbital Energies [Eh]
    ---------------------

    Doubly Occupied:

       1A    -20.544365     2A    -20.535021     3A    -15.638843
       4A    -15.626192     5A    -11.416093     6A    -11.372986
       7A    -11.322660     8A    -11.288579     9A    -11.256223
      10A    -11.235124    11A     -1.426134    12A     -1.385967
      13A     -1.311364    14A     -1.243774    15A     -1.106914
      16A     -0.992806    17A     -0.965922    18A     -0.914289
      19A     -0.856758    20A     -0.770721    21A     -0.729692
      22A     -0.692683    23A     -0.683335    24A     -0.647818
      25A     -0.639137    26A     -0.616202    27A     -0.605777
      28A     -0.587836    29A     -0.583103    30A     -0.555080
      31A     -0.545748    32A     -0.543937    33A     -0.492393
      34A     -0.476772    35A     -0.443485    36A     -0.430729
      37A     -0.343355

  @DF-RHF Final Energy:  -490.70919392931631

   => Energetics <=

    Nuclear Repulsion Energy =            531.0513692113860316
    One-Electron Energy =               -1721.8654909336005403
    Two-Electron Energy =                 700.1049277928982519
    Total Energy =                       -490.7091939293163705
  Basis Set: (AUG-CC-PVTZ AUX)
    Blend: AUG-CC-PVTZ-RI
    Molecular point group: c1

    Geometry (in Angstrom), charge = 0, multiplicity = 1:

       Center              X                  Y                   Z               Mass
    ------------   -----------------  -----------------  -----------------  -----------------
         O            2.311907017609    -1.334240623673     0.000059416736    15.994914619570
         O           -2.271134982391    -1.426129623673    -0.000129583264    15.994914619570
         N            1.159172217609     0.688093376327     0.000055316736    14.003074004430
         N            0.005540017609    -1.290198423673    -0.000032583264    14.003074004430
         C           -1.233928982391     0.728887376327    -0.000023583264    12.000000000000
         C           -0.031179982391     1.353908376327     0.000036416736    12.000000000000
         C            1.261330017609    -0.696712623673     0.000032416736    12.000000000000
         C           -1.253547982391    -0.731349623673    -0.000065583264    12.000000000000
         C            2.425087017609     1.458424376327     0.000125416736    12.000000000000
         C           -2.549730982391     1.439960376327    -0.000055583264    12.000000000000
         H            0.052413017609     2.438134376327     0.000070416736     1.007825032230
         H            0.046926017609    -2.329387623673    -0.000059583264     1.007825032230
         H            2.480761017609     2.085153376327     0.893516416736     1.007825032230
         H            2.480617017609     2.085509376327    -0.893076583264     1.007825032230
         H            3.247418017609     0.746464376327    -0.000050583264     1.007825032230
         H           -3.136804982391     1.159033376327    -0.878594583264     1.007825032230
         H           -2.409569982391     2.524672376327    -0.000021583264     1.007825032230
         H           -3.136870982391     1.158987376327     0.878424416736     1.007825032230

  Basis Set: AUG-CC-PVTZ
    Blend: AUG-CC-PVTZ
  Basis Set: (AUG-CC-PVTZ AUX)
    Blend: AUG-CC-PVTZ-JKFIT
	 Reference Energy          =    -490.7091939293163136 [Eh]
	 Singles Energy            =      -0.0000000000000000 [Eh]
	 Same-Spin Energy          =      -0.5030154847671546 [Eh]
	 Opposite-Spin Energy      =      -1.5421415847009343 [Eh]
	 Correlation Energy        =      -2.0451570694680887 [Eh]
	 Total Energy              =    -492.7543509987843890 [Eh]

	 ================> DF-SCS-MP2 Energies <==================
	-----------------------------------------------------------
	 SCS Same-Spin Scale       =       0.3333333333333333 [-]
	 SCS Opposite-Spin Scale   =       1.2000000000000000 [-]
	 SCS Same-Spin Energy      =      -0.1676718282557182 [Eh]
	 SCS Opposite-Spin Energy  =      -1.8505699016411210 [Eh]
	 SCS Correlation Energy    =      -2.0182417298968391 [Eh]
	 SCS Total Energy          =    -492.7274356592131426 [Eh]
	-----------------------------------------------------------

  Dipole Moment: [D]
     X:     1.2740      Y:     4.5123      Z:     0.0002     Total:     4.6887

*** Psi4 exiting successfully. Buy a developer a beer!
