                               Psi4 1.3.2 release

  ==> Input File <==

--------------------------------------------------------------------------
#psi4
#
memory 32 gb

molecule  {
0 1
  O        2.3111590    -1.3984000     0.0000580
  O       -2.2718830    -1.4902890    -0.0001310
  N        1.1826080     0.6255060     0.0000550
  N        0.0153410    -1.3761840    -0.0000340
  C       -1.2346770     0.6647280    -0.0000250
  C       -0.0319280     1.2897490     0.0000350
  C        1.4398864    -0.6722722     0.0000404
  C       -1.2542960    -0.7955090    -0.0000670
  C        2.4243390     1.3942650     0.0001240
  C       -2.5504790     1.3758010    -0.0000570
  H        0.0516650     2.3739750     0.0000690
  H        0.0461780    -2.3935470    -0.0000610
  H        2.4800130     2.0209940     0.8935150
  H        2.4798690     2.0213500    -0.8930780
  H        3.2466700     0.6823050    -0.0000520
  H       -3.1375530     1.0948740    -0.8785960
  H       -2.4103180     2.4605130    -0.0000230
  H       -3.1376190     1.0948280     0.8784230
units angstrom
no_reorient  #important for SAPT in psi4, default
symmetry c1  #important for SAPT in psi4, default
}

set PROPERTIES_ORIGIN ["COM"]
properties('MP2/aug-cc-pvtz', properties = ['dipole'])
--------------------------------------------------------------------------

    Molecular point group: c1
  Charge       = 0
  Multiplicity = 1
  Basis Set: AUG-CC-PVTZ
    Blend: AUG-CC-PVTZ
  Basis Set: (AUG-CC-PVTZ AUX)
    Blend: AUG-CC-PVTZ-JKFIT

    Orbital Energies [Eh]
    ---------------------

    Doubly Occupied:

       1A    -20.569714     2A    -20.518782     3A    -15.645124
       4A    -15.584974     5A    -11.418287     6A    -11.355127
       7A    -11.322428     8A    -11.292870     9A    -11.261141
      10A    -11.234839    11A     -1.486375    12A     -1.372196
      13A     -1.336324    14A     -1.188570    15A     -1.108404
      16A     -0.996818    17A     -0.977244    18A     -0.901676
      19A     -0.823462    20A     -0.764426    21A     -0.717724
      22A     -0.706314    23A     -0.697701    24A     -0.658329
      25A     -0.633878    26A     -0.611602    27A     -0.610546
      28A     -0.593746    29A     -0.589495    30A     -0.557637
      31A     -0.545745    32A     -0.544404    33A     -0.499496
      34A     -0.483487    35A     -0.422692    36A     -0.403249
      37A     -0.351157

  @DF-RHF Final Energy:  -490.67155257370115

   => Energetics <=

    Nuclear Repulsion Energy =            530.1342215665671347
    One-Electron Energy =               -1720.0395802879829716
    Two-Electron Energy =                 699.2338061477146312
    Total Energy =                       -490.6715525737010921
  Basis Set: (AUG-CC-PVTZ AUX)
    Blend: AUG-CC-PVTZ-RI
    Molecular point group: c1

    Geometry (in Angstrom), charge = 0, multiplicity = 1:

       Center              X                  Y                   Z               Mass
    ------------   -----------------  -----------------  -----------------  -----------------
         O            2.293071907216    -1.339806698613     0.000058501381    15.994914619570
         O           -2.289970092784    -1.431695698613    -0.000130498619    15.994914619570
         N            1.164520907216     0.684099301387     0.000055501381    14.003074004430
         N           -0.002746092784    -1.317590698613    -0.000033498619    14.003074004430
         C           -1.252764092784     0.723321301387    -0.000024498619    12.000000000000
         C           -0.050015092784     1.348342301387     0.000035501381    12.000000000000
         C            1.421799307216    -0.613678898613     0.000040901381    12.000000000000
         C           -1.272383092784    -0.736915698613    -0.000066498619    12.000000000000
         C            2.406251907216     1.452858301387     0.000124501381    12.000000000000
         C           -2.568566092784     1.434394301387    -0.000056498619    12.000000000000
         H            0.033577907216     2.432568301387     0.000069501381     1.007825032230
         H            0.028090907216    -2.334953698613    -0.000060498619     1.007825032230
         H            2.461925907216     2.079587301387     0.893515501381     1.007825032230
         H            2.461781907216     2.079943301387    -0.893077498619     1.007825032230
         H            3.228582907216     0.740898301387    -0.000051498619     1.007825032230
         H           -3.155640092784     1.153467301387    -0.878595498619     1.007825032230
         H           -2.428405092784     2.519106301387    -0.000022498619     1.007825032230
         H           -3.155706092784     1.153421301387     0.878423501381     1.007825032230

  Basis Set: AUG-CC-PVTZ
    Blend: AUG-CC-PVTZ
  Basis Set: (AUG-CC-PVTZ AUX)
    Blend: AUG-CC-PVTZ-JKFIT
	 Reference Energy          =    -490.6715525737011490 [Eh]
	 Singles Energy            =      -0.0000000000000000 [Eh]
	 Same-Spin Energy          =      -0.5021093836862649 [Eh]
	 Opposite-Spin Energy      =      -1.5423887783067709 [Eh]
	 Correlation Energy        =      -2.0444981619930358 [Eh]
	 Total Energy              =    -492.7160507356941821 [Eh]

	 ================> DF-SCS-MP2 Energies <==================
	-----------------------------------------------------------
	 SCS Same-Spin Scale       =       0.3333333333333333 [-]
	 SCS Opposite-Spin Scale   =       1.2000000000000000 [-]
	 SCS Same-Spin Energy      =      -0.1673697945620883 [Eh]
	 SCS Opposite-Spin Energy  =      -1.8508665339681249 [Eh]
	 SCS Correlation Energy    =      -2.0182363285302132 [Eh]
	 SCS Total Energy          =    -492.6897889022313848 [Eh]
	-----------------------------------------------------------

  Dipole Moment: [D]
     X:     2.4879      Y:     4.8946      Z:     0.0002     Total:     5.4906

*** Psi4 exiting successfully. Buy a developer a beer!
