                               Psi4 1.3.2 release

  ==> Input File <==

--------------------------------------------------------------------------
#psi4
#
memory 32 gb

molecule  {
0 1
  O        2.3111590    -1.3984000     0.0000580
  O       -2.2718830    -1.4902890    -0.0001310
  N        1.1826080     0.6255060     0.0000550
  N        0.0153410    -1.3761840    -0.0000340
  C       -1.2346770     0.6647280    -0.0000250
  C       -0.0374281     1.3002210     0.0000350
  C        1.2605820    -0.7608720     0.0000310
  C       -1.2542960    -0.7955090    -0.0000670
  C        2.4243390     1.3942650     0.0001240
  C       -2.5442237     1.3872563    -0.0000565
  H        0.0516650     2.3739750     0.0000690
  H        0.0461780    -2.3935470    -0.0000610
  H        2.4800130     2.0209940     0.8935150
  H        2.4798690     2.0213500    -0.8930780
  H        3.2466700     0.6823050    -0.0000520
  H       -3.1375530     1.0948740    -0.8785960
  H       -2.4103180     2.4605130    -0.0000230
  H       -3.1376190     1.0948280     0.8784230
units angstrom
no_reorient  #important for SAPT in psi4, default
symmetry c1  #important for SAPT in psi4, default
}

set PROPERTIES_ORIGIN ["COM"]
properties('MP2/aug-cc-pvtz', properties = ['dipole'])
--------------------------------------------------------------------------

    Molecular point group: c1
  Charge       = 0
  Multiplicity = 1
  Basis Set: AUG-CC-PVTZ
    Blend: AUG-CC-PVTZ
  Basis Set: (AUG-CC-PVTZ AUX)
    Blend: AUG-CC-PVTZ-JKFIT

    Orbital Energies [Eh]
    ---------------------

    Doubly Occupied:

       1A    -20.539990     2A    -20.539455     3A    -15.637141
       4A    -15.624685     5A    -11.413298     6A    -11.377335
       7A    -11.324597     8A    -11.285108     9A    -11.260731
      10A    -11.237367    11A     -1.423402    12A     -1.387515
      13A     -1.304247    14A     -1.242412    15A     -1.109670
      16A     -0.991770    17A     -0.963614    18A     -0.915008
      19A     -0.851855    20A     -0.769973    21A     -0.735227
      22A     -0.694051    23A     -0.680933    24A     -0.648721
      25A     -0.638257    26A     -0.615173    27A     -0.611720
      28A     -0.588416    29A     -0.581934    30A     -0.556912
      31A     -0.548708    32A     -0.542677    33A     -0.485931
      34A     -0.475483    35A     -0.445055    36A     -0.430673
      37A     -0.346221

  @DF-RHF Final Energy:  -490.71148332743269

   => Energetics <=

    Nuclear Repulsion Energy =            530.1434816431158197
    One-Electron Energy =               -1720.0593944275856302
    Two-Electron Energy =                 699.2044294570371221
    Total Energy =                       -490.7114833274326884
  Basis Set: (AUG-CC-PVTZ AUX)
    Blend: AUG-CC-PVTZ-RI
    Molecular point group: c1

    Geometry (in Angstrom), charge = 0, multiplicity = 1:

       Center              X                  Y                   Z               Mass
    ------------   -----------------  -----------------  -----------------  -----------------
         O            2.308369723588    -1.334094303027     0.000059263919    15.994914619570
         O           -2.274672276412    -1.425983303027    -0.000129736081    15.994914619570
         N            1.179818723588     0.689811696973     0.000056263919    14.003074004430
         N            0.012551723588    -1.311878303027    -0.000032736081    14.003074004430
         C           -1.237466276412     0.729033696973    -0.000023736081    12.000000000000
         C           -0.040217376412     1.364526696973     0.000036263919    12.000000000000
         C            1.257792723588    -0.696566303027     0.000032263919    12.000000000000
         C           -1.257085276412    -0.731203303027    -0.000065736081    12.000000000000
         C            2.421549723588     1.458570696973     0.000125263919    12.000000000000
         C           -2.547012976412     1.451561996973    -0.000055236081    12.000000000000
         H            0.048875723588     2.438280696973     0.000070263919     1.007825032230
         H            0.043388723588    -2.329241303027    -0.000059736081     1.007825032230
         H            2.477223723588     2.085299696973     0.893516263919     1.007825032230
         H            2.477079723588     2.085655696973    -0.893076736081     1.007825032230
         H            3.243880723588     0.746610696973    -0.000050736081     1.007825032230
         H           -3.140342276412     1.159179696973    -0.878594736081     1.007825032230
         H           -2.413107276412     2.524818696973    -0.000021736081     1.007825032230
         H           -3.140408276412     1.159133696973     0.878424263919     1.007825032230

  Basis Set: AUG-CC-PVTZ
    Blend: AUG-CC-PVTZ
  Basis Set: (AUG-CC-PVTZ AUX)
    Blend: AUG-CC-PVTZ-JKFIT
	 Reference Energy          =    -490.7114833274326884 [Eh]
	 Singles Energy            =      -0.0000000000000000 [Eh]
	 Same-Spin Energy          =      -0.5023329511431674 [Eh]
	 Opposite-Spin Energy      =      -1.5415458887310789 [Eh]
	 Correlation Energy        =      -2.0438788398742465 [Eh]
	 Total Energy              =    -492.7553621673069415 [Eh]

	 ================> DF-SCS-MP2 Energies <==================
	-----------------------------------------------------------
	 SCS Same-Spin Scale       =       0.3333333333333333 [-]
	 SCS Opposite-Spin Scale   =       1.2000000000000000 [-]
	 SCS Same-Spin Energy      =      -0.1674443170477225 [Eh]
	 SCS Opposite-Spin Energy  =      -1.8498550664772946 [Eh]
	 SCS Correlation Energy    =      -2.0172993835250170 [Eh]
	 SCS Total Energy          =    -492.7287827109577165 [Eh]
	-----------------------------------------------------------

  Dipole Moment: [D]
     X:     0.9944      Y:     4.5324      Z:     0.0002     Total:     4.6402

*** Psi4 exiting successfully. Buy a developer a beer!
