                               Psi4 1.3.2 release

  ==> Input File <==

--------------------------------------------------------------------------
#psi4
#
memory 32 gb

molecule  {
0 1
  O        2.3111590    -1.3984000     0.0000580
  O       -2.2718830    -1.4902890    -0.0001310
  N        1.1586864     0.5835239     0.0000530
  N        0.0153410    -1.3761840    -0.0000340
  C       -1.2346770     0.6647280    -0.0000250
  C       -0.0319280     1.2897490     0.0000350
  C        1.2605820    -0.7608720     0.0000310
  C       -1.2542960    -0.7955090    -0.0000670
  C        2.4243390     1.3942650     0.0001240
  C       -2.5504790     1.3758010    -0.0000570
  H        0.0137751     2.3762319     0.0000678
  H        0.0461780    -2.3935470    -0.0000610
  H        2.4800130     2.0209940     0.8935150
  H        2.4798690     2.0213500    -0.8930780
  H        3.2466700     0.6823050    -0.0000520
  H       -3.1375530     1.0948740    -0.8785960
  H       -2.4103180     2.4605130    -0.0000230
  H       -3.1376190     1.0948280     0.8784230
units angstrom
no_reorient  #important for SAPT in psi4, default
symmetry c1  #important for SAPT in psi4, default
}

set PROPERTIES_ORIGIN ["COM"]
properties('MP2/aug-cc-pvtz', properties = ['dipole'])
--------------------------------------------------------------------------

    Molecular point group: c1
  Charge       = 0
  Multiplicity = 1
  Basis Set: AUG-CC-PVTZ
    Blend: AUG-CC-PVTZ
  Basis Set: (AUG-CC-PVTZ AUX)
    Blend: AUG-CC-PVTZ-JKFIT

    Orbital Energies [Eh]
    ---------------------

    Doubly Occupied:

       1A    -20.537555     2A    -20.535255     3A    -15.638830
       4A    -15.621025     5A    -11.408006     6A    -11.375265
       7A    -11.325020     8A    -11.290417     9A    -11.260368
      10A    -11.237664    11A     -1.424825    12A     -1.385849
      13A     -1.307623    14A     -1.238545    15A     -1.109937
      16A     -0.991319    17A     -0.970832    18A     -0.914572
      19A     -0.851423    20A     -0.773782    21A     -0.732834
      22A     -0.693001    23A     -0.682976    24A     -0.642737
      25A     -0.637203    26A     -0.614015    27A     -0.604648
      28A     -0.591873    29A     -0.584456    30A     -0.556351
      31A     -0.546583    32A     -0.544271    33A     -0.488948
      34A     -0.473622    35A     -0.442693    36A     -0.428724
      37A     -0.347846

  @DF-RHF Final Energy:  -490.70950800129913

   => Energetics <=

    Nuclear Repulsion Energy =            531.0106847258017524
    One-Electron Energy =               -1721.8186013911981718
    Two-Electron Energy =                 700.0984086640974056
    Total Energy =                       -490.7095080012991275
  Basis Set: (AUG-CC-PVTZ AUX)
    Blend: AUG-CC-PVTZ-RI
    Molecular point group: c1

    Geometry (in Angstrom), charge = 0, multiplicity = 1:

       Center              X                  Y                   Z               Mass
    ------------   -----------------  -----------------  -----------------  -----------------
         O            2.311098758337    -1.328034470720     0.000059515353    15.994914619570
         O           -2.271943241663    -1.419923470720    -0.000129484647    15.994914619570
         N            1.158626158337     0.653889429280     0.000054515353    14.003074004430
         N            0.015280758337    -1.305818470720    -0.000032484647    14.003074004430
         C           -1.234737241663     0.735093529280    -0.000023484647    12.000000000000
         C           -0.031988241663     1.360114529280     0.000036515353    12.000000000000
         C            1.260521758337    -0.690506470720     0.000032515353    12.000000000000
         C           -1.254356241663    -0.725143470720    -0.000065484647    12.000000000000
         C            2.424278758337     1.464630529280     0.000125515353    12.000000000000
         C           -2.550539241663     1.446166529280    -0.000055484647    12.000000000000
         H            0.013714858337     2.446597429280     0.000069315353     1.007825032230
         H            0.046117758337    -2.323181470720    -0.000059484647     1.007825032230
         H            2.479952758337     2.091359529280     0.893516515353     1.007825032230
         H            2.479808758337     2.091715529280    -0.893076484647     1.007825032230
         H            3.246609758337     0.752670529280    -0.000050484647     1.007825032230
         H           -3.137613241663     1.165239529280    -0.878594484647     1.007825032230
         H           -2.410378241663     2.530878529280    -0.000021484647     1.007825032230
         H           -3.137679241663     1.165193529280     0.878424515353     1.007825032230

  Basis Set: AUG-CC-PVTZ
    Blend: AUG-CC-PVTZ
  Basis Set: (AUG-CC-PVTZ AUX)
    Blend: AUG-CC-PVTZ-JKFIT
	 Reference Energy          =    -490.7095080012991275 [Eh]
	 Singles Energy            =      -0.0000000000000000 [Eh]
	 Same-Spin Energy          =      -0.5022525692490548 [Eh]
	 Opposite-Spin Energy      =      -1.5412929900277121 [Eh]
	 Correlation Energy        =      -2.0435455592767671 [Eh]
	 Total Energy              =    -492.7530535605758928 [Eh]

	 ================> DF-SCS-MP2 Energies <==================
	-----------------------------------------------------------
	 SCS Same-Spin Scale       =       0.3333333333333333 [-]
	 SCS Opposite-Spin Scale   =       1.2000000000000000 [-]
	 SCS Same-Spin Energy      =      -0.1674175230830183 [Eh]
	 SCS Opposite-Spin Energy  =      -1.8495515880332545 [Eh]
	 SCS Correlation Energy    =      -2.0169691111162726 [Eh]
	 SCS Total Energy          =    -492.7264771124154095 [Eh]
	-----------------------------------------------------------

  Dipole Moment: [D]
     X:     1.0090      Y:     4.7454      Z:     0.0002     Total:     4.8514

*** Psi4 exiting successfully. Buy a developer a beer!
