                               Psi4 1.3.2 release

  ==> Input File <==

--------------------------------------------------------------------------
#psi4
#
memory 32 gb

molecule  {
0 1
  O        2.3111590    -1.3984000     0.0000580
  O       -2.2718830    -1.4902890    -0.0001310
  N        1.1826080     0.6255060     0.0000550
  N        0.0153410    -1.3761840    -0.0000340
  C       -1.2346770     0.6647280    -0.0000250
  C       -0.0319280     1.2897490     0.0000350
  C        1.2266725    -0.6965444     0.0000315
  C       -1.2221658    -0.7298571    -0.0000640
  C        2.4243390     1.3942650     0.0001240
  C       -2.5504790     1.3758010    -0.0000570
  H        0.0516650     2.3739750     0.0000690
  H        0.0461780    -2.3935470    -0.0000610
  H        2.4800130     2.0209940     0.8935150
  H        2.4798690     2.0213500    -0.8930780
  H        3.2466700     0.6823050    -0.0000520
  H       -3.1375530     1.0948740    -0.8785960
  H       -2.4103180     2.4605130    -0.0000230
  H       -3.1376190     1.0948280     0.8784230
units angstrom
no_reorient  #important for SAPT in psi4, default
symmetry c1  #important for SAPT in psi4, default
}

set PROPERTIES_ORIGIN ["COM"]
properties('MP2/aug-cc-pvtz', properties = ['dipole'])
--------------------------------------------------------------------------

    Molecular point group: c1
  Charge       = 0
  Multiplicity = 1
  Basis Set: AUG-CC-PVTZ
    Blend: AUG-CC-PVTZ
  Basis Set: (AUG-CC-PVTZ AUX)
    Blend: AUG-CC-PVTZ-JKFIT

    Orbital Energies [Eh]
    ---------------------

    Doubly Occupied:

       1A    -20.527591     2A    -20.524562     3A    -15.655013
       4A    -15.631139     5A    -11.411231     6A    -11.376081
       7A    -11.339521     8A    -11.295179     9A    -11.267633
      10A    -11.243634    11A     -1.413946    12A     -1.347868
      13A     -1.303098    14A     -1.237324    15A     -1.127374
      16A     -1.007470    17A     -0.980013    18A     -0.933305
      19A     -0.851598    20A     -0.784659    21A     -0.750217
      22A     -0.698940    23A     -0.694378    24A     -0.648992
      25A     -0.617560    26A     -0.616583    27A     -0.602819
      28A     -0.591119    29A     -0.585220    30A     -0.562517
      31A     -0.551667    32A     -0.529356    33A     -0.487891
      34A     -0.461182    35A     -0.434417    36A     -0.416185
      37A     -0.357345

  @DF-RHF Final Energy:  -490.68633524382960

   => Energetics <=

    Nuclear Repulsion Energy =            531.3284580463222255
    One-Electron Energy =               -1722.3003354664565450
    Two-Electron Energy =                 700.2855421763046024
    Total Energy =                       -490.6863352438296033
  Basis Set: (AUG-CC-PVTZ AUX)
    Blend: AUG-CC-PVTZ-RI
    Molecular point group: c1

    Geometry (in Angstrom), charge = 0, multiplicity = 1:

       Center              X                  Y                   Z               Mass
    ------------   -----------------  -----------------  -----------------  -----------------
         O            2.308586875587    -1.343352046630     0.000059006884    15.994914619570
         O           -2.274455124413    -1.435241046630    -0.000129993116    15.994914619570
         N            1.180035875587     0.680553953370     0.000056006884    14.003074004430
         N            0.012768875587    -1.321136046630    -0.000032993116    14.003074004430
         C           -1.237249124413     0.719775953370    -0.000023993116    12.000000000000
         C           -0.034500124413     1.344796953370     0.000036006884    12.000000000000
         C            1.224100375587    -0.641496446630     0.000032506884    12.000000000000
         C           -1.224737924413    -0.674809146630    -0.000062993116    12.000000000000
         C            2.421766875587     1.449312953370     0.000125006884    12.000000000000
         C           -2.553051124413     1.430848953370    -0.000055993116    12.000000000000
         H            0.049092875587     2.429022953370     0.000070006884     1.007825032230
         H            0.043605875587    -2.338499046630    -0.000059993116     1.007825032230
         H            2.477440875587     2.076041953370     0.893516006884     1.007825032230
         H            2.477296875587     2.076397953370    -0.893076993116     1.007825032230
         H            3.244097875587     0.737352953370    -0.000050993116     1.007825032230
         H           -3.140125124413     1.149921953370    -0.878594993116     1.007825032230
         H           -2.412890124413     2.515560953370    -0.000021993116     1.007825032230
         H           -3.140191124413     1.149875953370     0.878424006884     1.007825032230

  Basis Set: AUG-CC-PVTZ
    Blend: AUG-CC-PVTZ
  Basis Set: (AUG-CC-PVTZ AUX)
    Blend: AUG-CC-PVTZ-JKFIT
	 Reference Energy          =    -490.6863352438296033 [Eh]
	 Singles Energy            =      -0.0000000000000000 [Eh]
	 Same-Spin Energy          =      -0.5053081351480538 [Eh]
	 Opposite-Spin Energy      =      -1.5466758612073248 [Eh]
	 Correlation Energy        =      -2.0519839963553785 [Eh]
	 Total Energy              =    -492.7383192401849783 [Eh]

	 ================> DF-SCS-MP2 Energies <==================
	-----------------------------------------------------------
	 SCS Same-Spin Scale       =       0.3333333333333333 [-]
	 SCS Opposite-Spin Scale   =       1.2000000000000000 [-]
	 SCS Same-Spin Energy      =      -0.1684360450493513 [Eh]
	 SCS Opposite-Spin Energy  =      -1.8560110334487896 [Eh]
	 SCS Correlation Energy    =      -2.0244470784981408 [Eh]
	 SCS Total Energy          =    -492.7107823223277592 [Eh]
	-----------------------------------------------------------

  Dipole Moment: [D]
     X:     0.9428      Y:     5.4516      Z:     0.0002     Total:     5.5325

*** Psi4 exiting successfully. Buy a developer a beer!
