                               Psi4 1.3.2 release

  ==> Input File <==

--------------------------------------------------------------------------
#psi4
#
memory 32 gb

molecule  {
0 1
  O        2.2998726    -1.4166380     0.0000572
  O       -2.2718830    -1.4902890    -0.0001310
  N        1.1584242     0.6239340     0.0000541
  N        0.0153410    -1.3761840    -0.0000340
  C       -1.2346770     0.6647280    -0.0000250
  C       -0.0319280     1.2897490     0.0000350
  C        1.2605820    -0.7608720     0.0000310
  C       -1.2542960    -0.7955090    -0.0000670
  C        2.4243390     1.3942650     0.0001240
  C       -2.5504790     1.3758010    -0.0000570
  H        0.0516650     2.3739750     0.0000690
  H        0.0461780    -2.3935470    -0.0000610
  H        2.4800130     2.0209940     0.8935150
  H        2.4798690     2.0213500    -0.8930780
  H        3.2466700     0.6823050    -0.0000520
  H       -3.1375530     1.0948740    -0.8785960
  H       -2.4103180     2.4605130    -0.0000230
  H       -3.1376190     1.0948280     0.8784230
units angstrom
no_reorient  #important for SAPT in psi4, default
symmetry c1  #important for SAPT in psi4, default
}

set PROPERTIES_ORIGIN ["COM"]
properties('MP2/aug-cc-pvtz', properties = ['dipole'])
--------------------------------------------------------------------------

    Molecular point group: c1
  Charge       = 0
  Multiplicity = 1
  Basis Set: AUG-CC-PVTZ
    Blend: AUG-CC-PVTZ
  Basis Set: (AUG-CC-PVTZ AUX)
    Blend: AUG-CC-PVTZ-JKFIT

    Orbital Energies [Eh]
    ---------------------

    Doubly Occupied:

       1A    -20.542067     2A    -20.536450     3A    -15.639986
       4A    -15.622680     5A    -11.414474     6A    -11.374328
       7A    -11.323816     8A    -11.289553     9A    -11.257302
      10A    -11.235871    11A     -1.424610    12A     -1.385398
      13A     -1.310971    14A     -1.240998    15A     -1.107621
      16A     -0.993132    17A     -0.965150    18A     -0.914357
      19A     -0.853511    20A     -0.771177    21A     -0.733076
      22A     -0.694437    23A     -0.682597    24A     -0.647574
      25A     -0.637764    26A     -0.615163    27A     -0.607315
      28A     -0.589039    29A     -0.583446    30A     -0.556500
      31A     -0.546803    32A     -0.542908    33A     -0.492940
      34A     -0.476175    35A     -0.442715    36A     -0.429246
      37A     -0.344033

  @DF-RHF Final Energy:  -490.71086657074227

   => Energetics <=

    Nuclear Repulsion Energy =            530.5639811494660307
    One-Electron Energy =               -1720.8993300189142701
    Two-Electron Energy =                 699.6244822987060843
    Total Energy =                       -490.7108665707422688
  Basis Set: (AUG-CC-PVTZ AUX)
    Blend: AUG-CC-PVTZ-RI
    Molecular point group: c1

    Geometry (in Angstrom), charge = 0, multiplicity = 1:

       Center              X                  Y                   Z               Mass
    ------------   -----------------  -----------------  -----------------  -----------------
         O            2.300854852294    -1.348213628573     0.000058688102    15.994914619570
         O           -2.270900747706    -1.421864628573    -0.000129511898    15.994914619570
         N            1.159406452294     0.692358371427     0.000055588102    14.003074004430
         N            0.016323252294    -1.307759628573    -0.000032511898    14.003074004430
         C           -1.233694747706     0.733152371427    -0.000023511898    12.000000000000
         C           -0.030945747706     1.358173371427     0.000036488102    12.000000000000
         C            1.261564252294    -0.692447628573     0.000032488102    12.000000000000
         C           -1.253313747706    -0.727084628573    -0.000065511898    12.000000000000
         C            2.425321252294     1.462689371427     0.000125488102    12.000000000000
         C           -2.549496747706     1.444225371427    -0.000055511898    12.000000000000
         H            0.052647252294     2.442399371427     0.000070488102     1.007825032230
         H            0.047160252294    -2.325122628573    -0.000059511898     1.007825032230
         H            2.480995252294     2.089418371427     0.893516488102     1.007825032230
         H            2.480851252294     2.089774371427    -0.893076511898     1.007825032230
         H            3.247652252294     0.750729371427    -0.000050511898     1.007825032230
         H           -3.136570747706     1.163298371427    -0.878594511898     1.007825032230
         H           -2.409335747706     2.528937371427    -0.000021511898     1.007825032230
         H           -3.136636747706     1.163252371427     0.878424488102     1.007825032230

  Basis Set: AUG-CC-PVTZ
    Blend: AUG-CC-PVTZ
  Basis Set: (AUG-CC-PVTZ AUX)
    Blend: AUG-CC-PVTZ-JKFIT
	 Reference Energy          =    -490.7108665707422688 [Eh]
	 Singles Energy            =      -0.0000000000000000 [Eh]
	 Same-Spin Energy          =      -0.5025672842412321 [Eh]
	 Opposite-Spin Energy      =      -1.5416244852988681 [Eh]
	 Correlation Energy        =      -2.0441917695401002 [Eh]
	 Total Energy              =    -492.7550583402823463 [Eh]

	 ================> DF-SCS-MP2 Energies <==================
	-----------------------------------------------------------
	 SCS Same-Spin Scale       =       0.3333333333333333 [-]
	 SCS Opposite-Spin Scale   =       1.2000000000000000 [-]
	 SCS Same-Spin Energy      =      -0.1675224280804107 [Eh]
	 SCS Opposite-Spin Energy  =      -1.8499493823586417 [Eh]
	 SCS Correlation Energy    =      -2.0174718104390523 [Eh]
	 SCS Total Energy          =    -492.7283383811813451 [Eh]
	-----------------------------------------------------------

  Dipole Moment: [D]
     X:     1.2137      Y:     4.5968      Z:     0.0002     Total:     4.7543

*** Psi4 exiting successfully. Buy a developer a beer!
