                               Psi4 1.3.2 release

  ==> Input File <==

--------------------------------------------------------------------------
#psi4
#
memory 32 gb

molecule  {
0 1
  O        2.3111590    -1.3984000     0.0000580
  O       -2.2718830    -1.4902890    -0.0001310
  N        1.1826080     0.6255060     0.0000550
  N        0.0153410    -1.3761840    -0.0000340
  C       -1.2557572     0.7070841    -0.0000245
  C       -0.0319280     1.2897490     0.0000350
  C        1.2605820    -0.7608720     0.0000310
  C       -1.2542960    -0.7955090    -0.0000670
  C        2.4243390     1.3942650     0.0001240
  C       -2.5504790     1.3758010    -0.0000570
  H        0.0137751     2.3762319     0.0000677
  H        0.0461780    -2.3935470    -0.0000610
  H        2.4800130     2.0209940     0.8935150
  H        2.4798690     2.0213500    -0.8930780
  H        3.2466700     0.6823050    -0.0000520
  H       -3.1375530     1.0948740    -0.8785960
  H       -2.4103180     2.4605130    -0.0000230
  H       -3.1376190     1.0948280     0.8784230
units angstrom
no_reorient  #important for SAPT in psi4, default
symmetry c1  #important for SAPT in psi4, default
}

set PROPERTIES_ORIGIN ["COM"]
properties('MP2/aug-cc-pvtz', properties = ['dipole'])
--------------------------------------------------------------------------

    Molecular point group: c1
  Charge       = 0
  Multiplicity = 1
  Basis Set: AUG-CC-PVTZ
    Blend: AUG-CC-PVTZ
  Basis Set: (AUG-CC-PVTZ AUX)
    Blend: AUG-CC-PVTZ-JKFIT

    Orbital Energies [Eh]
    ---------------------

    Doubly Occupied:

       1A    -20.540951     2A    -20.540120     3A    -15.638067
       4A    -15.625591     5A    -11.414047     6A    -11.378694
       7A    -11.321299     8A    -11.285345     9A    -11.261724
      10A    -11.235901    11A     -1.423951    12A     -1.387244
      13A     -1.305536    14A     -1.242796    15A     -1.110992
      16A     -0.994290    17A     -0.966300    18A     -0.906428
      19A     -0.853717    20A     -0.769651    21A     -0.734163
      22A     -0.688806    23A     -0.681482    24A     -0.650096
      25A     -0.637312    26A     -0.615151    27A     -0.608156
      28A     -0.593126    29A     -0.587117    30A     -0.563652
      31A     -0.545795    32A     -0.543387    33A     -0.487063
      34A     -0.473891    35A     -0.442303    36A     -0.431092
      37A     -0.344616

  @DF-RHF Final Energy:  -490.70938099049351

   => Energetics <=

    Nuclear Repulsion Energy =            529.8462293103111733
    One-Electron Energy =               -1719.4515153782931520
    Two-Electron Energy =                 698.8959050774884645
    Total Energy =                       -490.7093809904935142
  Basis Set: (AUG-CC-PVTZ AUX)
    Blend: AUG-CC-PVTZ-RI
    Molecular point group: c1

    Geometry (in Angstrom), charge = 0, multiplicity = 1:

       Center              X                  Y                   Z               Mass
    ------------   -----------------  -----------------  -----------------  -----------------
         O            2.310513192379    -1.335860850744     0.000059273273    15.994914619570
         O           -2.272528807621    -1.427749850744    -0.000129726727    15.994914619570
         N            1.181962192379     0.688045149256     0.000056273273    14.003074004430
         N            0.014695192379    -1.313644850744    -0.000032726727    14.003074004430
         C           -1.256403007621     0.769623249256    -0.000023226727    12.000000000000
         C           -0.032573807621     1.352288149256     0.000036273273    12.000000000000
         C            1.259936192379    -0.698332850744     0.000032273273    12.000000000000
         C           -1.254941807621    -0.732969850744    -0.000065726727    12.000000000000
         C            2.423693192379     1.456804149256     0.000125273273    12.000000000000
         C           -2.551124807621     1.438340149256    -0.000055726727    12.000000000000
         H            0.013129292379     2.438771049256     0.000068973273     1.007825032230
         H            0.045532192379    -2.331007850744    -0.000059726727     1.007825032230
         H            2.479367192379     2.083533149256     0.893516273273     1.007825032230
         H            2.479223192379     2.083889149256    -0.893076726727     1.007825032230
         H            3.246024192379     0.744844149256    -0.000050726727     1.007825032230
         H           -3.138198807621     1.157413149256    -0.878594726727     1.007825032230
         H           -2.410963807621     2.523052149256    -0.000021726727     1.007825032230
         H           -3.138264807621     1.157367149256     0.878424273273     1.007825032230

  Basis Set: AUG-CC-PVTZ
    Blend: AUG-CC-PVTZ
  Basis Set: (AUG-CC-PVTZ AUX)
    Blend: AUG-CC-PVTZ-JKFIT
	 Reference Energy          =    -490.7093809904935142 [Eh]
	 Singles Energy            =      -0.0000000000000000 [Eh]
	 Same-Spin Energy          =      -0.5022903281572916 [Eh]
	 Opposite-Spin Energy      =      -1.5414472433330788 [Eh]
	 Correlation Energy        =      -2.0437375714903703 [Eh]
	 Total Energy              =    -492.7531185619839107 [Eh]

	 ================> DF-SCS-MP2 Energies <==================
	-----------------------------------------------------------
	 SCS Same-Spin Scale       =       0.3333333333333333 [-]
	 SCS Opposite-Spin Scale   =       1.2000000000000000 [-]
	 SCS Same-Spin Energy      =      -0.1674301093857639 [Eh]
	 SCS Opposite-Spin Energy  =      -1.8497366919996945 [Eh]
	 SCS Correlation Energy    =      -2.0171668013854585 [Eh]
	 SCS Total Energy          =    -492.7265477918789998 [Eh]
	-----------------------------------------------------------

  Dipole Moment: [D]
     X:     0.9439      Y:     4.4356      Z:     0.0002     Total:     4.5350

*** Psi4 exiting successfully. Buy a developer a beer!
