                               Psi4 1.4a3.dev225

  ==> Input File <==

--------------------------------------------------------------------------
#psi4
#
memory 32 gb

molecule  {
0 1
  O        2.3212770    -1.3580180     0.0000020
  O       -2.2717460    -1.4962290     0.0000010
  N        1.1724310     0.6334210    -0.0000020
  N        0.0162060    -1.3769820    -0.0000020
  C       -1.2398930     0.6613320     0.0000000
  C       -0.0398910     1.2934770    -0.0000010
  C        1.2527440    -0.7526170    -0.0000010
  C       -1.2589250    -0.7964470     0.0000000
  C        2.4447950     1.3519700     0.0000010
  C       -2.5990205     1.3998933     0.0000010
  H        0.0310140     2.3780990    -0.0000010
  H        0.0457120    -2.3937650    -0.0000010
  H        2.2343430     2.4214070    -0.0000200
  H        3.0241620     1.0875710    -0.8862110
  H        3.0241420     1.0876020     0.8862360
  H       -3.1432670     1.0977880    -0.8790540
  H       -2.4120010     2.4600010     0.0000010
  H       -3.1432670     1.0977870     0.8790540
units angstrom
no_reorient  #important for SAPT in psi4, default
symmetry c1  #important for SAPT in psi4, default
}

set PROPERTIES_ORIGIN ["COM"]
properties('MP2/aug-cc-pvtz', properties = ['dipole'])
--------------------------------------------------------------------------

    Molecular point group: c1
  Charge       = 0
  Multiplicity = 1
  Basis Set: AUG-CC-PVTZ
    Blend: AUG-CC-PVTZ
  Basis Set: (AUG-CC-PVTZ AUX)
    Blend: AUG-CC-PVTZ-JKFIT

    Orbital Energies [Eh]
    ---------------------

    Doubly Occupied:

       1A    -20.540861     2A    -20.537479     3A    -15.638218
       4A    -15.624542     5A    -11.411248     6A    -11.375622
       7A    -11.326111     8A    -11.288477     9A    -11.258539
      10A    -11.236147    11A     -1.424583    12A     -1.386742
      13A     -1.306163    14A     -1.243246    15A     -1.103286
      16A     -0.992579    17A     -0.962424    18A     -0.915207
      19A     -0.853657    20A     -0.769552    21A     -0.734081
      22A     -0.693412    23A     -0.682670    24A     -0.649547
      25A     -0.636022    26A     -0.612800    27A     -0.609484
      28A     -0.588669    29A     -0.585630    30A     -0.558223
      31A     -0.543748    32A     -0.541503    33A     -0.492930
      34A     -0.475041    35A     -0.443571    36A     -0.430128
      37A     -0.344767

  @DF-RHF Final Energy:  -490.71106961459679

   => Energetics <=

    Nuclear Repulsion Energy =            529.8254794698796104
    One-Electron Energy =               -1719.4392804224071369
    Two-Electron Energy =                 698.9027313379307316
    Total Energy =                       -490.7110696145967950
  Basis Set: (AUG-CC-PVTZ AUX)
    Blend: AUG-CC-PVTZ-RI
    Molecular point group: c1

    Geometry (in Angstrom), charge = 0, multiplicity = 1:

       Center              X                  Y                   Z               Mass
    ------------   -----------------  -----------------  -----------------  -----------------
         O            2.322614197375    -1.294719403770     0.000002028533    15.994914619570
         O           -2.270408802625    -1.432930403770     0.000001028533    15.994914619570
         N            1.173768197375     0.696719596230    -0.000001971467    14.003074004430
         N            0.017543197375    -1.313683403770    -0.000001971467    14.003074004430
         C           -1.238555802625     0.724630596230     0.000000028533    12.000000000000
         C           -0.038553802625     1.356775596230    -0.000000971467    12.000000000000
         C            1.254081197375    -0.689318403770    -0.000000971467    12.000000000000
         C           -1.257587802625    -0.733148403770     0.000000028533    12.000000000000
         C            2.446132197375     1.415268596230     0.000001028533    12.000000000000
         C           -2.597683302625     1.463191896230     0.000001028533    12.000000000000
         H            0.032351197375     2.441397596230    -0.000000971467     1.007825032230
         H            0.047049197375    -2.330466403770    -0.000000971467     1.007825032230
         H            2.235680197375     2.484705596230    -0.000019971467     1.007825032230
         H            3.025499197375     1.150869596230    -0.886210971467     1.007825032230
         H            3.025479197375     1.150900596230     0.886236028533     1.007825032230
         H           -3.141929802625     1.161086596230    -0.879053971467     1.007825032230
         H           -2.410663802625     2.523299596230     0.000001028533     1.007825032230
         H           -3.141929802625     1.161085596230     0.879054028533     1.007825032230

  Basis Set: AUG-CC-PVTZ
    Blend: AUG-CC-PVTZ
  Basis Set: (AUG-CC-PVTZ AUX)
    Blend: AUG-CC-PVTZ-JKFIT
	 Reference Energy          =    -490.7110696145967950 [Eh]
	 Singles Energy            =      -0.0000000000000000 [Eh]
	 Same-Spin Energy          =      -0.5019762443994686 [Eh]
	 Opposite-Spin Energy      =      -1.5409936068921692 [Eh]
	 Correlation Energy        =      -2.0429698512916379 [Eh]
	 Total Energy              =    -492.7540394658884111 [Eh]

	 ================> DF-SCS-MP2 Energies <==================
	-----------------------------------------------------------
	 SCS Same-Spin Scale       =       0.3333333333333333 [-]
	 SCS Opposite-Spin Scale   =       1.2000000000000000 [-]
	 SCS Same-Spin Energy      =      -0.1673254147998229 [Eh]
	 SCS Opposite-Spin Energy  =      -1.8491923282706031 [Eh]
	 SCS Correlation Energy    =      -2.0165177430704260 [Eh]
	 SCS Total Energy          =    -492.7275873576672325 [Eh]
	-----------------------------------------------------------

  Dipole Moment: [D]
     X:     1.0856      Y:     4.5253      Z:    -0.0000     Total:     4.6537

*** Psi4 exiting successfully. Buy a developer a beer!
