                               Psi4 1.3.2 release

  ==> Input File <==

--------------------------------------------------------------------------
#psi4
#
memory 32 gb

molecule  {
0 1
  O        2.3111590    -1.3984000     0.0000580
  O       -2.2718830    -1.4902890    -0.0001310
  N        1.1826080     0.6255060     0.0000550
  N        0.0153410    -1.3761840    -0.0000340
  C       -1.2346770     0.6647280    -0.0000250
  C       -0.0319280     1.2897490     0.0000350
  C        1.3460724    -0.8127506     0.0000332
  C       -1.2542960    -0.7955090    -0.0000670
  C        2.4243390     1.3942650     0.0001240
  C       -2.5504790     1.3758010    -0.0000570
  H        0.0516650     2.3739750     0.0000690
  H        0.0461780    -2.3935470    -0.0000610
  H        2.4800130     2.0209940     0.8935150
  H        2.4798690     2.0213500    -0.8930780
  H        3.2466700     0.6823050    -0.0000520
  H       -3.1375530     1.0948740    -0.8785960
  H       -2.4103180     2.4605130    -0.0000230
  H       -3.1376190     1.0948280     0.8784230
units angstrom
no_reorient  #important for SAPT in psi4, default
symmetry c1  #important for SAPT in psi4, default
}

set PROPERTIES_ORIGIN ["COM"]
properties('MP2/aug-cc-pvtz', properties = ['dipole'])
--------------------------------------------------------------------------

    Molecular point group: c1
  Charge       = 0
  Multiplicity = 1
  Basis Set: AUG-CC-PVTZ
    Blend: AUG-CC-PVTZ
  Basis Set: (AUG-CC-PVTZ AUX)
    Blend: AUG-CC-PVTZ-JKFIT

    Orbital Energies [Eh]
    ---------------------

    Doubly Occupied:

       1A    -20.569499     2A    -20.530687     3A    -15.626522
       4A    -15.612636     5A    -11.416058     6A    -11.369256
       7A    -11.318926     8A    -11.281525     9A    -11.250156
      10A    -11.231109    11A     -1.489932    12A     -1.384312
      13A     -1.301848    14A     -1.224424    15A     -1.101257
      16A     -0.983941    17A     -0.950294    18A     -0.903679
      19A     -0.842312    20A     -0.764141    21A     -0.721538
      22A     -0.708979    23A     -0.681928    24A     -0.663229
      25A     -0.637049    26A     -0.614333    27A     -0.611275
      28A     -0.592995    29A     -0.583212    30A     -0.550596
      31A     -0.549365    32A     -0.543366    33A     -0.489450
      34A     -0.489012    35A     -0.439510    36A     -0.428202
      37A     -0.337724

  @DF-RHF Final Energy:  -490.69708458754690

   => Energetics <=

    Nuclear Repulsion Energy =            529.8634999655404272
    One-Electron Energy =               -1719.5326090658934390
    Two-Electron Energy =                 698.9720245128062288
    Total Energy =                       -490.6970845875468967
  Basis Set: (AUG-CC-PVTZ AUX)
    Blend: AUG-CC-PVTZ-RI
    Molecular point group: c1

    Geometry (in Angstrom), charge = 0, multiplicity = 1:

       Center              X                  Y                   Z               Mass
    ------------   -----------------  -----------------  -----------------  -----------------
         O            2.301109744099    -1.327770728878     0.000059118266    15.994914619570
         O           -2.281932255901    -1.419659728878    -0.000129881734    15.994914619570
         N            1.172558744099     0.696135271122     0.000056118266    14.003074004430
         N            0.005291744099    -1.305554728878    -0.000032881734    14.003074004430
         C           -1.244726255901     0.735357271122    -0.000023881734    12.000000000000
         C           -0.041977255901     1.360378271122     0.000036118266    12.000000000000
         C            1.336023144099    -0.742121328878     0.000034318266    12.000000000000
         C           -1.264345255901    -0.724879728878    -0.000065881734    12.000000000000
         C            2.414289744099     1.464894271122     0.000125118266    12.000000000000
         C           -2.560528255901     1.446430271122    -0.000055881734    12.000000000000
         H            0.041615744099     2.444604271122     0.000070118266     1.007825032230
         H            0.036128744099    -2.322917728878    -0.000059881734     1.007825032230
         H            2.469963744099     2.091623271122     0.893516118266     1.007825032230
         H            2.469819744099     2.091979271122    -0.893076881734     1.007825032230
         H            3.236620744099     0.752934271122    -0.000050881734     1.007825032230
         H           -3.147602255901     1.165503271122    -0.878594881734     1.007825032230
         H           -2.420367255901     2.531142271122    -0.000021881734     1.007825032230
         H           -3.147668255901     1.165457271122     0.878424118266     1.007825032230

  Basis Set: AUG-CC-PVTZ
    Blend: AUG-CC-PVTZ
  Basis Set: (AUG-CC-PVTZ AUX)
    Blend: AUG-CC-PVTZ-JKFIT
	 Reference Energy          =    -490.6970845875468967 [Eh]
	 Singles Energy            =      -0.0000000000000000 [Eh]
	 Same-Spin Energy          =      -0.5011072959286781 [Eh]
	 Opposite-Spin Energy      =      -1.5392739199322829 [Eh]
	 Correlation Energy        =      -2.0403812158609611 [Eh]
	 Total Energy              =    -492.7374658034078720 [Eh]

	 ================> DF-SCS-MP2 Energies <==================
	-----------------------------------------------------------
	 SCS Same-Spin Scale       =       0.3333333333333333 [-]
	 SCS Opposite-Spin Scale   =       1.2000000000000000 [-]
	 SCS Same-Spin Energy      =      -0.1670357653095594 [Eh]
	 SCS Opposite-Spin Energy  =      -1.8471287039187394 [Eh]
	 SCS Correlation Energy    =      -2.0141644692282989 [Eh]
	 SCS Total Energy          =    -492.7112490567752161 [Eh]
	-----------------------------------------------------------

  Dipole Moment: [D]
     X:     2.0045      Y:     3.9224      Z:     0.0002     Total:     4.4049

*** Psi4 exiting successfully. Buy a developer a beer!
