                               Psi4 1.3.2 release

  ==> Input File <==

--------------------------------------------------------------------------
#psi4
#
memory 32 gb

molecule  {
0 1
  O        2.3111590    -1.3984000     0.0000580
  O       -2.2718830    -1.4902890    -0.0001310
  N        1.1826080     0.6255060     0.0000550
  N        0.0153410    -1.3761840    -0.0000340
  C       -1.2346770     0.6647280    -0.0000250
  C        0.0045003     1.3524026     0.0000372
  C        1.3330326    -0.7548912     0.0000331
  C       -1.2542960    -0.7955090    -0.0000670
  C        2.4243390     1.3942650     0.0001240
  C       -2.5504790     1.3758010    -0.0000570
  H        0.0516650     2.3739750     0.0000690
  H        0.0461780    -2.3935470    -0.0000610
  H        2.4800130     2.0209940     0.8935150
  H        2.4798690     2.0213500    -0.8930780
  H        3.2466700     0.6823050    -0.0000520
  H       -3.1375530     1.0948740    -0.8785960
  H       -2.4103180     2.4605130    -0.0000230
  H       -3.1376190     1.0948280     0.8784230
units angstrom
no_reorient  #important for SAPT in psi4, default
symmetry c1  #important for SAPT in psi4, default
}

set PROPERTIES_ORIGIN ["COM"]
properties('MP2/aug-cc-pvtz', properties = ['dipole'])
--------------------------------------------------------------------------

    Molecular point group: c1
  Charge       = 0
  Multiplicity = 1
  Basis Set: AUG-CC-PVTZ
    Blend: AUG-CC-PVTZ
  Basis Set: (AUG-CC-PVTZ AUX)
    Blend: AUG-CC-PVTZ-JKFIT

    Orbital Energies [Eh]
    ---------------------

    Doubly Occupied:

       1A    -20.557972     2A    -20.530584     3A    -15.638045
       4A    -15.612339     5A    -11.417408     6A    -11.369172
       7A    -11.327612     8A    -11.285237     9A    -11.263908
      10A    -11.233253    11A     -1.457113    12A     -1.383360
      13A     -1.313819    14A     -1.223536    15A     -1.096352
      16A     -0.989333    17A     -0.966750    18A     -0.910277
      19A     -0.835952    20A     -0.767908    21A     -0.723708
      22A     -0.709222    23A     -0.683631    24A     -0.665802
      25A     -0.639564    26A     -0.611611    27A     -0.610452
      28A     -0.587220    29A     -0.586931    30A     -0.551865
      31A     -0.546854    32A     -0.541017    33A     -0.489620
      34A     -0.488952    35A     -0.438537    36A     -0.424562
      37A     -0.335115

  @DF-RHF Final Energy:  -490.69407516407011

   => Energetics <=

    Nuclear Repulsion Energy =            529.0057067699228810
    One-Electron Energy =               -1717.7703839089267603
    Two-Electron Energy =                 698.0706019749337656
    Total Energy =                       -490.6940751640701137
  Basis Set: (AUG-CC-PVTZ AUX)
    Blend: AUG-CC-PVTZ-RI
    Molecular point group: c1

    Geometry (in Angstrom), charge = 0, multiplicity = 1:

       Center              X                  Y                   Z               Mass
    ------------   -----------------  -----------------  -----------------  -----------------
         O            2.299105853977    -1.338096094349     0.000058938341    15.994914619570
         O           -2.283936146023    -1.429985094349    -0.000130061659    15.994914619570
         N            1.170554853977     0.685809905651     0.000055938341    14.003074004430
         N            0.003287853977    -1.315880094349    -0.000033061659    14.003074004430
         C           -1.246730146023     0.725031905651    -0.000024061659    12.000000000000
         C           -0.007552846023     1.412706505651     0.000038138341    12.000000000000
         C            1.320979453977    -0.694587294349     0.000034038341    12.000000000000
         C           -1.266349146023    -0.735205094349    -0.000066061659    12.000000000000
         C            2.412285853977     1.454568905651     0.000124938341    12.000000000000
         C           -2.562532146023     1.436104905651    -0.000056061659    12.000000000000
         H            0.039611853977     2.434278905651     0.000069938341     1.007825032230
         H            0.034124853977    -2.333243094349    -0.000060061659     1.007825032230
         H            2.467959853977     2.081297905651     0.893515938341     1.007825032230
         H            2.467815853977     2.081653905651    -0.893077061659     1.007825032230
         H            3.234616853977     0.742608905651    -0.000051061659     1.007825032230
         H           -3.149606146023     1.155177905651    -0.878595061659     1.007825032230
         H           -2.422371146023     2.520816905651    -0.000022061659     1.007825032230
         H           -3.149672146023     1.155131905651     0.878423938341     1.007825032230

  Basis Set: AUG-CC-PVTZ
    Blend: AUG-CC-PVTZ
  Basis Set: (AUG-CC-PVTZ AUX)
    Blend: AUG-CC-PVTZ-JKFIT
	 Reference Energy          =    -490.6940751640701137 [Eh]
	 Singles Energy            =      -0.0000000000000000 [Eh]
	 Same-Spin Energy          =      -0.5027141741505117 [Eh]
	 Opposite-Spin Energy      =      -1.5427608327723310 [Eh]
	 Correlation Energy        =      -2.0454750069228425 [Eh]
	 Total Energy              =    -492.7395501709929704 [Eh]

	 ================> DF-SCS-MP2 Energies <==================
	-----------------------------------------------------------
	 SCS Same-Spin Scale       =       0.3333333333333333 [-]
	 SCS Opposite-Spin Scale   =       1.2000000000000000 [-]
	 SCS Same-Spin Energy      =      -0.1675713913835039 [Eh]
	 SCS Opposite-Spin Energy  =      -1.8513129993267972 [Eh]
	 SCS Correlation Energy    =      -2.0188843907103009 [Eh]
	 SCS Total Energy          =    -492.7129595547804115 [Eh]
	-----------------------------------------------------------

  Dipole Moment: [D]
     X:     1.7136      Y:     4.4465      Z:     0.0002     Total:     4.7653

*** Psi4 exiting successfully. Buy a developer a beer!
