                               Psi4 1.3.2 release

  ==> Input File <==

--------------------------------------------------------------------------
#psi4
#
memory 32 gb

molecule  {
0 1
  O        2.3111590    -1.3984000     0.0000580
  O       -2.2718830    -1.4902890    -0.0001310
  N        1.1826080     0.6255060     0.0000550
  N        0.0153410    -1.3761840    -0.0000340
  C       -1.2346770     0.6647280    -0.0000250
  C       -0.0319280     1.2897490     0.0000350
  C        1.2659041    -0.7717621     0.0000309
  C       -1.2542960    -0.7955090    -0.0000670
  C        2.4243390     1.3942650     0.0001240
  C       -2.5504790     1.3758010    -0.0000570
  H        0.0516650     2.3739750     0.0000690
  H        0.0550549    -2.3932392    -0.0000606
  H        2.4800130     2.0209940     0.8935150
  H        2.4798690     2.0213500    -0.8930780
  H        3.2466700     0.6823050    -0.0000520
  H       -3.1375530     1.0948740    -0.8785960
  H       -2.4103180     2.4605130    -0.0000230
  H       -3.1376190     1.0948280     0.8784230
units angstrom
no_reorient  #important for SAPT in psi4, default
symmetry c1  #important for SAPT in psi4, default
}

set PROPERTIES_ORIGIN ["COM"]
properties('MP2/aug-cc-pvtz', properties = ['dipole'])
--------------------------------------------------------------------------

    Molecular point group: c1
  Charge       = 0
  Multiplicity = 1
  Basis Set: AUG-CC-PVTZ
    Blend: AUG-CC-PVTZ
  Basis Set: (AUG-CC-PVTZ AUX)
    Blend: AUG-CC-PVTZ-JKFIT

    Orbital Energies [Eh]
    ---------------------

    Doubly Occupied:

       1A    -20.543569     2A    -20.538167     3A    -15.636367
       4A    -15.624276     5A    -11.414099     6A    -11.376143
       7A    -11.324248     8A    -11.285095     9A    -11.258325
      10A    -11.236410    11A     -1.428289    12A     -1.387865
      13A     -1.306523    14A     -1.242567    15A     -1.108038
      16A     -0.991548    17A     -0.961740    18A     -0.913630
      19A     -0.852530    20A     -0.769129    21A     -0.734245
      22A     -0.692428    23A     -0.681182    24A     -0.649638
      25A     -0.640558    26A     -0.615401    27A     -0.609536
      28A     -0.587587    29A     -0.584489    30A     -0.554626
      31A     -0.547462    32A     -0.543882    33A     -0.488248
      34A     -0.477327    35A     -0.444698    36A     -0.431479
      37A     -0.344635

  @DF-RHF Final Energy:  -490.71219271221048

   => Energetics <=

    Nuclear Repulsion Energy =            530.2990388670468747
    One-Electron Energy =               -1720.3705072855409526
    Two-Electron Energy =                 699.3592757062835972
    Total Energy =                       -490.7121927122104807
  Basis Set: (AUG-CC-PVTZ AUX)
    Blend: AUG-CC-PVTZ-RI
    Molecular point group: c1

    Geometry (in Angstrom), charge = 0, multiplicity = 1:

       Center              X                  Y                   Z               Mass
    ------------   -----------------  -----------------  -----------------  -----------------
         O            2.307914562875    -1.331284774339     0.000059312448    15.994914619570
         O           -2.275127437125    -1.423173774339    -0.000129687552    15.994914619570
         N            1.179363562875     0.692621225661     0.000056312448    14.003074004430
         N            0.012096562875    -1.309068774339    -0.000032687552    14.003074004430
         C           -1.237921437125     0.731843225661    -0.000023687552    12.000000000000
         C           -0.035172437125     1.356864225661     0.000036312448    12.000000000000
         C            1.262659662875    -0.704646874339     0.000032212448    12.000000000000
         C           -1.257540437125    -0.728393774339    -0.000065687552    12.000000000000
         C            2.421094562875     1.461380225661     0.000125312448    12.000000000000
         C           -2.553723437125     1.442916225661    -0.000055687552    12.000000000000
         H            0.048420562875     2.441090225661     0.000070312448     1.007825032230
         H            0.051810462875    -2.326123974339    -0.000059287552     1.007825032230
         H            2.476768562875     2.088109225661     0.893516312448     1.007825032230
         H            2.476624562875     2.088465225661    -0.893076687552     1.007825032230
         H            3.243425562875     0.749420225661    -0.000050687552     1.007825032230
         H           -3.140797437125     1.161989225661    -0.878594687552     1.007825032230
         H           -2.413562437125     2.527628225661    -0.000021687552     1.007825032230
         H           -3.140863437125     1.161943225661     0.878424312448     1.007825032230

  Basis Set: AUG-CC-PVTZ
    Blend: AUG-CC-PVTZ
  Basis Set: (AUG-CC-PVTZ AUX)
    Blend: AUG-CC-PVTZ-JKFIT
	 Reference Energy          =    -490.7121927122104807 [Eh]
	 Singles Energy            =      -0.0000000000000000 [Eh]
	 Same-Spin Energy          =      -0.5022776984648221 [Eh]
	 Opposite-Spin Energy      =      -1.5412356341750282 [Eh]
	 Correlation Energy        =      -2.0435133326398502 [Eh]
	 Total Energy              =    -492.7557060448503421 [Eh]

	 ================> DF-SCS-MP2 Energies <==================
	-----------------------------------------------------------
	 SCS Same-Spin Scale       =       0.3333333333333333 [-]
	 SCS Opposite-Spin Scale   =       1.2000000000000000 [-]
	 SCS Same-Spin Energy      =      -0.1674258994882740 [Eh]
	 SCS Opposite-Spin Energy  =      -1.8494827610100337 [Eh]
	 SCS Correlation Energy    =      -2.0169086604983075 [Eh]
	 SCS Total Energy          =    -492.7291013727087829 [Eh]
	-----------------------------------------------------------

  Dipole Moment: [D]
     X:     1.1320      Y:     4.4280      Z:     0.0002     Total:     4.5704

*** Psi4 exiting successfully. Buy a developer a beer!
