                               Psi4 1.4a3.dev225

  ==> Input File <==

--------------------------------------------------------------------------
#psi4
#
memory 32 gb

molecule  {
0 1
  O        2.3212770    -1.3580180     0.0000020
  O       -2.2717460    -1.4962290     0.0000010
  N        1.1724310     0.6334210    -0.0000020
  N        0.0162060    -1.3769820    -0.0000020
  C       -1.2398930     0.6613320     0.0000000
  C       -0.0398910     1.2934770    -0.0000010
  C        1.2527440    -0.7526170    -0.0000010
  C       -1.2589250    -0.7964470     0.0000000
  C        2.4447950     1.3519700     0.0000010
  C       -2.5550880     1.3760200     0.0000010
  H        0.0310140     2.3780990    -0.0000010
  H        0.0457120    -2.3937650    -0.0000010
  H        2.2343430     2.4214070    -0.0000200
  H        3.0507067     1.0754571    -0.9268143
  H        3.0241420     1.0876020     0.8862360
  H       -3.1432670     1.0977880    -0.8790540
  H       -2.4120010     2.4600010     0.0000010
  H       -3.1432670     1.0977870     0.8790540
units angstrom
no_reorient  #important for SAPT in psi4, default
symmetry c1  #important for SAPT in psi4, default
}

set PROPERTIES_ORIGIN ["COM"]
properties('MP2/aug-cc-pvtz', properties = ['dipole'])
--------------------------------------------------------------------------

    Molecular point group: c1
  Charge       = 0
  Multiplicity = 1
  Basis Set: AUG-CC-PVTZ
    Blend: AUG-CC-PVTZ
  Basis Set: (AUG-CC-PVTZ AUX)
    Blend: AUG-CC-PVTZ-JKFIT

    Orbital Energies [Eh]
    ---------------------

    Doubly Occupied:

       1A    -20.541202     2A    -20.538208     3A    -15.639109
       4A    -15.624970     5A    -11.411611     6A    -11.376067
       7A    -11.326668     8A    -11.294218     9A    -11.257434
      10A    -11.236612    11A     -1.424991    12A     -1.387399
      13A     -1.306706    14A     -1.243649    15A     -1.108695
      16A     -0.990680    17A     -0.962320    18A     -0.914952
      19A     -0.851877    20A     -0.770994    21A     -0.735106
      22A     -0.693588    23A     -0.681468    24A     -0.649790
      25A     -0.636679    26A     -0.610630    27A     -0.608315
      28A     -0.589579    29A     -0.580442    30A     -0.557526
      31A     -0.547947    32A     -0.538990    33A     -0.490896
      34A     -0.475545    35A     -0.444365    36A     -0.430317
      37A     -0.343937

  @DF-RHF Final Energy:  -490.71030064496449

   => Energetics <=

    Nuclear Repulsion Energy =            530.5259484381184620
    One-Electron Energy =               -1720.8255332671299129
    Two-Electron Energy =                 699.5892841840470737
    Total Energy =                       -490.7103006449644909
  Basis Set: (AUG-CC-PVTZ AUX)
    Blend: AUG-CC-PVTZ-RI
    Molecular point group: c1

    Geometry (in Angstrom), charge = 0, multiplicity = 1:

       Center              X                  Y                   Z               Mass
    ------------   -----------------  -----------------  -----------------  -----------------
         O            2.318659120699    -1.292586808274     0.000294199301    15.994914619570
         O           -2.274363879301    -1.430797808274     0.000293199301    15.994914619570
         N            1.169813120699     0.698852191726     0.000290199301    14.003074004430
         N            0.013588120699    -1.311550808274     0.000290199301    14.003074004430
         C           -1.242510879301     0.726763191726     0.000292199301    12.000000000000
         C           -0.042508879301     1.358908191726     0.000291199301    12.000000000000
         C            1.250126120699    -0.687185808274     0.000291199301    12.000000000000
         C           -1.261542879301    -0.731015808274     0.000292199301    12.000000000000
         C            2.442177120699     1.417401191726     0.000293199301    12.000000000000
         C           -2.557705879301     1.441451191726     0.000293199301    12.000000000000
         H            0.028396120699     2.443530191726     0.000291199301     1.007825032230
         H            0.043094120699    -2.328333808274     0.000291199301     1.007825032230
         H            2.231725120699     2.486838191726     0.000272199301     1.007825032230
         H            3.048088820699     1.140888291726    -0.926522100699     1.007825032230
         H            3.021524120699     1.153033191726     0.886528199301     1.007825032230
         H           -3.145884879301     1.163219191726    -0.878761800699     1.007825032230
         H           -2.414618879301     2.525432191726     0.000293199301     1.007825032230
         H           -3.145884879301     1.163218191726     0.879346199301     1.007825032230

  Basis Set: AUG-CC-PVTZ
    Blend: AUG-CC-PVTZ
  Basis Set: (AUG-CC-PVTZ AUX)
    Blend: AUG-CC-PVTZ-JKFIT
	 Reference Energy          =    -490.7103006449644909 [Eh]
	 Singles Energy            =      -0.0000000000000000 [Eh]
	 Same-Spin Energy          =      -0.5024219895996119 [Eh]
	 Opposite-Spin Energy      =      -1.5416938357607868 [Eh]
	 Correlation Energy        =      -2.0441158253603988 [Eh]
	 Total Energy              =    -492.7544164703248839 [Eh]

	 ================> DF-SCS-MP2 Energies <==================
	-----------------------------------------------------------
	 SCS Same-Spin Scale       =       0.3333333333333333 [-]
	 SCS Opposite-Spin Scale   =       1.2000000000000000 [-]
	 SCS Same-Spin Energy      =      -0.1674739965332040 [Eh]
	 SCS Opposite-Spin Energy  =      -1.8500326029129441 [Eh]
	 SCS Correlation Energy    =      -2.0175065994461483 [Eh]
	 SCS Total Energy          =    -492.7278072444106556 [Eh]
	-----------------------------------------------------------

  Dipole Moment: [D]
     X:     1.0761      Y:     4.4994      Z:     0.0112     Total:     4.6263

*** Psi4 exiting successfully. Buy a developer a beer!
