                               Psi4 1.3.2 release

  ==> Input File <==

--------------------------------------------------------------------------
#psi4
#
memory 32 gb

molecule  {
0 1
  O        2.3111590    -1.3984000     0.0000580
  O       -2.2718830    -1.4902890    -0.0001310
  N        1.1826080     0.6255060     0.0000550
  N        0.0153410    -1.3761840    -0.0000340
  C       -1.2346770     0.6647280    -0.0000250
  C       -0.0319280     1.2897490     0.0000350
  C        1.2605820    -0.7608720     0.0000310
  C       -1.2542960    -0.7955090    -0.0000670
  C        2.4243390     1.3942650     0.0001240
  C       -2.5504790     1.3758010    -0.0000570
  H        0.0516650     2.3739750     0.0000690
  H        0.0461780    -2.3935470    -0.0000610
  H        2.4800130     2.0209940     0.8935150
  H        2.4798690     2.0213500    -0.8930780
  H        3.2466700     0.6823050    -0.0000520
  H       -3.1390359     1.1316868    -0.8885477
  H       -2.4303919     2.4624360    -0.0324388
  H       -3.1376190     1.0948280     0.8784230
units angstrom
no_reorient  #important for SAPT in psi4, default
symmetry c1  #important for SAPT in psi4, default
}

set PROPERTIES_ORIGIN ["COM"]
properties('MP2/aug-cc-pvtz', properties = ['dipole'])
--------------------------------------------------------------------------

    Molecular point group: c1
  Charge       = 0
  Multiplicity = 1
  Basis Set: AUG-CC-PVTZ
    Blend: AUG-CC-PVTZ
  Basis Set: (AUG-CC-PVTZ AUX)
    Blend: AUG-CC-PVTZ-JKFIT

    Orbital Energies [Eh]
    ---------------------

    Doubly Occupied:

       1A    -20.540613     2A    -20.538388     3A    -15.638320
       4A    -15.624638     5A    -11.413805     6A    -11.376237
       7A    -11.325227     8A    -11.286049     9A    -11.259970
      10A    -11.236987    11A     -1.424163    12A     -1.386891
      13A     -1.306889    14A     -1.242942    15A     -1.108834
      16A     -0.993152    17A     -0.963849    18A     -0.914404
      19A     -0.853013    20A     -0.770536    21A     -0.735430
      22A     -0.692313    23A     -0.682253    24A     -0.649549
      25A     -0.637932    26A     -0.615868    27A     -0.608832
      28A     -0.589813    29A     -0.584811    30A     -0.556656
      31A     -0.545337    32A     -0.541845    33A     -0.488209
      34A     -0.475392    35A     -0.444301    36A     -0.430576
      37A     -0.346218

  @DF-RHF Final Energy:  -490.71160943374792

   => Energetics <=

    Nuclear Repulsion Energy =            530.2939308116252732
    One-Electron Energy =               -1720.3505966131067453
    Two-Electron Energy =                 699.3450563677334912
    Total Energy =                       -490.7116094337478671
  Basis Set: (AUG-CC-PVTZ AUX)
    Blend: AUG-CC-PVTZ-RI
    Molecular point group: c1

    Geometry (in Angstrom), charge = 0, multiplicity = 1:

       Center              X                  Y                   Z               Mass
    ------------   -----------------  -----------------  -----------------  -----------------
         O            2.308589545060    -1.332494338961     0.000364172249    15.994914619570
         O           -2.274452454940    -1.424383338961     0.000175172249    15.994914619570
         N            1.180038545060     0.691411661039     0.000361172249    14.003074004430
         N            0.012771545060    -1.310278338961     0.000272172249    14.003074004430
         C           -1.237246454940     0.730633661039     0.000281172249    12.000000000000
         C           -0.034497454940     1.355654661039     0.000341172249    12.000000000000
         C            1.258012545060    -0.694966338961     0.000337172249    12.000000000000
         C           -1.256865454940    -0.729603338961     0.000239172249    12.000000000000
         C            2.421769545060     1.460170661039     0.000430172249    12.000000000000
         C           -2.553048454940     1.441706661039     0.000249172249    12.000000000000
         H            0.049095545060     2.439880661039     0.000375172249     1.007825032230
         H            0.043608545060    -2.327641338961     0.000245172249     1.007825032230
         H            2.477443545060     2.086899661039     0.893821172249     1.007825032230
         H            2.477299545060     2.087255661039    -0.892771827751     1.007825032230
         H            3.244100545060     0.748210661039     0.000254172249     1.007825032230
         H           -3.141605354940     1.197592461039    -0.888241527751     1.007825032230
         H           -2.432961354940     2.528341661039    -0.032132627751     1.007825032230
         H           -3.140188454940     1.160733661039     0.878729172249     1.007825032230

  Basis Set: AUG-CC-PVTZ
    Blend: AUG-CC-PVTZ
  Basis Set: (AUG-CC-PVTZ AUX)
    Blend: AUG-CC-PVTZ-JKFIT
	 Reference Energy          =    -490.7116094337479240 [Eh]
	 Singles Energy            =      -0.0000000000000000 [Eh]
	 Same-Spin Energy          =      -0.5023615622742994 [Eh]
	 Opposite-Spin Energy      =      -1.5414329730618017 [Eh]
	 Correlation Energy        =      -2.0437945353361009 [Eh]
	 Total Energy              =    -492.7554039690840000 [Eh]

	 ================> DF-SCS-MP2 Energies <==================
	-----------------------------------------------------------
	 SCS Same-Spin Scale       =       0.3333333333333333 [-]
	 SCS Opposite-Spin Scale   =       1.2000000000000000 [-]
	 SCS Same-Spin Energy      =      -0.1674538540914331 [Eh]
	 SCS Opposite-Spin Energy  =      -1.8497195676741620 [Eh]
	 SCS Correlation Energy    =      -2.0171734217655950 [Eh]
	 SCS Total Energy          =    -492.7287828555135434 [Eh]
	-----------------------------------------------------------

  Dipole Moment: [D]
     X:     1.0528      Y:     4.5364      Z:    -0.0188     Total:     4.6570

*** Psi4 exiting successfully. Buy a developer a beer!
