                               Psi4 1.3.2 release

  ==> Input File <==

--------------------------------------------------------------------------
#psi4
#
memory 32 gb

molecule  {
0 1
  O        2.3111590    -1.3984000     0.0000580
  O       -2.2718830    -1.4902890    -0.0001310
  N        1.1826080     0.6255060     0.0000550
  N        0.0153410    -1.3761840    -0.0000340
  C       -1.2346770     0.6647280    -0.0000250
  C       -0.0108478     1.2473929     0.0000348
  C        1.2605820    -0.7608720     0.0000310
  C       -1.2542960    -0.7955090    -0.0000670
  C        2.4243390     1.3942650     0.0001240
  C       -2.5744935     1.3294470    -0.0000590
  H        0.0516650     2.3739750     0.0000690
  H        0.0461780    -2.3935470    -0.0000610
  H        2.4800130     2.0209940     0.8935150
  H        2.4798690     2.0213500    -0.8930780
  H        3.2466700     0.6823050    -0.0000520
  H       -3.1375530     1.0948740    -0.8785960
  H       -2.4103180     2.4605130    -0.0000230
  H       -3.1376190     1.0948280     0.8784230
units angstrom
no_reorient  #important for SAPT in psi4, default
symmetry c1  #important for SAPT in psi4, default
}

set PROPERTIES_ORIGIN ["COM"]
properties('MP2/aug-cc-pvtz', properties = ['dipole'])
--------------------------------------------------------------------------

    Molecular point group: c1
  Charge       = 0
  Multiplicity = 1
  Basis Set: AUG-CC-PVTZ
    Blend: AUG-CC-PVTZ
  Basis Set: (AUG-CC-PVTZ AUX)
    Blend: AUG-CC-PVTZ-JKFIT

    Orbital Energies [Eh]
    ---------------------

    Doubly Occupied:

       1A    -20.542703     2A    -20.535128     3A    -15.642319
       4A    -15.624452     5A    -11.415436     6A    -11.371945
       7A    -11.326684     8A    -11.289484     9A    -11.255833
      10A    -11.236883    11A     -1.427357    12A     -1.385083
      13A     -1.317606    14A     -1.244731    15A     -1.106848
      16A     -0.998991    17A     -0.965059    18A     -0.912452
      19A     -0.856388    20A     -0.773161    21A     -0.734638
      22A     -0.687478    23A     -0.686500    24A     -0.652828
      25A     -0.635690    26A     -0.618192    27A     -0.600962
      28A     -0.592637    29A     -0.590447    30A     -0.562692
      31A     -0.544813    32A     -0.530280    33A     -0.496298
      34A     -0.474690    35A     -0.441256    36A     -0.430394
      37A     -0.344720

  @DF-RHF Final Energy:  -490.70659462009746

   => Energetics <=

    Nuclear Repulsion Energy =            531.3533239375959738
    One-Electron Energy =               -1722.4137248016022568
    Two-Electron Energy =                 700.3538062439087071
    Total Energy =                       -490.7065946200974622
  Basis Set: (AUG-CC-PVTZ AUX)
    Blend: AUG-CC-PVTZ-RI
    Molecular point group: c1

    Geometry (in Angstrom), charge = 0, multiplicity = 1:

       Center              X                  Y                   Z               Mass
    ------------   -----------------  -----------------  -----------------  -----------------
         O            2.308685834182    -1.324615063528     0.000059495251    15.994914619570
         O           -2.274356165818    -1.416504063528    -0.000129504749    15.994914619570
         N            1.180134834182     0.699290936472     0.000056495251    14.003074004430
         N            0.012867834182    -1.302399063528    -0.000032504749    14.003074004430
         C           -1.237150165818     0.738512936472    -0.000023504749    12.000000000000
         C           -0.013320965818     1.321177836472     0.000036295251    12.000000000000
         C            1.258108834182    -0.687087063528     0.000032495251    12.000000000000
         C           -1.256769165818    -0.721724063528    -0.000065504749    12.000000000000
         C            2.421865834182     1.468049936472     0.000125495251    12.000000000000
         C           -2.576966665818     1.403231936472    -0.000057504749    12.000000000000
         H            0.049191834182     2.447759936472     0.000070495251     1.007825032230
         H            0.043704834182    -2.319762063528    -0.000059504749     1.007825032230
         H            2.477539834182     2.094778936472     0.893516495251     1.007825032230
         H            2.477395834182     2.095134936472    -0.893076504749     1.007825032230
         H            3.244196834182     0.756089936472    -0.000050504749     1.007825032230
         H           -3.140026165818     1.168658936472    -0.878594504749     1.007825032230
         H           -2.412791165818     2.534297936472    -0.000021504749     1.007825032230
         H           -3.140092165818     1.168612936472     0.878424495251     1.007825032230

  Basis Set: AUG-CC-PVTZ
    Blend: AUG-CC-PVTZ
  Basis Set: (AUG-CC-PVTZ AUX)
    Blend: AUG-CC-PVTZ-JKFIT
	 Reference Energy          =    -490.7065946200974622 [Eh]
	 Singles Energy            =      -0.0000000000000000 [Eh]
	 Same-Spin Energy          =      -0.5027650502011304 [Eh]
	 Opposite-Spin Energy      =      -1.5415551507126168 [Eh]
	 Correlation Energy        =      -2.0443202009137473 [Eh]
	 Total Energy              =    -492.7509148210112357 [Eh]

	 ================> DF-SCS-MP2 Energies <==================
	-----------------------------------------------------------
	 SCS Same-Spin Scale       =       0.3333333333333333 [-]
	 SCS Opposite-Spin Scale   =       1.2000000000000000 [-]
	 SCS Same-Spin Energy      =      -0.1675883500670435 [Eh]
	 SCS Opposite-Spin Energy  =      -1.8498661808551402 [Eh]
	 SCS Correlation Energy    =      -2.0174545309221839 [Eh]
	 SCS Total Energy          =    -492.7240491510196421 [Eh]
	-----------------------------------------------------------

  Dipole Moment: [D]
     X:     1.2654      Y:     4.4695      Z:     0.0002     Total:     4.6451

*** Psi4 exiting successfully. Buy a developer a beer!
