                               Psi4 1.3.2 release

  ==> Input File <==

--------------------------------------------------------------------------
#psi4
#
memory 32 gb

molecule  {
0 1
  O        2.3111590    -1.3984000     0.0000580
  O       -2.2718830    -1.4902890    -0.0001310
  N        1.1826080     0.6255060     0.0000550
  N        0.0153410    -1.3761840    -0.0000340
  C       -1.2346770     0.6647280    -0.0000250
  C       -0.0319280     1.2897490     0.0000350
  C        1.2605820    -0.7608720     0.0000310
  C       -1.2542960    -0.7955090    -0.0000670
  C        2.4243390     1.3942650     0.0001240
  C       -2.5504790     1.3758010    -0.0000570
  H        0.0516650     2.3739750     0.0000690
  H        0.0431483    -2.2935929    -0.0000583
  H        2.4800130     2.0209940     0.8935150
  H        2.4798690     2.0213500    -0.8930780
  H        3.2466700     0.6823050    -0.0000520
  H       -3.1375530     1.0948740    -0.8785960
  H       -2.4103180     2.4605130    -0.0000230
  H       -3.1376190     1.0948280     0.8784230
units angstrom
no_reorient  #important for SAPT in psi4, default
symmetry c1  #important for SAPT in psi4, default
}

set PROPERTIES_ORIGIN ["COM"]
properties('MP2/aug-cc-pvtz', properties = ['dipole'])
--------------------------------------------------------------------------

    Molecular point group: c1
  Charge       = 0
  Multiplicity = 1
  Basis Set: AUG-CC-PVTZ
    Blend: AUG-CC-PVTZ
  Basis Set: (AUG-CC-PVTZ AUX)
    Blend: AUG-CC-PVTZ-JKFIT

    Orbital Energies [Eh]
    ---------------------

    Doubly Occupied:

       1A    -20.541732     2A    -20.539737     3A    -15.638670
       4A    -15.616283     5A    -11.414679     6A    -11.377082
       7A    -11.325588     8A    -11.286409     9A    -11.260007
      10A    -11.237489    11A     -1.426933    12A     -1.388528
      13A     -1.307797    14A     -1.255100    15A     -1.110446
      16A     -0.994859    17A     -0.965266    18A     -0.922514
      19A     -0.854765    20A     -0.775725    21A     -0.752378
      22A     -0.695064    23A     -0.683074    24A     -0.651848
      25A     -0.638807    26A     -0.616733    27A     -0.612116
      28A     -0.589400    29A     -0.584692    30A     -0.557144
      31A     -0.548819    32A     -0.544098    33A     -0.488724
      34A     -0.475978    35A     -0.445404    36A     -0.432968
      37A     -0.346449

  @DF-RHF Final Energy:  -490.70589773125664

   => Energetics <=

    Nuclear Repulsion Energy =            531.0728461673060110
    One-Electron Energy =               -1721.7508775368862644
    Two-Electron Energy =                 699.9721336383237258
    Total Energy =                       -490.7058977312566412
  Basis Set: (AUG-CC-PVTZ AUX)
    Blend: AUG-CC-PVTZ-RI
    Molecular point group: c1

    Geometry (in Angstrom), charge = 0, multiplicity = 1:

       Center              X                  Y                   Z               Mass
    ------------   -----------------  -----------------  -----------------  -----------------
         O            2.308456228876    -1.332934849898     0.000059287330    15.994914619570
         O           -2.274585771124    -1.424823849898    -0.000129712670    15.994914619570
         N            1.179905228876     0.690971150102     0.000056287330    14.003074004430
         N            0.012638228876    -1.310718849898    -0.000032712670    14.003074004430
         C           -1.237379771124     0.730193150102    -0.000023712670    12.000000000000
         C           -0.034630771124     1.355214150102     0.000036287330    12.000000000000
         C            1.257879228876    -0.695406849898     0.000032287330    12.000000000000
         C           -1.256998771124    -0.730043849898    -0.000065712670    12.000000000000
         C            2.421636228876     1.459730150102     0.000125287330    12.000000000000
         C           -2.553181771124     1.441266150102    -0.000055712670    12.000000000000
         H            0.048962228876     2.439440150102     0.000070287330     1.007825032230
         H            0.040445528876    -2.228127749898    -0.000057012670     1.007825032230
         H            2.477310228876     2.086459150102     0.893516287330     1.007825032230
         H            2.477166228876     2.086815150102    -0.893076712670     1.007825032230
         H            3.243967228876     0.747770150102    -0.000050712670     1.007825032230
         H           -3.140255771124     1.160339150102    -0.878594712670     1.007825032230
         H           -2.413020771124     2.525978150102    -0.000021712670     1.007825032230
         H           -3.140321771124     1.160293150102     0.878424287330     1.007825032230

  Basis Set: AUG-CC-PVTZ
    Blend: AUG-CC-PVTZ
  Basis Set: (AUG-CC-PVTZ AUX)
    Blend: AUG-CC-PVTZ-JKFIT
	 Reference Energy          =    -490.7058977312566412 [Eh]
	 Singles Energy            =      -0.0000000000000000 [Eh]
	 Same-Spin Energy          =      -0.5015804674307653 [Eh]
	 Opposite-Spin Energy      =      -1.5399528274945933 [Eh]
	 Correlation Energy        =      -2.0415332949253586 [Eh]
	 Total Energy              =    -492.7474310261820278 [Eh]

	 ================> DF-SCS-MP2 Energies <==================
	-----------------------------------------------------------
	 SCS Same-Spin Scale       =       0.3333333333333333 [-]
	 SCS Opposite-Spin Scale   =       1.2000000000000000 [-]
	 SCS Same-Spin Energy      =      -0.1671934891435884 [Eh]
	 SCS Opposite-Spin Energy  =      -1.8479433929935118 [Eh]
	 SCS Correlation Energy    =      -2.0151368821371003 [Eh]
	 SCS Total Energy          =    -492.7210346133937264 [Eh]
	-----------------------------------------------------------

  Dipole Moment: [D]
     X:     1.0457      Y:     4.6470      Z:     0.0002     Total:     4.7632

*** Psi4 exiting successfully. Buy a developer a beer!
