                               Psi4 1.3.2 release

  ==> Input File <==

--------------------------------------------------------------------------
#psi4
#
memory 32 gb

molecule  {
0 1
  O        2.3111590    -1.3984000     0.0000580
  O       -2.2718830    -1.4902890    -0.0001310
  N        1.1826080     0.6255060     0.0000550
  N        0.0153410    -1.3761840    -0.0000340
  C       -1.2346770     0.6647280    -0.0000250
  C       -0.0319280     1.2897490     0.0000350
  C        1.2605820    -0.7608720     0.0000310
  C       -1.1717100    -0.7391216    -0.0000618
  C        2.4243390     1.3942650     0.0001240
  C       -2.5504790     1.3758010    -0.0000570
  H        0.0516650     2.3739750     0.0000690
  H        0.0461780    -2.3935470    -0.0000610
  H        2.4800130     2.0209940     0.8935150
  H        2.4798690     2.0213500    -0.8930780
  H        3.2466700     0.6823050    -0.0000520
  H       -3.1375530     1.0948740    -0.8785960
  H       -2.4103180     2.4605130    -0.0000230
  H       -3.1376190     1.0948280     0.8784230
units angstrom
no_reorient  #important for SAPT in psi4, default
symmetry c1  #important for SAPT in psi4, default
}

set PROPERTIES_ORIGIN ["COM"]
properties('MP2/aug-cc-pvtz', properties = ['dipole'])
--------------------------------------------------------------------------

    Molecular point group: c1
  Charge       = 0
  Multiplicity = 1
  Basis Set: AUG-CC-PVTZ
    Blend: AUG-CC-PVTZ
  Basis Set: (AUG-CC-PVTZ AUX)
    Blend: AUG-CC-PVTZ-JKFIT

    Orbital Energies [Eh]
    ---------------------

    Doubly Occupied:

       1A    -20.547382     2A    -20.515647     3A    -15.647893
       4A    -15.636761     5A    -11.419734     6A    -11.372621
       7A    -11.333735     8A    -11.291945     9A    -11.261481
      10A    -11.238999    11A     -1.431635    12A     -1.347047
      13A     -1.306354    14A     -1.241626    15A     -1.120104
      16A     -0.998615    17A     -0.969727    18A     -0.929945
      19A     -0.862050    20A     -0.777856    21A     -0.753207
      22A     -0.696531    23A     -0.690334    24A     -0.650057
      25A     -0.635005    26A     -0.619043    27A     -0.597815
      28A     -0.585996    29A     -0.579946    30A     -0.562371
      31A     -0.543256    32A     -0.530771    33A     -0.494549
      34A     -0.476532    35A     -0.429743    36A     -0.417884
      37A     -0.349714

  @DF-RHF Final Energy:  -490.68982115671190

   => Energetics <=

    Nuclear Repulsion Energy =            531.0919493502541400
    One-Electron Energy =               -1721.8357155245926151
    Two-Electron Energy =                 700.0539450176264609
    Total Energy =                       -490.6898211567119006
  Basis Set: (AUG-CC-PVTZ AUX)
    Blend: AUG-CC-PVTZ-RI
    Molecular point group: c1

    Geometry (in Angstrom), charge = 0, multiplicity = 1:

       Center              X                  Y                   Z               Mass
    ------------   -----------------  -----------------  -----------------  -----------------
         O            2.301358588551    -1.337046790532     0.000058861230    15.994914619570
         O           -2.281683411449    -1.428935790532    -0.000130138770    15.994914619570
         N            1.172807588551     0.686859209468     0.000055861230    14.003074004430
         N            0.005540588551    -1.314830790532    -0.000033138770    14.003074004430
         C           -1.244477411449     0.726081209468    -0.000024138770    12.000000000000
         C           -0.041728411449     1.351102209468     0.000035861230    12.000000000000
         C            1.250781588551    -0.699518790532     0.000031861230    12.000000000000
         C           -1.181510411449    -0.677768390532    -0.000060938770    12.000000000000
         C            2.414538588551     1.455618209468     0.000124861230    12.000000000000
         C           -2.560279411449     1.437154209468    -0.000056138770    12.000000000000
         H            0.041864588551     2.435328209468     0.000069861230     1.007825032230
         H            0.036377588551    -2.332193790532    -0.000060138770     1.007825032230
         H            2.470212588551     2.082347209468     0.893515861230     1.007825032230
         H            2.470068588551     2.082703209468    -0.893077138770     1.007825032230
         H            3.236869588551     0.743658209468    -0.000051138770     1.007825032230
         H           -3.147353411449     1.156227209468    -0.878595138770     1.007825032230
         H           -2.420118411449     2.521866209468    -0.000022138770     1.007825032230
         H           -3.147419411449     1.156181209468     0.878423861230     1.007825032230

  Basis Set: AUG-CC-PVTZ
    Blend: AUG-CC-PVTZ
  Basis Set: (AUG-CC-PVTZ AUX)
    Blend: AUG-CC-PVTZ-JKFIT
	 Reference Energy          =    -490.6898211567119006 [Eh]
	 Singles Energy            =      -0.0000000000000000 [Eh]
	 Same-Spin Energy          =      -0.5050555882308628 [Eh]
	 Opposite-Spin Energy      =      -1.5458873423315254 [Eh]
	 Correlation Energy        =      -2.0509429305623881 [Eh]
	 Total Energy              =    -492.7407640872742718 [Eh]

	 ================> DF-SCS-MP2 Energies <==================
	-----------------------------------------------------------
	 SCS Same-Spin Scale       =       0.3333333333333333 [-]
	 SCS Opposite-Spin Scale   =       1.2000000000000000 [-]
	 SCS Same-Spin Energy      =      -0.1683518627436209 [Eh]
	 SCS Opposite-Spin Energy  =      -1.8550648107978303 [Eh]
	 SCS Correlation Energy    =      -2.0234166735414512 [Eh]
	 SCS Total Energy          =    -492.7132378302533766 [Eh]
	-----------------------------------------------------------

  Dipole Moment: [D]
     X:     1.7810      Y:     4.9188      Z:     0.0002     Total:     5.2313

*** Psi4 exiting successfully. Buy a developer a beer!
