                               Psi4 1.3.2 release

  ==> Input File <==

--------------------------------------------------------------------------
#psi4
#
memory 32 gb

molecule  {
0 1
  O        2.3111590    -1.3984000     0.0000580
  O       -2.2718830    -1.4902890    -0.0001310
  N        1.1826080     0.6255060     0.0000550
  N        0.0153410    -1.3761840    -0.0000340
  C       -1.2346770     0.6647280    -0.0000250
  C       -0.0319280     1.2897490     0.0000350
  C        1.2605820    -0.7608720     0.0000310
  C       -1.2542960    -0.7955090    -0.0000670
  C        2.4243390     1.3942650     0.0001240
  C       -2.5504790     1.3758010    -0.0000570
  H        0.0516650     2.3739750     0.0000690
  H        0.0461780    -2.3935470    -0.0000610
  H        2.4800130     2.0209940     0.8935150
  H        2.4955220     2.0119136    -0.8985262
  H        3.2527075     0.6895356    -0.0165340
  H       -3.1375530     1.0948740    -0.8785960
  H       -2.4103180     2.4605130    -0.0000230
  H       -3.1376190     1.0948280     0.8784230
units angstrom
no_reorient  #important for SAPT in psi4, default
symmetry c1  #important for SAPT in psi4, default
}

set PROPERTIES_ORIGIN ["COM"]
properties('MP2/aug-cc-pvtz', properties = ['dipole'])
--------------------------------------------------------------------------

    Molecular point group: c1
  Charge       = 0
  Multiplicity = 1
  Basis Set: AUG-CC-PVTZ
    Blend: AUG-CC-PVTZ
  Basis Set: (AUG-CC-PVTZ AUX)
    Blend: AUG-CC-PVTZ-JKFIT

    Orbital Energies [Eh]
    ---------------------

    Doubly Occupied:

       1A    -20.540438     2A    -20.538559     3A    -15.638422
       4A    -15.624604     5A    -11.413699     6A    -11.376221
       7A    -11.324995     8A    -11.285926     9A    -11.259649
      10A    -11.237128    11A     -1.424027    12A     -1.386992
      13A     -1.306755    14A     -1.242876    15A     -1.109000
      16A     -0.993131    17A     -0.963813    18A     -0.914228
      19A     -0.852966    20A     -0.770550    21A     -0.735101
      22A     -0.692348    23A     -0.682327    24A     -0.649850
      25A     -0.637678    26A     -0.616097    27A     -0.609785
      28A     -0.587183    29A     -0.583970    30A     -0.555111
      31A     -0.548102    32A     -0.543231    33A     -0.488265
      34A     -0.475281    35A     -0.444328    36A     -0.430561
      37A     -0.345984

  @DF-RHF Final Energy:  -490.71192964514665

   => Energetics <=

    Nuclear Repulsion Energy =            530.3377627674416317
    One-Electron Energy =               -1720.4410293517016726
    Two-Electron Energy =                 699.3913369391133301
    Total Energy =                       -490.7119296451465971
  Basis Set: (AUG-CC-PVTZ AUX)
    Blend: AUG-CC-PVTZ-RI
    Molecular point group: c1

    Geometry (in Angstrom), charge = 0, multiplicity = 1:

       Center              X                  Y                   Z               Mass
    ------------   -----------------  -----------------  -----------------  -----------------
         O            2.308278348757    -1.332199733875     0.000217110764    15.994914619570
         O           -2.274763651243    -1.424088733875     0.000028110764    15.994914619570
         N            1.179727348757     0.691706266125     0.000214110764    14.003074004430
         N            0.012460348757    -1.309983733875     0.000125110764    14.003074004430
         C           -1.237557651243     0.730928266125     0.000134110764    12.000000000000
         C           -0.034808651243     1.355949266125     0.000194110764    12.000000000000
         C            1.257701348757    -0.694671733875     0.000190110764    12.000000000000
         C           -1.257176651243    -0.729308733875     0.000092110764    12.000000000000
         C            2.421458348757     1.460465266125     0.000283110764    12.000000000000
         C           -2.553359651243     1.442001266125     0.000102110764    12.000000000000
         H            0.048784348757     2.440175266125     0.000228110764     1.007825032230
         H            0.043297348757    -2.327346733875     0.000098110764     1.007825032230
         H            2.477132348757     2.087194266125     0.893674110764     1.007825032230
         H            2.492641348757     2.078113866125    -0.898367089236     1.007825032230
         H            3.249826848757     0.755735866125    -0.016374889236     1.007825032230
         H           -3.140433651243     1.161074266125    -0.878436889236     1.007825032230
         H           -2.413198651243     2.526713266125     0.000136110764     1.007825032230
         H           -3.140499651243     1.161028266125     0.878582110764     1.007825032230

  Basis Set: AUG-CC-PVTZ
    Blend: AUG-CC-PVTZ
  Basis Set: (AUG-CC-PVTZ AUX)
    Blend: AUG-CC-PVTZ-JKFIT
	 Reference Energy          =    -490.7119296451466539 [Eh]
	 Singles Energy            =      -0.0000000000000000 [Eh]
	 Same-Spin Energy          =      -0.5023709923293692 [Eh]
	 Opposite-Spin Energy      =      -1.5414438233311101 [Eh]
	 Correlation Energy        =      -2.0438148156604794 [Eh]
	 Total Energy              =    -492.7557444608071364 [Eh]

	 ================> DF-SCS-MP2 Energies <==================
	-----------------------------------------------------------
	 SCS Same-Spin Scale       =       0.3333333333333333 [-]
	 SCS Opposite-Spin Scale   =       1.2000000000000000 [-]
	 SCS Same-Spin Energy      =      -0.1674569974431231 [Eh]
	 SCS Opposite-Spin Energy  =      -1.8497325879973321 [Eh]
	 SCS Correlation Energy    =      -2.0171895854404553 [Eh]
	 SCS Total Energy          =    -492.7291192305871164 [Eh]
	-----------------------------------------------------------

  Dipole Moment: [D]
     X:     1.0572      Y:     4.5202      Z:    -0.0107     Total:     4.6422

*** Psi4 exiting successfully. Buy a developer a beer!
