                               Psi4 1.3.2 release

  ==> Input File <==

--------------------------------------------------------------------------
#psi4
#
memory 32 gb

molecule  {
0 1
  O        2.3111590    -1.3984000     0.0000580
  O       -2.2718830    -1.4902890    -0.0001310
  N        1.1883583     0.6361300     0.0000555
  N        0.0153410    -1.3761840    -0.0000340
  C       -1.2346770     0.6647280    -0.0000250
  C       -0.0319280     1.2897490     0.0000350
  C        1.2605820    -0.7608720     0.0000310
  C       -1.2542960    -0.7955090    -0.0000670
  C        2.4243390     1.3942650     0.0001240
  C       -2.5504790     1.3758010    -0.0000570
  H        0.0611234     2.3732042     0.0000693
  H        0.0461780    -2.3935470    -0.0000610
  H        2.4800130     2.0209940     0.8935150
  H        2.4798690     2.0213500    -0.8930780
  H        3.2466700     0.6823050    -0.0000520
  H       -3.1375530     1.0948740    -0.8785960
  H       -2.4103180     2.4605130    -0.0000230
  H       -3.1376190     1.0948280     0.8784230
units angstrom
no_reorient  #important for SAPT in psi4, default
symmetry c1  #important for SAPT in psi4, default
}

set PROPERTIES_ORIGIN ["COM"]
properties('MP2/aug-cc-pvtz', properties = ['dipole'])
--------------------------------------------------------------------------

    Molecular point group: c1
  Charge       = 0
  Multiplicity = 1
  Basis Set: AUG-CC-PVTZ
    Blend: AUG-CC-PVTZ
  Basis Set: (AUG-CC-PVTZ AUX)
    Blend: AUG-CC-PVTZ-JKFIT

    Orbital Energies [Eh]
    ---------------------

    Doubly Occupied:

       1A    -20.541819     2A    -20.538807     3A    -15.637992
       4A    -15.625478     5A    -11.415069     6A    -11.376461
       7A    -11.324991     8A    -11.284879     9A    -11.259509
      10A    -11.237016    11A     -1.424015    12A     -1.387307
      13A     -1.306726    14A     -1.244005    15A     -1.108937
      16A     -0.993717    17A     -0.962072    18A     -0.914095
      19A     -0.853099    20A     -0.770047    21A     -0.735476
      22A     -0.692019    23A     -0.682099    24A     -0.651367
      25A     -0.637919    26A     -0.616156    27A     -0.610876
      28A     -0.587979    29A     -0.583944    30A     -0.555003
      31A     -0.548301    32A     -0.542967    33A     -0.487644
      34A     -0.475665    35A     -0.444736    36A     -0.431055
      37A     -0.345424

  @DF-RHF Final Energy:  -490.71153645071433

   => Energetics <=

    Nuclear Repulsion Energy =            530.2274422376473240
    One-Electron Energy =               -1720.2086190759707733
    Two-Electron Energy =                 699.2696403876090017
    Total Energy =                       -490.7115364507143340
  Basis Set: (AUG-CC-PVTZ AUX)
    Blend: AUG-CC-PVTZ-RI
    Molecular point group: c1

    Geometry (in Angstrom), charge = 0, multiplicity = 1:

       Center              X                  Y                   Z               Mass
    ------------   -----------------  -----------------  -----------------  -----------------
         O            2.307791452053    -1.333272248603     0.000059254609    15.994914619570
         O           -2.275250547947    -1.425161248603    -0.000129745391    15.994914619570
         N            1.184990752053     0.701257751397     0.000056754609    14.003074004430
         N            0.011973452053    -1.311056248603    -0.000032745391    14.003074004430
         C           -1.238044547947     0.729855751397    -0.000023745391    12.000000000000
         C           -0.035295547947     1.354876751397     0.000036254609    12.000000000000
         C            1.257214452053    -0.695744248603     0.000032254609    12.000000000000
         C           -1.257663547947    -0.730381248603    -0.000065745391    12.000000000000
         C            2.420971452053     1.459392751397     0.000125254609    12.000000000000
         C           -2.553846547947     1.440928751397    -0.000055745391    12.000000000000
         H            0.057755852053     2.438331951397     0.000070554609     1.007825032230
         H            0.042810452053    -2.328419248603    -0.000059745391     1.007825032230
         H            2.476645452053     2.086121751397     0.893516254609     1.007825032230
         H            2.476501452053     2.086477751397    -0.893076745391     1.007825032230
         H            3.243302452053     0.747432751397    -0.000050745391     1.007825032230
         H           -3.140920547947     1.160001751397    -0.878594745391     1.007825032230
         H           -2.413685547947     2.525640751397    -0.000021745391     1.007825032230
         H           -3.140986547947     1.159955751397     0.878424254609     1.007825032230

  Basis Set: AUG-CC-PVTZ
    Blend: AUG-CC-PVTZ
  Basis Set: (AUG-CC-PVTZ AUX)
    Blend: AUG-CC-PVTZ-JKFIT
	 Reference Energy          =    -490.7115364507143340 [Eh]
	 Singles Energy            =      -0.0000000000000000 [Eh]
	 Same-Spin Energy          =      -0.5024633691727756 [Eh]
	 Opposite-Spin Energy      =      -1.5415913606191318 [Eh]
	 Correlation Energy        =      -2.0440547297919074 [Eh]
	 Total Energy              =    -492.7555911805062578 [Eh]

	 ================> DF-SCS-MP2 Energies <==================
	-----------------------------------------------------------
	 SCS Same-Spin Scale       =       0.3333333333333333 [-]
	 SCS Opposite-Spin Scale   =       1.2000000000000000 [-]
	 SCS Same-Spin Energy      =      -0.1674877897242585 [Eh]
	 SCS Opposite-Spin Energy  =      -1.8499096327429581 [Eh]
	 SCS Correlation Energy    =      -2.0173974224672166 [Eh]
	 SCS Total Energy          =    -492.7289338731815747 [Eh]
	-----------------------------------------------------------

  Dipole Moment: [D]
     X:     1.0583      Y:     4.4662      Z:     0.0002     Total:     4.5899

*** Psi4 exiting successfully. Buy a developer a beer!
