                               Psi4 1.3.2 release

  ==> Input File <==

--------------------------------------------------------------------------
#psi4
#
memory 32 gb

molecule  {
0 1
  O        2.3111590    -1.3984000     0.0000580
  O       -2.2718830    -1.4902890    -0.0001310
  N        1.1826080     0.6255060     0.0000550
  N        0.0153410    -1.3761840    -0.0000340
  C       -1.2346770     0.6647280    -0.0000250
  C       -0.0319280     1.2897490     0.0000350
  C        1.2605820    -0.7608720     0.0000310
  C       -1.2569829    -0.9954910    -0.0000728
  C        2.4243390     1.3942650     0.0001240
  C       -2.5504790     1.3758010    -0.0000570
  H        0.0516650     2.3739750     0.0000690
  H        0.0461780    -2.3935470    -0.0000610
  H        2.4800130     2.0209940     0.8935150
  H        2.4798690     2.0213500    -0.8930780
  H        3.2466700     0.6823050    -0.0000520
  H       -3.1375530     1.0948740    -0.8785960
  H       -2.4103180     2.4605130    -0.0000230
  H       -3.1376190     1.0948280     0.8784230
units angstrom
no_reorient  #important for SAPT in psi4, default
symmetry c1  #important for SAPT in psi4, default
}

set PROPERTIES_ORIGIN ["COM"]
properties('MP2/aug-cc-pvtz', properties = ['dipole'])
--------------------------------------------------------------------------

    Molecular point group: c1
  Charge       = 0
  Multiplicity = 1
  Basis Set: AUG-CC-PVTZ
    Blend: AUG-CC-PVTZ
  Basis Set: (AUG-CC-PVTZ AUX)
    Blend: AUG-CC-PVTZ-JKFIT

    Orbital Energies [Eh]
    ---------------------

    Doubly Occupied:

       1A    -20.558793     2A    -20.544007     3A    -15.630816
       4A    -15.626510     5A    -11.420070     6A    -11.379468
       7A    -11.296885     8A    -11.278932     9A    -11.250760
      10A    -11.229757    11A     -1.472311    12A     -1.420473
      13A     -1.305970    14A     -1.266852    15A     -1.078754
      16A     -0.990338    17A     -0.959761    18A     -0.894308
      19A     -0.859601    20A     -0.762400    21A     -0.722600
      22A     -0.694109    23A     -0.682835    24A     -0.670482
      25A     -0.639561    26A     -0.631976    27A     -0.611113
      28A     -0.582955    29A     -0.578866    30A     -0.565759
      31A     -0.556733    32A     -0.541686    33A     -0.478661
      34A     -0.473803    35A     -0.452589    36A     -0.419948
      37A     -0.329874

  @DF-RHF Final Energy:  -490.67372797761732

   => Energetics <=

    Nuclear Repulsion Energy =            529.9755003893604908
    One-Electron Energy =               -1719.5778272138445573
    Two-Electron Energy =                 698.9285988468666346
    Total Energy =                       -490.6737279776173182
  Basis Set: (AUG-CC-PVTZ AUX)
    Blend: AUG-CC-PVTZ-RI
    Molecular point group: c1

    Geometry (in Angstrom), charge = 0, multiplicity = 1:

       Center              X                  Y                   Z               Mass
    ------------   -----------------  -----------------  -----------------  -----------------
         O            2.308664637336    -1.315081461062     0.000059803693    15.994914619570
         O           -2.274377362664    -1.406970461062    -0.000129196307    15.994914619570
         N            1.180113637336     0.708824538938     0.000056803693    14.003074004430
         N            0.012846637336    -1.292865461062    -0.000032196307    14.003074004430
         C           -1.237171362664     0.748046538938    -0.000023196307    12.000000000000
         C           -0.034422362664     1.373067538938     0.000036803693    12.000000000000
         C            1.258087637336    -0.677553461062     0.000032803693    12.000000000000
         C           -1.259477262664    -0.912172461062    -0.000070996307    12.000000000000
         C            2.421844637336     1.477583538938     0.000125803693    12.000000000000
         C           -2.552973362664     1.459119538938    -0.000055196307    12.000000000000
         H            0.049170637336     2.457293538938     0.000070803693     1.007825032230
         H            0.043683637336    -2.310228461062    -0.000059196307     1.007825032230
         H            2.477518637336     2.104312538938     0.893516803693     1.007825032230
         H            2.477374637336     2.104668538938    -0.893076196307     1.007825032230
         H            3.244175637336     0.765623538938    -0.000050196307     1.007825032230
         H           -3.140047362664     1.178192538938    -0.878594196307     1.007825032230
         H           -2.412812362664     2.543831538938    -0.000021196307     1.007825032230
         H           -3.140113362664     1.178146538938     0.878424803693     1.007825032230

  Basis Set: AUG-CC-PVTZ
    Blend: AUG-CC-PVTZ
  Basis Set: (AUG-CC-PVTZ AUX)
    Blend: AUG-CC-PVTZ-JKFIT
	 Reference Energy          =    -490.6737279776173182 [Eh]
	 Singles Energy            =      -0.0000000000000000 [Eh]
	 Same-Spin Energy          =      -0.5003583558804319 [Eh]
	 Opposite-Spin Energy      =      -1.5385558516499591 [Eh]
	 Correlation Energy        =      -2.0389142075303912 [Eh]
	 Total Energy              =    -492.7126421851477289 [Eh]

	 ================> DF-SCS-MP2 Energies <==================
	-----------------------------------------------------------
	 SCS Same-Spin Scale       =       0.3333333333333333 [-]
	 SCS Opposite-Spin Scale   =       1.2000000000000000 [-]
	 SCS Same-Spin Energy      =      -0.1667861186268106 [Eh]
	 SCS Opposite-Spin Energy  =      -1.8462670219799509 [Eh]
	 SCS Correlation Energy    =      -2.0130531406067615 [Eh]
	 SCS Total Energy          =    -492.6867811182240757 [Eh]
	-----------------------------------------------------------

  Dipole Moment: [D]
     X:     0.6375      Y:     3.2953      Z:     0.0001     Total:     3.3564

*** Psi4 exiting successfully. Buy a developer a beer!
