                               Psi4 1.3.2 release

  ==> Input File <==

--------------------------------------------------------------------------
#psi4
#
memory 32 gb

molecule  {
0 1
  O        2.3111590    -1.3984000     0.0000580
  O       -2.2718830    -1.4902890    -0.0001310
  N        1.1826080     0.6255060     0.0000550
  N        0.0153410    -1.3761840    -0.0000340
  C       -1.2346770     0.6647280    -0.0000250
  C       -0.0319280     1.2897490     0.0000350
  C        1.2605820    -0.7608720     0.0000310
  C       -1.4361763    -0.7123251    -0.0000717
  C        2.4243390     1.3942650     0.0001240
  C       -2.5504790     1.3758010    -0.0000570
  H        0.0516650     2.3739750     0.0000690
  H        0.0461780    -2.3935470    -0.0000610
  H        2.4800130     2.0209940     0.8935150
  H        2.4798690     2.0213500    -0.8930780
  H        3.2466700     0.6823050    -0.0000520
  H       -3.1375530     1.0948740    -0.8785960
  H       -2.4103180     2.4605130    -0.0000230
  H       -3.1376190     1.0948280     0.8784230
units angstrom
no_reorient  #important for SAPT in psi4, default
symmetry c1  #important for SAPT in psi4, default
}

set PROPERTIES_ORIGIN ["COM"]
properties('MP2/aug-cc-pvtz', properties = ['dipole'])
--------------------------------------------------------------------------

    Molecular point group: c1
  Charge       = 0
  Multiplicity = 1
  Basis Set: AUG-CC-PVTZ
    Blend: AUG-CC-PVTZ
  Basis Set: (AUG-CC-PVTZ AUX)
    Blend: AUG-CC-PVTZ-JKFIT

    Orbital Energies [Eh]
    ---------------------

    Doubly Occupied:

       1A    -20.569064     2A    -20.520305     3A    -15.633375
       4A    -15.583796     5A    -11.390992     6A    -11.382815
       7A    -11.339187     8A    -11.281606     9A    -11.257669
      10A    -11.241175    11A     -1.465172    12A     -1.399105
      13A     -1.297597    14A     -1.191447    15A     -1.123022
      16A     -0.993310    17A     -0.956014    18A     -0.918039
      19A     -0.824681    20A     -0.762877    21A     -0.714873
      22A     -0.707551    23A     -0.672624    24A     -0.659092
      25A     -0.629650    26A     -0.626346    27A     -0.619517
      28A     -0.585687    29A     -0.578954    30A     -0.563439
      31A     -0.558458    32A     -0.555965    33A     -0.483171
      34A     -0.477917    35A     -0.427783    36A     -0.409656
      37A     -0.350847

  @DF-RHF Final Energy:  -490.67764009336645

   => Energetics <=

    Nuclear Repulsion Energy =            529.7936291903943129
    One-Electron Energy =               -1719.4369843694062183
    Two-Electron Energy =                 698.9657150856454564
    Total Energy =                       -490.6776400933664490
  Basis Set: (AUG-CC-PVTZ AUX)
    Blend: AUG-CC-PVTZ-RI
    Molecular point group: c1

    Geometry (in Angstrom), charge = 0, multiplicity = 1:

       Center              X                  Y                   Z               Mass
    ------------   -----------------  -----------------  -----------------  -----------------
         O            2.324017647757    -1.339342672767     0.000059709447    15.994914619570
         O           -2.259024352243    -1.431231672767    -0.000129290553    15.994914619570
         N            1.195466647757     0.684563327233     0.000056709447    14.003074004430
         N            0.028199647757    -1.317126672767    -0.000032290553    14.003074004430
         C           -1.221818352243     0.723785327233    -0.000023290553    12.000000000000
         C           -0.019069352243     1.348806327233     0.000036709447    12.000000000000
         C            1.273440647757    -0.701814672767     0.000032709447    12.000000000000
         C           -1.423317652243    -0.653267772767    -0.000069990553    12.000000000000
         C            2.437197647757     1.453322327233     0.000125709447    12.000000000000
         C           -2.537620352243     1.434858327233    -0.000055290553    12.000000000000
         H            0.064523647757     2.433032327233     0.000070709447     1.007825032230
         H            0.059036647757    -2.334489672767    -0.000059290553     1.007825032230
         H            2.492871647757     2.080051327233     0.893516709447     1.007825032230
         H            2.492727647757     2.080407327233    -0.893076290553     1.007825032230
         H            3.259528647757     0.741362327233    -0.000050290553     1.007825032230
         H           -3.124694352243     1.153931327233    -0.878594290553     1.007825032230
         H           -2.397459352243     2.519570327233    -0.000021290553     1.007825032230
         H           -3.124760352243     1.153885327233     0.878424709447     1.007825032230

  Basis Set: AUG-CC-PVTZ
    Blend: AUG-CC-PVTZ
  Basis Set: (AUG-CC-PVTZ AUX)
    Blend: AUG-CC-PVTZ-JKFIT
	 Reference Energy          =    -490.6776400933664490 [Eh]
	 Singles Energy            =      -0.0000000000000000 [Eh]
	 Same-Spin Energy          =      -0.5028364666043326 [Eh]
	 Opposite-Spin Energy      =      -1.5418298842795402 [Eh]
	 Correlation Energy        =      -2.0446663508838725 [Eh]
	 Total Energy              =    -492.7223064442503073 [Eh]

	 ================> DF-SCS-MP2 Energies <==================
	-----------------------------------------------------------
	 SCS Same-Spin Scale       =       0.3333333333333333 [-]
	 SCS Opposite-Spin Scale   =       1.2000000000000000 [-]
	 SCS Same-Spin Energy      =      -0.1676121555347775 [Eh]
	 SCS Opposite-Spin Energy  =      -1.8501958611354481 [Eh]
	 SCS Correlation Energy    =      -2.0178080166702257 [Eh]
	 SCS Total Energy          =    -492.6954481100366934 [Eh]
	-----------------------------------------------------------

  Dipole Moment: [D]
     X:    -0.3605      Y:     4.8378      Z:     0.0001     Total:     4.8513

*** Psi4 exiting successfully. Buy a developer a beer!
