                               Psi4 1.3.2 release

  ==> Input File <==

--------------------------------------------------------------------------
#psi4
#
memory 32 gb

molecule  {
0 1
  O        2.3111590    -1.3984000     0.0000580
  O       -2.2718830    -1.4902890    -0.0001310
  N        1.1826080     0.6255060     0.0000550
  N        0.0153410    -1.3761840    -0.0000340
  C       -1.2346770     0.6647280    -0.0000250
  C       -0.0319280     1.2897490     0.0000350
  C        1.2605820    -0.7608720     0.0000310
  C       -1.2542960    -0.7955090    -0.0000670
  C        2.4243390     1.3942650     0.0001240
  C       -2.5504790     1.3758010    -0.0000570
  H        0.0362908     2.1745668     0.0000627
  H        0.0461780    -2.3935470    -0.0000610
  H        2.4800130     2.0209940     0.8935150
  H        2.4798690     2.0213500    -0.8930780
  H        3.2466700     0.6823050    -0.0000520
  H       -3.1375530     1.0948740    -0.8785960
  H       -2.4103180     2.4605130    -0.0000230
  H       -3.1376190     1.0948280     0.8784230
units angstrom
no_reorient  #important for SAPT in psi4, default
symmetry c1  #important for SAPT in psi4, default
}

set PROPERTIES_ORIGIN ["COM"]
properties('MP2/aug-cc-pvtz', properties = ['dipole'])
--------------------------------------------------------------------------

    Molecular point group: c1
  Charge       = 0
  Multiplicity = 1
  Basis Set: AUG-CC-PVTZ
    Blend: AUG-CC-PVTZ
  Basis Set: (AUG-CC-PVTZ AUX)
    Blend: AUG-CC-PVTZ-JKFIT

    Orbital Energies [Eh]
    ---------------------

    Doubly Occupied:

       1A    -20.539892     2A    -20.538383     3A    -15.636832
       4A    -15.624318     5A    -11.412776     6A    -11.375508
       7A    -11.302481     8A    -11.286063     9A    -11.259564
      10A    -11.237619    11A     -1.423573    12A     -1.386735
      13A     -1.307632    14A     -1.243091    15A     -1.113781
      16A     -0.994495    17A     -0.975077    18A     -0.926264
      19A     -0.852476    20A     -0.774569    21A     -0.740024
      22A     -0.721989    23A     -0.681763    24A     -0.649872
      25A     -0.642319    26A     -0.616139    27A     -0.615630
      28A     -0.588659    29A     -0.584199    30A     -0.555551
      31A     -0.548166    32A     -0.542990    33A     -0.487756
      34A     -0.476246    35A     -0.444311    36A     -0.430248
      37A     -0.345663

  @DF-RHF Final Energy:  -490.67754059302075

   => Energetics <=

    Nuclear Repulsion Energy =            531.6184265946653795
    One-Electron Energy =               -1722.8266276728218145
    Two-Electron Energy =                 700.5306604851357406
    Total Energy =                       -490.6775405930206944
  Basis Set: (AUG-CC-PVTZ AUX)
    Blend: AUG-CC-PVTZ-RI
    Molecular point group: c1

    Geometry (in Angstrom), charge = 0, multiplicity = 1:

       Center              X                  Y                   Z               Mass
    ------------   -----------------  -----------------  -----------------  -----------------
         O            2.308545056682    -1.330780716784     0.000059352091    15.994914619570
         O           -2.274496943318    -1.422669716784    -0.000129647909    15.994914619570
         N            1.179994056682     0.693125283216     0.000056352091    14.003074004430
         N            0.012727056682    -1.308564716784    -0.000032647909    14.003074004430
         C           -1.237290943318     0.732347283216    -0.000023647909    12.000000000000
         C           -0.034541943318     1.357368283216     0.000036352091    12.000000000000
         C            1.257968056682    -0.693252716784     0.000032352091    12.000000000000
         C           -1.256909943318    -0.727889716784    -0.000065647909    12.000000000000
         C            2.421725056682     1.461884283216     0.000125352091    12.000000000000
         C           -2.553092943318     1.443420283216    -0.000055647909    12.000000000000
         H            0.033676856682     2.242186083216     0.000064052091     1.007825032230
         H            0.043564056682    -2.325927716784    -0.000059647909     1.007825032230
         H            2.477399056682     2.088613283216     0.893516352091     1.007825032230
         H            2.477255056682     2.088969283216    -0.893076647909     1.007825032230
         H            3.244056056682     0.749924283216    -0.000050647909     1.007825032230
         H           -3.140166943318     1.162493283216    -0.878594647909     1.007825032230
         H           -2.412931943318     2.528132283216    -0.000021647909     1.007825032230
         H           -3.140232943318     1.162447283216     0.878424352091     1.007825032230

  Basis Set: AUG-CC-PVTZ
    Blend: AUG-CC-PVTZ
  Basis Set: (AUG-CC-PVTZ AUX)
    Blend: AUG-CC-PVTZ-JKFIT
	 Reference Energy          =    -490.6775405930207512 [Eh]
	 Singles Energy            =      -0.0000000000000000 [Eh]
	 Same-Spin Energy          =      -0.5019447560397219 [Eh]
	 Opposite-Spin Energy      =      -1.5406949641081211 [Eh]
	 Correlation Energy        =      -2.0426397201478430 [Eh]
	 Total Energy              =    -492.7201803131686120 [Eh]

	 ================> DF-SCS-MP2 Energies <==================
	-----------------------------------------------------------
	 SCS Same-Spin Scale       =       0.3333333333333333 [-]
	 SCS Opposite-Spin Scale   =       1.2000000000000000 [-]
	 SCS Same-Spin Energy      =      -0.1673149186799073 [Eh]
	 SCS Opposite-Spin Energy  =      -1.8488339569297452 [Eh]
	 SCS Correlation Energy    =      -2.0161488756096526 [Eh]
	 SCS Total Energy          =    -492.6936894686303958 [Eh]
	-----------------------------------------------------------

  Dipole Moment: [D]
     X:     1.0285      Y:     4.5257      Z:     0.0002     Total:     4.6411

*** Psi4 exiting successfully. Buy a developer a beer!
