                               Psi4 1.3.2 release

  ==> Input File <==

--------------------------------------------------------------------------
#psi4
#
memory 32 gb

molecule  {
0 1
  O        2.3166824    -1.3892078     0.0000584
  O       -2.2718830    -1.4902890    -0.0001310
  N        1.1947092     0.6261337     0.0000555
  N        0.0153410    -1.3761840    -0.0000340
  C       -1.2346770     0.6647280    -0.0000250
  C       -0.0319280     1.2897490     0.0000350
  C        1.2605820    -0.7608720     0.0000310
  C       -1.2542960    -0.7955090    -0.0000670
  C        2.4243390     1.3942650     0.0001240
  C       -2.5504790     1.3758010    -0.0000570
  H        0.0516650     2.3739750     0.0000690
  H        0.0461780    -2.3935470    -0.0000610
  H        2.4800130     2.0209940     0.8935150
  H        2.4798690     2.0213500    -0.8930780
  H        3.2466700     0.6823050    -0.0000520
  H       -3.1375530     1.0948740    -0.8785960
  H       -2.4103180     2.4605130    -0.0000230
  H       -3.1376190     1.0948280     0.8784230
units angstrom
no_reorient  #important for SAPT in psi4, default
symmetry c1  #important for SAPT in psi4, default
}

set PROPERTIES_ORIGIN ["COM"]
properties('MP2/aug-cc-pvtz', properties = ['dipole'])
--------------------------------------------------------------------------

    Molecular point group: c1
  Charge       = 0
  Multiplicity = 1
  Basis Set: AUG-CC-PVTZ
    Blend: AUG-CC-PVTZ
  Basis Set: (AUG-CC-PVTZ AUX)
    Blend: AUG-CC-PVTZ-JKFIT

    Orbital Energies [Eh]
    ---------------------

    Doubly Occupied:

       1A    -20.539739     2A    -20.539601     3A    -15.637270
       4A    -15.625586     5A    -11.413390     6A    -11.377160
       7A    -11.325492     8A    -11.284184     9A    -11.260804
      10A    -11.237750    11A     -1.423910    12A     -1.387818
      13A     -1.304804    14A     -1.243912    15A     -1.109716
      16A     -0.993205    17A     -0.963285    18A     -0.914194
      19A     -0.852314    20A     -0.770447    21A     -0.735853
      22A     -0.691206    23A     -0.682024    24A     -0.650747
      25A     -0.637587    26A     -0.615978    27A     -0.611052
      28A     -0.588665    29A     -0.584282    30A     -0.554636
      31A     -0.548542    32A     -0.543325    33A     -0.485527
      34A     -0.474847    35A     -0.445130    36A     -0.431273
      37A     -0.346805

  @DF-RHF Final Energy:  -490.71181704524940

   => Energetics <=

    Nuclear Repulsion Energy =            530.2940682460400694
    One-Electron Energy =               -1720.3476531559815612
    Two-Electron Energy =                 699.3417678646920876
    Total Energy =                       -490.7118170452494041
  Basis Set: (AUG-CC-PVTZ AUX)
    Blend: AUG-CC-PVTZ-RI
    Molecular point group: c1

    Geometry (in Angstrom), charge = 0, multiplicity = 1:

       Center              X                  Y                   Z               Mass
    ------------   -----------------  -----------------  -----------------  -----------------
         O            2.312117167307    -1.324135927772     0.000059611087    15.994914619570
         O           -2.276448232693    -1.425217127772    -0.000129788913    15.994914619570
         N            1.190143967307     0.691205572228     0.000056711087    14.003074004430
         N            0.010775767307    -1.311112127772    -0.000032788913    14.003074004430
         C           -1.239242232693     0.729799872228    -0.000023788913    12.000000000000
         C           -0.036493232693     1.354820872228     0.000036211087    12.000000000000
         C            1.256016767307    -0.695800127772     0.000032211087    12.000000000000
         C           -1.258861232693    -0.730437127772    -0.000065788913    12.000000000000
         C            2.419773767307     1.459336872228     0.000125211087    12.000000000000
         C           -2.555044232693     1.440872872228    -0.000055788913    12.000000000000
         H            0.047099767307     2.439046872228     0.000070211087     1.007825032230
         H            0.041612767307    -2.328475127772    -0.000059788913     1.007825032230
         H            2.475447767307     2.086065872228     0.893516211087     1.007825032230
         H            2.475303767307     2.086421872228    -0.893076788913     1.007825032230
         H            3.242104767307     0.747376872228    -0.000050788913     1.007825032230
         H           -3.142118232693     1.159945872228    -0.878594788913     1.007825032230
         H           -2.414883232693     2.525584872228    -0.000021788913     1.007825032230
         H           -3.142184232693     1.159899872228     0.878424211087     1.007825032230

  Basis Set: AUG-CC-PVTZ
    Blend: AUG-CC-PVTZ
  Basis Set: (AUG-CC-PVTZ AUX)
    Blend: AUG-CC-PVTZ-JKFIT
	 Reference Energy          =    -490.7118170452494041 [Eh]
	 Singles Energy            =      -0.0000000000000000 [Eh]
	 Same-Spin Energy          =      -0.5023271178935211 [Eh]
	 Opposite-Spin Energy      =      -1.5414383942642766 [Eh]
	 Correlation Energy        =      -2.0437655121577976 [Eh]
	 Total Energy              =    -492.7555825574071946 [Eh]

	 ================> DF-SCS-MP2 Energies <==================
	-----------------------------------------------------------
	 SCS Same-Spin Scale       =       0.3333333333333333 [-]
	 SCS Opposite-Spin Scale   =       1.2000000000000000 [-]
	 SCS Same-Spin Energy      =      -0.1674423726311737 [Eh]
	 SCS Opposite-Spin Energy  =      -1.8497260731171319 [Eh]
	 SCS Correlation Energy    =      -2.0171684457483057 [Eh]
	 SCS Total Energy          =    -492.7289854909977294 [Eh]
	-----------------------------------------------------------

  Dipole Moment: [D]
     X:     0.9657      Y:     4.4845      Z:     0.0002     Total:     4.5873

*** Psi4 exiting successfully. Buy a developer a beer!
