                               Psi4 1.3.2 release

  ==> Input File <==

--------------------------------------------------------------------------
#psi4
#
memory 32 gb

molecule  {
0 1
  O        2.3111590    -1.3984000     0.0000580
  O       -2.2718830    -1.4902890    -0.0001310
  N        1.1826080     0.6255060     0.0000550
  N        0.0153410    -1.3761840    -0.0000340
  C       -1.2346770     0.6647280    -0.0000250
  C       -0.0201504     1.3108444     0.0000361
  C        1.2605820    -0.7608720     0.0000310
  C       -1.2542960    -0.7955090    -0.0000670
  C        2.4107332     1.4158191     0.0001242
  C       -2.5504790     1.3758010    -0.0000570
  H        0.0516650     2.3739750     0.0000690
  H        0.0461780    -2.3935470    -0.0000610
  H        2.4800130     2.0209940     0.8935150
  H        2.4798690     2.0213500    -0.8930780
  H        3.2466700     0.6823050    -0.0000520
  H       -3.1375530     1.0948740    -0.8785960
  H       -2.4103180     2.4605130    -0.0000230
  H       -3.1376190     1.0948280     0.8784230
units angstrom
no_reorient  #important for SAPT in psi4, default
symmetry c1  #important for SAPT in psi4, default
}

set PROPERTIES_ORIGIN ["COM"]
properties('MP2/aug-cc-pvtz', properties = ['dipole'])
--------------------------------------------------------------------------

    Molecular point group: c1
  Charge       = 0
  Multiplicity = 1
  Basis Set: AUG-CC-PVTZ
    Blend: AUG-CC-PVTZ
  Basis Set: (AUG-CC-PVTZ AUX)
    Blend: AUG-CC-PVTZ-JKFIT

    Orbital Energies [Eh]
    ---------------------

    Doubly Occupied:

       1A    -20.540950     2A    -20.538202     3A    -15.638840
       4A    -15.624891     5A    -11.414835     6A    -11.376142
       7A    -11.326146     8A    -11.285509     9A    -11.261548
      10A    -11.236468    11A     -1.424096    12A     -1.386791
      13A     -1.306949    14A     -1.243241    15A     -1.105020
      16A     -0.992436    17A     -0.965212    18A     -0.915614
      19A     -0.851141    20A     -0.769404    21A     -0.735377
      22A     -0.697095    23A     -0.683718    24A     -0.649693
      25A     -0.638410    26A     -0.618542    27A     -0.610199
      28A     -0.584716    29A     -0.583968    30A     -0.552665
      31A     -0.545037    32A     -0.543856    33A     -0.488260
      34A     -0.476080    35A     -0.444293    36A     -0.430639
      37A     -0.342896

  @DF-RHF Final Energy:  -490.70903285543665

   => Energetics <=

    Nuclear Repulsion Energy =            529.9514637252717648
    One-Electron Energy =               -1719.6632333334564464
    Two-Electron Energy =                 699.0027367527478646
    Total Energy =                       -490.7090328554367034
  Basis Set: (AUG-CC-PVTZ AUX)
    Blend: AUG-CC-PVTZ-RI
    Molecular point group: c1

    Geometry (in Angstrom), charge = 0, multiplicity = 1:

       Center              X                  Y                   Z               Mass
    ------------   -----------------  -----------------  -----------------  -----------------
         O            2.308591065262    -1.335869748733     0.000059195376    15.994914619570
         O           -2.274450934738    -1.427758748733    -0.000129804624    15.994914619570
         N            1.180040065262     0.688036251267     0.000056195376    14.003074004430
         N            0.012773065262    -1.313653748733    -0.000032804624    14.003074004430
         C           -1.237244934738     0.727258251267    -0.000023804624    12.000000000000
         C           -0.022718334738     1.373374651267     0.000037295376    12.000000000000
         C            1.258014065262    -0.698341748733     0.000032195376    12.000000000000
         C           -1.256863934738    -0.732978748733    -0.000065804624    12.000000000000
         C            2.408165265262     1.478349351267     0.000125395376    12.000000000000
         C           -2.553046934738     1.438331251267    -0.000055804624    12.000000000000
         H            0.049097065262     2.436505251267     0.000070195376     1.007825032230
         H            0.043610065262    -2.331016748733    -0.000059804624     1.007825032230
         H            2.477445065262     2.083524251267     0.893516195376     1.007825032230
         H            2.477301065262     2.083880251267    -0.893076804624     1.007825032230
         H            3.244102065262     0.744835251267    -0.000050804624     1.007825032230
         H           -3.140120934738     1.157404251267    -0.878594804624     1.007825032230
         H           -2.412885934738     2.523043251267    -0.000021804624     1.007825032230
         H           -3.140186934738     1.157358251267     0.878424195376     1.007825032230

  Basis Set: AUG-CC-PVTZ
    Blend: AUG-CC-PVTZ
  Basis Set: (AUG-CC-PVTZ AUX)
    Blend: AUG-CC-PVTZ-JKFIT
	 Reference Energy          =    -490.7090328554366465 [Eh]
	 Singles Energy            =      -0.0000000000000000 [Eh]
	 Same-Spin Energy          =      -0.5027626135306723 [Eh]
	 Opposite-Spin Energy      =      -1.5422172407195767 [Eh]
	 Correlation Energy        =      -2.0449798542502489 [Eh]
	 Total Energy              =    -492.7540127096868900 [Eh]

	 ================> DF-SCS-MP2 Energies <==================
	-----------------------------------------------------------
	 SCS Same-Spin Scale       =       0.3333333333333333 [-]
	 SCS Opposite-Spin Scale   =       1.2000000000000000 [-]
	 SCS Same-Spin Energy      =      -0.1675875378435574 [Eh]
	 SCS Opposite-Spin Energy  =      -1.8506606888634920 [Eh]
	 SCS Correlation Energy    =      -2.0182482267070494 [Eh]
	 SCS Total Energy          =    -492.7272810821436906 [Eh]
	-----------------------------------------------------------

  Dipole Moment: [D]
     X:     1.0633      Y:     4.5401      Z:     0.0002     Total:     4.6629

*** Psi4 exiting successfully. Buy a developer a beer!
