                               Psi4 1.3.2 release

  ==> Input File <==

--------------------------------------------------------------------------
#psi4
#
memory 32 gb

molecule  {
0 1
  O        2.3111590    -1.3984000     0.0000580
  O       -2.2718830    -1.4902890    -0.0001310
  N        1.1461797     0.5628524     0.0000518
  N        0.0153410    -1.3761840    -0.0000340
  C       -1.2003176     0.6026376    -0.0000258
  C       -0.0319280     1.2897490     0.0000350
  C        1.2605820    -0.7608720     0.0000310
  C       -1.2542960    -0.7955090    -0.0000670
  C        2.4243390     1.3942650     0.0001240
  C       -2.5504790     1.3758010    -0.0000570
  H        0.0516650     2.3739750     0.0000690
  H        0.0461780    -2.3935470    -0.0000610
  H        2.4800130     2.0209940     0.8935150
  H        2.4798690     2.0213500    -0.8930780
  H        3.2466700     0.6823050    -0.0000520
  H       -3.1375530     1.0948740    -0.8785960
  H       -2.4103180     2.4605130    -0.0000230
  H       -3.1376190     1.0948280     0.8784230
units angstrom
no_reorient  #important for SAPT in psi4, default
symmetry c1  #important for SAPT in psi4, default
}

set PROPERTIES_ORIGIN ["COM"]
properties('MP2/aug-cc-pvtz', properties = ['dipole'])
--------------------------------------------------------------------------

    Molecular point group: c1
  Charge       = 0
  Multiplicity = 1
  Basis Set: AUG-CC-PVTZ
    Blend: AUG-CC-PVTZ
  Basis Set: (AUG-CC-PVTZ AUX)
    Blend: AUG-CC-PVTZ-JKFIT

    Orbital Energies [Eh]
    ---------------------

    Doubly Occupied:

       1A    -20.534354     2A    -20.532005     3A    -15.639526
       4A    -15.617571     5A    -11.404577     6A    -11.369900
       7A    -11.331637     8A    -11.293624     9A    -11.258099
      10A    -11.239744    11A     -1.425997    12A     -1.384661
      13A     -1.310325    14A     -1.236694    15A     -1.109694
      16A     -0.991540    17A     -0.969058    18A     -0.926627
      19A     -0.849197    20A     -0.776546    21A     -0.732338
      22A     -0.701132    23A     -0.684940    24A     -0.639828
      25A     -0.637514    26A     -0.614441    27A     -0.602006
      28A     -0.592153    29A     -0.580896    30A     -0.553568
      31A     -0.544416    32A     -0.532822    33A     -0.490637
      34A     -0.474425    35A     -0.442662    36A     -0.426847
      37A     -0.350785

  @DF-RHF Final Energy:  -490.69906332252697

   => Energetics <=

    Nuclear Repulsion Energy =            532.2115523388984002
    One-Electron Energy =               -1724.2156618791543679
    Two-Electron Energy =                 701.3050462177290001
    Total Energy =                       -490.6990633225269676
  Basis Set: (AUG-CC-PVTZ AUX)
    Blend: AUG-CC-PVTZ-RI
    Molecular point group: c1

    Geometry (in Angstrom), charge = 0, multiplicity = 1:

       Center              X                  Y                   Z               Mass
    ------------   -----------------  -----------------  -----------------  -----------------
         O            2.309132674224    -1.320631683093     0.000059695237    15.994914619570
         O           -2.273909325776    -1.412520683093    -0.000129304763    15.994914619570
         N            1.144153374224     0.640620716907     0.000053495237    14.003074004430
         N            0.013314674224    -1.298415683093    -0.000032304763    14.003074004430
         C           -1.202343925776     0.680405916907    -0.000024104763    12.000000000000
         C           -0.033954325776     1.367517316907     0.000036695237    12.000000000000
         C            1.258555674224    -0.683103683093     0.000032695237    12.000000000000
         C           -1.256322325776    -0.717740683093    -0.000065304763    12.000000000000
         C            2.422312674224     1.472033316907     0.000125695237    12.000000000000
         C           -2.552505325776     1.453569316907    -0.000055304763    12.000000000000
         H            0.049638674224     2.451743316907     0.000070695237     1.007825032230
         H            0.044151674224    -2.315778683093    -0.000059304763     1.007825032230
         H            2.477986674224     2.098762316907     0.893516695237     1.007825032230
         H            2.477842674224     2.099118316907    -0.893076304763     1.007825032230
         H            3.244643674224     0.760073316907    -0.000050304763     1.007825032230
         H           -3.139579325776     1.172642316907    -0.878594304763     1.007825032230
         H           -2.412344325776     2.538281316907    -0.000021304763     1.007825032230
         H           -3.139645325776     1.172596316907     0.878424695237     1.007825032230

  Basis Set: AUG-CC-PVTZ
    Blend: AUG-CC-PVTZ
  Basis Set: (AUG-CC-PVTZ AUX)
    Blend: AUG-CC-PVTZ-JKFIT
	 Reference Energy          =    -490.6990633225269676 [Eh]
	 Singles Energy            =      -0.0000000000000000 [Eh]
	 Same-Spin Energy          =      -0.5029144248978865 [Eh]
	 Opposite-Spin Energy      =      -1.5422636187198819 [Eh]
	 Correlation Energy        =      -2.0451780436177684 [Eh]
	 Total Energy              =    -492.7442413661447631 [Eh]

	 ================> DF-SCS-MP2 Energies <==================
	-----------------------------------------------------------
	 SCS Same-Spin Scale       =       0.3333333333333333 [-]
	 SCS Opposite-Spin Scale   =       1.2000000000000000 [-]
	 SCS Same-Spin Energy      =      -0.1676381416326288 [Eh]
	 SCS Opposite-Spin Energy  =      -1.8507163424638582 [Eh]
	 SCS Correlation Energy    =      -2.0183544840964869 [Eh]
	 SCS Total Energy          =    -492.7174178066234731 [Eh]
	-----------------------------------------------------------

  Dipole Moment: [D]
     X:     1.1424      Y:     4.9823      Z:     0.0002     Total:     5.1116

*** Psi4 exiting successfully. Buy a developer a beer!
