                               Psi4 1.3.2 release

  ==> Input File <==

--------------------------------------------------------------------------
#psi4
#
memory 32 gb

molecule  {
0 1
  O        2.2763536    -1.4525092     0.0000553
  O       -2.2718830    -1.4902890    -0.0001310
  N        1.1826080     0.6255060     0.0000550
  N        0.0492505    -1.4405116    -0.0000342
  C       -1.2346770     0.6647280    -0.0000250
  C       -0.0319280     1.2897490     0.0000350
  C        1.2605820    -0.7608720     0.0000310
  C       -1.2542960    -0.7955090    -0.0000670
  C        2.4243390     1.3942650     0.0001240
  C       -2.5504790     1.3758010    -0.0000570
  H        0.0516650     2.3739750     0.0000690
  H        0.0461780    -2.3935470    -0.0000610
  H        2.4800130     2.0209940     0.8935150
  H        2.4798690     2.0213500    -0.8930780
  H        3.2466700     0.6823050    -0.0000520
  H       -3.1375530     1.0948740    -0.8785960
  H       -2.4103180     2.4605130    -0.0000230
  H       -3.1376190     1.0948280     0.8784230
units angstrom
no_reorient  #important for SAPT in psi4, default
symmetry c1  #important for SAPT in psi4, default
}

set PROPERTIES_ORIGIN ["COM"]
properties('MP2/aug-cc-pvtz', properties = ['dipole'])
--------------------------------------------------------------------------

    Molecular point group: c1
  Charge       = 0
  Multiplicity = 1
  Basis Set: AUG-CC-PVTZ
    Blend: AUG-CC-PVTZ
  Basis Set: (AUG-CC-PVTZ AUX)
    Blend: AUG-CC-PVTZ-JKFIT

    Orbital Energies [Eh]
    ---------------------

    Doubly Occupied:

       1A    -20.542747     2A    -20.533692     3A    -15.641833
       4A    -15.613696     5A    -11.409716     6A    -11.379862
       7A    -11.328340     8A    -11.288939     9A    -11.263005
      10A    -11.239380    11A     -1.420236    12A     -1.385856
      13A     -1.306667    14A     -1.234407    15A     -1.111391
      16A     -0.994911    17A     -0.963307    18A     -0.914710
      19A     -0.842721    20A     -0.774275    21A     -0.742800
      22A     -0.696192    23A     -0.680792    24A     -0.650689
      25A     -0.632147    26A     -0.613870    27A     -0.612788
      28A     -0.591676    29A     -0.584906    30A     -0.559432
      31A     -0.550569    32A     -0.540531    33A     -0.489937
      34A     -0.474345    35A     -0.439439    36A     -0.425386
      37A     -0.348043

  @DF-RHF Final Energy:  -490.70432746802754

   => Energetics <=

    Nuclear Repulsion Energy =            529.0028247158530803
    One-Electron Energy =               -1717.7678408906442655
    Two-Electron Energy =                 698.0606887067634716
    Total Energy =                       -490.7043274680275999
  Basis Set: (AUG-CC-PVTZ AUX)
    Blend: AUG-CC-PVTZ-RI
    Molecular point group: c1

    Geometry (in Angstrom), charge = 0, multiplicity = 1:

       Center              X                  Y                   Z               Mass
    ------------   -----------------  -----------------  -----------------  -----------------
         O            2.274213584526    -1.373713967194     0.000056935098    15.994914619570
         O           -2.274023015474    -1.411493767194    -0.000129364902    15.994914619570
         N            1.180467984526     0.704301232806     0.000056635098    14.003074004430
         N            0.047110484526    -1.361716367194    -0.000032564902    14.003074004430
         C           -1.236817015474     0.743523232806    -0.000023364902    12.000000000000
         C           -0.034068015474     1.368544232806     0.000036635098    12.000000000000
         C            1.258441984526    -0.682076767194     0.000032635098    12.000000000000
         C           -1.256436015474    -0.716713767194    -0.000065364902    12.000000000000
         C            2.422198984526     1.473060232806     0.000125635098    12.000000000000
         C           -2.552619015474     1.454596232806    -0.000055364902    12.000000000000
         H            0.049524984526     2.452770232806     0.000070635098     1.007825032230
         H            0.044037984526    -2.314751767194    -0.000059364902     1.007825032230
         H            2.477872984526     2.099789232806     0.893516635098     1.007825032230
         H            2.477728984526     2.100145232806    -0.893076364902     1.007825032230
         H            3.244529984526     0.761100232806    -0.000050364902     1.007825032230
         H           -3.139693015474     1.173669232806    -0.878594364902     1.007825032230
         H           -2.412458015474     2.539308232806    -0.000021364902     1.007825032230
         H           -3.139759015474     1.173623232806     0.878424635098     1.007825032230

  Basis Set: AUG-CC-PVTZ
    Blend: AUG-CC-PVTZ
  Basis Set: (AUG-CC-PVTZ AUX)
    Blend: AUG-CC-PVTZ-JKFIT
	 Reference Energy          =    -490.7043274680275431 [Eh]
	 Singles Energy            =      -0.0000000000000000 [Eh]
	 Same-Spin Energy          =      -0.5014292588170478 [Eh]
	 Opposite-Spin Energy      =      -1.5408196974611228 [Eh]
	 Correlation Energy        =      -2.0422489562781707 [Eh]
	 Total Energy              =    -492.7465764243057151 [Eh]

	 ================> DF-SCS-MP2 Energies <==================
	-----------------------------------------------------------
	 SCS Same-Spin Scale       =       0.3333333333333333 [-]
	 SCS Opposite-Spin Scale   =       1.2000000000000000 [-]
	 SCS Same-Spin Energy      =      -0.1671430862723493 [Eh]
	 SCS Opposite-Spin Energy  =      -1.8489836369533472 [Eh]
	 SCS Correlation Energy    =      -2.0161267232256965 [Eh]
	 SCS Total Energy          =    -492.7204541912532250 [Eh]
	-----------------------------------------------------------

  Dipole Moment: [D]
     X:     0.8726      Y:     4.7924      Z:     0.0002     Total:     4.8712

*** Psi4 exiting successfully. Buy a developer a beer!
