                               Psi4 1.4a3.dev225

  ==> Input File <==

--------------------------------------------------------------------------
#psi4
#
memory 32 gb

molecule  {
0 1
  O        2.3212770    -1.3580180     0.0000020
  O       -2.2717460    -1.4962290     0.0000010
  N        1.1724310     0.6334210    -0.0000020
  N        0.0162060    -1.3769820    -0.0000020
  C       -1.2398930     0.6613320     0.0000000
  C       -0.0398910     1.2934770    -0.0000010
  C        1.2539009    -0.7725835    -0.0000010
  C       -1.2589250    -0.7964470     0.0000000
  C        2.4447950     1.3519700     0.0000010
  C       -2.5550880     1.3760200     0.0000010
  H        0.0310140     2.3780990    -0.0000010
  H        0.0457120    -2.3937650    -0.0000010
  H        2.2343430     2.4214070    -0.0000200
  H        3.0241620     1.0875710    -0.8862110
  H        3.0241420     1.0876020     0.8862360
  H       -3.1432670     1.0977880    -0.8790540
  H       -2.4120010     2.4600010     0.0000010
  H       -3.1432670     1.0977870     0.8790540
units angstrom
no_reorient  #important for SAPT in psi4, default
symmetry c1  #important for SAPT in psi4, default
}

set PROPERTIES_ORIGIN ["COM"]
properties('MP2/aug-cc-pvtz', properties = ['dipole'])
--------------------------------------------------------------------------

    Molecular point group: c1
  Charge       = 0
  Multiplicity = 1
  Basis Set: AUG-CC-PVTZ
    Blend: AUG-CC-PVTZ
  Basis Set: (AUG-CC-PVTZ AUX)
    Blend: AUG-CC-PVTZ-JKFIT

    Orbital Energies [Eh]
    ---------------------

    Doubly Occupied:

       1A    -20.544409     2A    -20.538237     3A    -15.635916
       4A    -15.625666     5A    -11.412322     6A    -11.376359
       7A    -11.325488     8A    -11.287315     9A    -11.255056
      10A    -11.235437    11A     -1.429427    12A     -1.388654
      13A     -1.305163    14A     -1.245253    15A     -1.107213
      16A     -0.991405    17A     -0.959086    18A     -0.914100
      19A     -0.854396    20A     -0.768750    21A     -0.735198
      22A     -0.693587    23A     -0.681532    24A     -0.651015
      25A     -0.639539    26A     -0.612672    27A     -0.608825
      28A     -0.589055    29A     -0.582059    30A     -0.556767
      31A     -0.547026    32A     -0.541048    33A     -0.491943
      34A     -0.477165    35A     -0.445299    36A     -0.432301
      37A     -0.341747

  @DF-RHF Final Energy:  -490.71241322167407

   => Energetics <=

    Nuclear Repulsion Energy =            530.6375658645710018
    One-Electron Energy =               -1721.0470978955911505
    Two-Electron Energy =                 699.6971188093461933
    Total Energy =                       -490.7124132216740691
  Basis Set: (AUG-CC-PVTZ AUX)
    Blend: AUG-CC-PVTZ-RI
    Molecular point group: c1

    Geometry (in Angstrom), charge = 0, multiplicity = 1:

       Center              X                  Y                   Z               Mass
    ------------   -----------------  -----------------  -----------------  -----------------
         O            2.318751008060    -1.290963278231     0.000002028533    15.994914619570
         O           -2.274271991940    -1.429174278231     0.000001028533    15.994914619570
         N            1.169905008060     0.700475721769    -0.000001971467    14.003074004430
         N            0.013680008060    -1.309927278231    -0.000001971467    14.003074004430
         C           -1.242418991940     0.728386721769     0.000000028533    12.000000000000
         C           -0.042416991940     1.360531721769    -0.000000971467    12.000000000000
         C            1.251374908060    -0.705528778231    -0.000000971467    12.000000000000
         C           -1.261450991940    -0.729392278231     0.000000028533    12.000000000000
         C            2.442269008060     1.419024721769     0.000001028533    12.000000000000
         C           -2.557613991940     1.443074721769     0.000001028533    12.000000000000
         H            0.028488008060     2.445153721769    -0.000000971467     1.007825032230
         H            0.043186008060    -2.326710278231    -0.000000971467     1.007825032230
         H            2.231817008060     2.488461721769    -0.000019971467     1.007825032230
         H            3.021636008060     1.154625721769    -0.886210971467     1.007825032230
         H            3.021616008060     1.154656721769     0.886236028533     1.007825032230
         H           -3.145792991940     1.164842721769    -0.879053971467     1.007825032230
         H           -2.414526991940     2.527055721769     0.000001028533     1.007825032230
         H           -3.145792991940     1.164841721769     0.879054028533     1.007825032230

  Basis Set: AUG-CC-PVTZ
    Blend: AUG-CC-PVTZ
  Basis Set: (AUG-CC-PVTZ AUX)
    Blend: AUG-CC-PVTZ-JKFIT
	 Reference Energy          =    -490.7124132216740691 [Eh]
	 Singles Energy            =      -0.0000000000000000 [Eh]
	 Same-Spin Energy          =      -0.5022723227685112 [Eh]
	 Opposite-Spin Energy      =      -1.5410556360336425 [Eh]
	 Correlation Energy        =      -2.0433279588021538 [Eh]
	 Total Energy              =    -492.7557411804762069 [Eh]

	 ================> DF-SCS-MP2 Energies <==================
	-----------------------------------------------------------
	 SCS Same-Spin Scale       =       0.3333333333333333 [-]
	 SCS Opposite-Spin Scale   =       1.2000000000000000 [-]
	 SCS Same-Spin Energy      =      -0.1674241075895037 [Eh]
	 SCS Opposite-Spin Energy  =      -1.8492667632403710 [Eh]
	 SCS Correlation Energy    =      -2.0166908708298745 [Eh]
	 SCS Total Energy          =    -492.7291040925039169 [Eh]
	-----------------------------------------------------------

  Dipole Moment: [D]
     X:     1.1662      Y:     4.3639      Z:    -0.0000     Total:     4.5170

*** Psi4 exiting successfully. Buy a developer a beer!
