                               Psi4 1.3.2 release

  ==> Input File <==

--------------------------------------------------------------------------
#psi4
#
memory 32 gb

molecule  {
0 1
  O        2.3111590    -1.3984000     0.0000580
  O       -2.2718830    -1.4902890    -0.0001310
  N        1.1586864     0.5835239     0.0000529
  N        0.0153410    -1.3761840    -0.0000340
  C       -1.2121314     0.6231334    -0.0000255
  C       -0.0319280     1.2897490     0.0000350
  C        1.2605820    -0.7608720     0.0000310
  C       -1.2542960    -0.7955090    -0.0000670
  C        2.4243390     1.3942650     0.0001240
  C       -2.5504790     1.3758010    -0.0000570
  H        0.0516650     2.3739750     0.0000690
  H        0.0461780    -2.3935470    -0.0000610
  H        2.4800130     2.0209940     0.8935150
  H        2.4798690     2.0213500    -0.8930780
  H        3.2466700     0.6823050    -0.0000520
  H       -3.1375530     1.0948740    -0.8785960
  H       -2.4103180     2.4605130    -0.0000230
  H       -3.1376190     1.0948280     0.8784230
units angstrom
no_reorient  #important for SAPT in psi4, default
symmetry c1  #important for SAPT in psi4, default
}

set PROPERTIES_ORIGIN ["COM"]
properties('MP2/aug-cc-pvtz', properties = ['dipole'])
--------------------------------------------------------------------------

    Molecular point group: c1
  Charge       = 0
  Multiplicity = 1
  Basis Set: AUG-CC-PVTZ
    Blend: AUG-CC-PVTZ
  Basis Set: (AUG-CC-PVTZ AUX)
    Blend: AUG-CC-PVTZ-JKFIT

    Orbital Energies [Eh]
    ---------------------

    Doubly Occupied:

       1A    -20.535776     2A    -20.534834     3A    -15.639111
       4A    -15.619947     5A    -11.407701     6A    -11.372129
       7A    -11.329209     8A    -11.291073     9A    -11.258500
      10A    -11.238892    11A     -1.425107    12A     -1.385455
      13A     -1.308950    14A     -1.238718    15A     -1.108986
      16A     -0.991434    17A     -0.967690    18A     -0.922641
      19A     -0.850375    20A     -0.774687    21A     -0.733220
      22A     -0.697711    23A     -0.683785    24A     -0.642462
      25A     -0.637683    26A     -0.614697    27A     -0.605415
      28A     -0.590610    29A     -0.581728    30A     -0.552886
      31A     -0.543974    32A     -0.540218    33A     -0.489952
      34A     -0.474866    35A     -0.443494    36A     -0.428122
      37A     -0.349184

  @DF-RHF Final Energy:  -490.70649588302098

   => Energetics <=

    Nuclear Repulsion Energy =            531.5793750284333328
    One-Electron Energy =               -1722.9493012135167191
    Two-Electron Energy =                 700.6634303020623520
    Total Energy =                       -490.7064958830210344
  Basis Set: (AUG-CC-PVTZ AUX)
    Blend: AUG-CC-PVTZ-RI
    Molecular point group: c1

    Geometry (in Angstrom), charge = 0, multiplicity = 1:

       Center              X                  Y                   Z               Mass
    ------------   -----------------  -----------------  -----------------  -----------------
         O            2.308894440720    -1.324454470343     0.000059559556    15.994914619570
         O           -2.274147559280    -1.416343470343    -0.000129440444    15.994914619570
         N            1.156421840720     0.657469429657     0.000054459556    14.003074004430
         N            0.013076440720    -1.302238470343    -0.000032440444    14.003074004430
         C           -1.214395959280     0.697078929657    -0.000023940444    12.000000000000
         C           -0.034192559280     1.363694529657     0.000036559556    12.000000000000
         C            1.258317440720    -0.686926470343     0.000032559556    12.000000000000
         C           -1.256560559280    -0.721563470343    -0.000065440444    12.000000000000
         C            2.422074440720     1.468210529657     0.000125559556    12.000000000000
         C           -2.552743559280     1.449746529657    -0.000055440444    12.000000000000
         H            0.049400440720     2.447920529657     0.000070559556     1.007825032230
         H            0.043913440720    -2.319601470343    -0.000059440444     1.007825032230
         H            2.477748440720     2.094939529657     0.893516559556     1.007825032230
         H            2.477604440720     2.095295529657    -0.893076440444     1.007825032230
         H            3.244405440720     0.756250529657    -0.000050440444     1.007825032230
         H           -3.139817559280     1.168819529657    -0.878594440444     1.007825032230
         H           -2.412582559280     2.534458529657    -0.000021440444     1.007825032230
         H           -3.139883559280     1.168773529657     0.878424559556     1.007825032230

  Basis Set: AUG-CC-PVTZ
    Blend: AUG-CC-PVTZ
  Basis Set: (AUG-CC-PVTZ AUX)
    Blend: AUG-CC-PVTZ-JKFIT
	 Reference Energy          =    -490.7064958830209775 [Eh]
	 Singles Energy            =      -0.0000000000000000 [Eh]
	 Same-Spin Energy          =      -0.5026082746807832 [Eh]
	 Opposite-Spin Energy      =      -1.5417520277197738 [Eh]
	 Correlation Energy        =      -2.0443603024005572 [Eh]
	 Total Energy              =    -492.7508561854215259 [Eh]

	 ================> DF-SCS-MP2 Energies <==================
	-----------------------------------------------------------
	 SCS Same-Spin Scale       =       0.3333333333333333 [-]
	 SCS Opposite-Spin Scale   =       1.2000000000000000 [-]
	 SCS Same-Spin Energy      =      -0.1675360915602611 [Eh]
	 SCS Opposite-Spin Energy  =      -1.8501024332637286 [Eh]
	 SCS Correlation Energy    =      -2.0176385248239894 [Eh]
	 SCS Total Energy          =    -492.7241344078449856 [Eh]
	-----------------------------------------------------------

  Dipole Moment: [D]
     X:     1.1114      Y:     4.8316      Z:     0.0002     Total:     4.9578

*** Psi4 exiting successfully. Buy a developer a beer!
