                               Psi4 1.3.2 release

  ==> Input File <==

--------------------------------------------------------------------------
#psi4
#
memory 32 gb

molecule  {
0 1
  O        2.3111590    -1.3984000     0.0000580
  O       -2.3068504    -1.4360804    -0.0001310
  N        1.1826080     0.6255060     0.0000550
  N        0.0153410    -1.3761840    -0.0000340
  C       -1.3111268     0.6637536    -0.0000284
  C       -0.0319280     1.2897490     0.0000350
  C        1.2605820    -0.7608720     0.0000310
  C       -1.2542960    -0.7955090    -0.0000670
  C        2.4243390     1.3942650     0.0001240
  C       -2.5504790     1.3758010    -0.0000570
  H        0.0516650     2.3739750     0.0000690
  H        0.0461780    -2.3935470    -0.0000610
  H        2.4800130     2.0209940     0.8935150
  H        2.4798690     2.0213500    -0.8930780
  H        3.2466700     0.6823050    -0.0000520
  H       -3.1375530     1.0948740    -0.8785960
  H       -2.4103180     2.4605130    -0.0000230
  H       -3.1376190     1.0948280     0.8784230
units angstrom
no_reorient  #important for SAPT in psi4, default
symmetry c1  #important for SAPT in psi4, default
}

set PROPERTIES_ORIGIN ["COM"]
properties('MP2/aug-cc-pvtz', properties = ['dipole'])
--------------------------------------------------------------------------

    Molecular point group: c1
  Charge       = 0
  Multiplicity = 1
  Basis Set: AUG-CC-PVTZ
    Blend: AUG-CC-PVTZ
  Basis Set: (AUG-CC-PVTZ AUX)
    Blend: AUG-CC-PVTZ-JKFIT

    Orbital Energies [Eh]
    ---------------------

    Doubly Occupied:

       1A    -20.542752     2A    -20.534280     3A    -15.642139
       4A    -15.628829     5A    -11.416216     6A    -11.373705
       7A    -11.331312     8A    -11.287448     9A    -11.262591
      10A    -11.231789    11A     -1.425286    12A     -1.385293
      13A     -1.306843    14A     -1.245850    15A     -1.105548
      16A     -0.995926    17A     -0.967178    18A     -0.912718
      19A     -0.849915    20A     -0.764827    21A     -0.739287
      22A     -0.688200    23A     -0.682689    24A     -0.650185
      25A     -0.637178    26A     -0.617252    27A     -0.609956
      28A     -0.595614    29A     -0.587915    30A     -0.568849
      31A     -0.542411    32A     -0.539610    33A     -0.484174
      34A     -0.474700    35A     -0.441186    36A     -0.432712
      37A     -0.332581

  @DF-RHF Final Energy:  -490.69847642132885

   => Energetics <=

    Nuclear Repulsion Energy =            529.8404052345839546
    One-Electron Energy =               -1719.4078709389307278
    Two-Electron Energy =                 698.8689892830180952
    Total Energy =                       -490.6984764213287917
  Basis Set: (AUG-CC-PVTZ AUX)
    Blend: AUG-CC-PVTZ-RI
    Molecular point group: c1

    Geometry (in Angstrom), charge = 0, multiplicity = 1:

       Center              X                  Y                   Z               Mass
    ------------   -----------------  -----------------  -----------------  -----------------
         O            2.318977860583    -1.338322830399     0.000059598065    15.994914619570
         O           -2.299031539417    -1.376003230399    -0.000129401935    15.994914619570
         N            1.190426860583     0.685583169601     0.000056598065    14.003074004430
         N            0.023159860583    -1.316106830399    -0.000032401935    14.003074004430
         C           -1.303307939417     0.723830769601    -0.000026801935    12.000000000000
         C           -0.024109139417     1.349826169601     0.000036598065    12.000000000000
         C            1.268400860583    -0.700794830399     0.000032598065    12.000000000000
         C           -1.246477139417    -0.735431830399    -0.000065401935    12.000000000000
         C            2.432157860583     1.454342169601     0.000125598065    12.000000000000
         C           -2.542660139417     1.435878169601    -0.000055401935    12.000000000000
         H            0.059483860583     2.434052169601     0.000070598065     1.007825032230
         H            0.053996860583    -2.333469830399    -0.000059401935     1.007825032230
         H            2.487831860583     2.081071169601     0.893516598065     1.007825032230
         H            2.487687860583     2.081427169601    -0.893076401935     1.007825032230
         H            3.254488860583     0.742382169601    -0.000050401935     1.007825032230
         H           -3.129734139417     1.154951169601    -0.878594401935     1.007825032230
         H           -2.402499139417     2.520590169601    -0.000021401935     1.007825032230
         H           -3.129800139417     1.154905169601     0.878424598065     1.007825032230

  Basis Set: AUG-CC-PVTZ
    Blend: AUG-CC-PVTZ
  Basis Set: (AUG-CC-PVTZ AUX)
    Blend: AUG-CC-PVTZ-JKFIT
	 Reference Energy          =    -490.6984764213288486 [Eh]
	 Singles Energy            =      -0.0000000000000000 [Eh]
	 Same-Spin Energy          =      -0.5040568171612347 [Eh]
	 Opposite-Spin Energy      =      -1.5440263054172307 [Eh]
	 Correlation Energy        =      -2.0480831225784657 [Eh]
	 Total Energy              =    -492.7465595439073240 [Eh]

	 ================> DF-SCS-MP2 Energies <==================
	-----------------------------------------------------------
	 SCS Same-Spin Scale       =       0.3333333333333333 [-]
	 SCS Opposite-Spin Scale   =       1.2000000000000000 [-]
	 SCS Same-Spin Energy      =      -0.1680189390537449 [Eh]
	 SCS Opposite-Spin Energy  =      -1.8528315665006767 [Eh]
	 SCS Correlation Energy    =      -2.0208505055544217 [Eh]
	 SCS Total Energy          =    -492.7193269268832978 [Eh]
	-----------------------------------------------------------

  Dipole Moment: [D]
     X:     1.1313      Y:     4.4324      Z:     0.0002     Total:     4.5745

*** Psi4 exiting successfully. Buy a developer a beer!
