                               Psi4 1.4a3.dev225

  ==> Input File <==

--------------------------------------------------------------------------
#psi4
#
memory 32 gb

molecule  {
0 1
  O        2.3212770    -1.3580180     0.0000020
  O       -2.2717460    -1.4962290     0.0000010
  N        1.1724310     0.6334210    -0.0000020
  N        0.0162060    -1.3769820    -0.0000020
  C       -1.2398930     0.6613320     0.0000000
  C       -0.0398910     1.2934770    -0.0000010
  C        1.2705972    -0.7436024    -0.0000010
  C       -1.2589250    -0.7964470     0.0000000
  C        2.4447950     1.3519700     0.0000010
  C       -2.5550880     1.3760200     0.0000010
  H        0.0310140     2.3780990    -0.0000010
  H        0.0457120    -2.3937650    -0.0000010
  H        2.2343430     2.4214070    -0.0000200
  H        3.0241620     1.0875710    -0.8862110
  H        3.0241420     1.0876020     0.8862360
  H       -3.1432670     1.0977880    -0.8790540
  H       -2.4120010     2.4600010     0.0000010
  H       -3.1432670     1.0977870     0.8790540
units angstrom
no_reorient  #important for SAPT in psi4, default
symmetry c1  #important for SAPT in psi4, default
}

set PROPERTIES_ORIGIN ["COM"]
properties('MP2/aug-cc-pvtz', properties = ['dipole'])
--------------------------------------------------------------------------

    Molecular point group: c1
  Charge       = 0
  Multiplicity = 1
  Basis Set: AUG-CC-PVTZ
    Blend: AUG-CC-PVTZ
  Basis Set: (AUG-CC-PVTZ AUX)
    Blend: AUG-CC-PVTZ-JKFIT

    Orbital Energies [Eh]
    ---------------------

    Doubly Occupied:

       1A    -20.543942     2A    -20.536196     3A    -15.638879
       4A    -15.621483     5A    -11.411578     6A    -11.374023
       7A    -11.326188     8A    -11.289234     9A    -11.257290
      10A    -11.236223    11A     -1.429131    12A     -1.386842
      13A     -1.309895    14A     -1.237735    15A     -1.108676
      16A     -0.994000    17A     -0.963415    18A     -0.913216
      19A     -0.849125    20A     -0.770641    21A     -0.732591
      22A     -0.694454    23A     -0.683922    24A     -0.649324
      25A     -0.640065    26A     -0.611531    27A     -0.608657
      28A     -0.591369    29A     -0.581250    30A     -0.558188
      31A     -0.547502    32A     -0.541377    33A     -0.493019
      34A     -0.478125    35A     -0.442596    36A     -0.428766
      37A     -0.344371

  @DF-RHF Final Energy:  -490.71256099647093

   => Energetics <=

    Nuclear Repulsion Energy =            530.7198968266193333
    One-Electron Energy =               -1721.2152765223602273
    Two-Electron Energy =                 699.7828186992699102
    Total Energy =                       -490.7125609964709838
  Basis Set: (AUG-CC-PVTZ AUX)
    Blend: AUG-CC-PVTZ-RI
    Molecular point group: c1

    Geometry (in Angstrom), charge = 0, multiplicity = 1:

       Center              X                  Y                   Z               Mass
    ------------   -----------------  -----------------  -----------------  -----------------
         O            2.317320495174    -1.293446333580     0.000002028533    15.994914619570
         O           -2.275702504826    -1.431657333580     0.000001028533    15.994914619570
         N            1.168474495174     0.697992666420    -0.000001971467    14.003074004430
         N            0.012249495174    -1.312410333580    -0.000001971467    14.003074004430
         C           -1.243849504826     0.725903666420     0.000000028533    12.000000000000
         C           -0.043847504826     1.358048666420    -0.000000971467    12.000000000000
         C            1.266640695174    -0.679030733580    -0.000000971467    12.000000000000
         C           -1.262881504826    -0.731875333580     0.000000028533    12.000000000000
         C            2.440838495174     1.416541666420     0.000001028533    12.000000000000
         C           -2.559044504826     1.440591666420     0.000001028533    12.000000000000
         H            0.027057495174     2.442670666420    -0.000000971467     1.007825032230
         H            0.041755495174    -2.329193333580    -0.000000971467     1.007825032230
         H            2.230386495174     2.485978666420    -0.000019971467     1.007825032230
         H            3.020205495174     1.152142666420    -0.886210971467     1.007825032230
         H            3.020185495174     1.152173666420     0.886236028533     1.007825032230
         H           -3.147223504826     1.162359666420    -0.879053971467     1.007825032230
         H           -2.415957504826     2.524572666420     0.000001028533     1.007825032230
         H           -3.147223504826     1.162358666420     0.879054028533     1.007825032230

  Basis Set: AUG-CC-PVTZ
    Blend: AUG-CC-PVTZ
  Basis Set: (AUG-CC-PVTZ AUX)
    Blend: AUG-CC-PVTZ-JKFIT
	 Reference Energy          =    -490.7125609964709270 [Eh]
	 Singles Energy            =      -0.0000000000000000 [Eh]
	 Same-Spin Energy          =      -0.5021836898845367 [Eh]
	 Opposite-Spin Energy      =      -1.5410622096908022 [Eh]
	 Correlation Energy        =      -2.0432458995753389 [Eh]
	 Total Energy              =    -492.7558068960462379 [Eh]

	 ================> DF-SCS-MP2 Energies <==================
	-----------------------------------------------------------
	 SCS Same-Spin Scale       =       0.3333333333333333 [-]
	 SCS Opposite-Spin Scale   =       1.2000000000000000 [-]
	 SCS Same-Spin Energy      =      -0.1673945632948455 [Eh]
	 SCS Opposite-Spin Energy  =      -1.8492746516289627 [Eh]
	 SCS Correlation Energy    =      -2.0166692149238084 [Eh]
	 SCS Total Energy          =    -492.7292302113947358 [Eh]
	-----------------------------------------------------------

  Dipole Moment: [D]
     X:     1.2278      Y:     4.5428      Z:    -0.0000     Total:     4.7058

*** Psi4 exiting successfully. Buy a developer a beer!
