                               Psi4 1.4a3.dev225

  ==> Input File <==

--------------------------------------------------------------------------
#psi4
#
memory 32 gb

molecule  {
0 1
  O        2.3212770    -1.3580180     0.0000020
  O       -2.2717460    -1.4962290     0.0000010
  N        1.1724310     0.6334210    -0.0000020
  N        0.0162060    -1.3769820    -0.0000020
  C       -1.2398930     0.6613320     0.0000000
  C       -0.0398910     1.2934770    -0.0000010
  C        1.2527440    -0.7526170    -0.0000010
  C       -1.2591861    -0.8164453     0.0000000
  C        2.4447950     1.3519700     0.0000010
  C       -2.5550880     1.3760200     0.0000010
  H        0.0310140     2.3780990    -0.0000010
  H        0.0457120    -2.3937650    -0.0000010
  H        2.2343430     2.4214070    -0.0000200
  H        3.0241620     1.0875710    -0.8862110
  H        3.0241420     1.0876020     0.8862360
  H       -3.1432670     1.0977880    -0.8790540
  H       -2.4120010     2.4600010     0.0000010
  H       -3.1432670     1.0977870     0.8790540
units angstrom
no_reorient  #important for SAPT in psi4, default
symmetry c1  #important for SAPT in psi4, default
}

set PROPERTIES_ORIGIN ["COM"]
properties('MP2/aug-cc-pvtz', properties = ['dipole'])
--------------------------------------------------------------------------

    Molecular point group: c1
  Charge       = 0
  Multiplicity = 1
  Basis Set: AUG-CC-PVTZ
    Blend: AUG-CC-PVTZ
  Basis Set: (AUG-CC-PVTZ AUX)
    Blend: AUG-CC-PVTZ-JKFIT

    Orbital Energies [Eh]
    ---------------------

    Doubly Occupied:

       1A    -20.541429     2A    -20.540118     3A    -15.637053
       4A    -15.625289     5A    -11.412060     6A    -11.375965
       7A    -11.323381     8A    -11.287861     9A    -11.257214
      10A    -11.235829    11A     -1.425891    12A     -1.394280
      13A     -1.306023    14A     -1.246396    15A     -1.105198
      16A     -0.992920    17A     -0.961995    18A     -0.911456
      19A     -0.854727    20A     -0.769700    21A     -0.733985
      22A     -0.692965    23A     -0.682712    24A     -0.652308
      25A     -0.637380    26A     -0.613587    27A     -0.609710
      28A     -0.590259    29A     -0.580859    30A     -0.557615
      31A     -0.547271    32A     -0.542935    33A     -0.491112
      34A     -0.475208    35A     -0.444710    36A     -0.432482
      37A     -0.342357

  @DF-RHF Final Energy:  -490.71329342873986

   => Energetics <=

    Nuclear Repulsion Energy =            530.7003517619963304
    One-Electron Energy =               -1721.1628154907857606
    Two-Electron Energy =                 699.7491703000495136
    Total Energy =                       -490.7132934287398029
  Basis Set: (AUG-CC-PVTZ AUX)
    Blend: AUG-CC-PVTZ-RI
    Molecular point group: c1

    Geometry (in Angstrom), charge = 0, multiplicity = 1:

       Center              X                  Y                   Z               Mass
    ------------   -----------------  -----------------  -----------------  -----------------
         O            2.318872500084    -1.290960553657     0.000002028533    15.994914619570
         O           -2.274150499916    -1.429171553657     0.000001028533    15.994914619570
         N            1.170026500084     0.700478446343    -0.000001971467    14.003074004430
         N            0.013801500084    -1.309924553657    -0.000001971467    14.003074004430
         C           -1.242297499916     0.728389446343     0.000000028533    12.000000000000
         C           -0.042295499916     1.360534446343    -0.000000971467    12.000000000000
         C            1.250339500084    -0.685559553657    -0.000000971467    12.000000000000
         C           -1.261590599916    -0.749387853657     0.000000028533    12.000000000000
         C            2.442390500084     1.419027446343     0.000001028533    12.000000000000
         C           -2.557492499916     1.443077446343     0.000001028533    12.000000000000
         H            0.028609500084     2.445156446343    -0.000000971467     1.007825032230
         H            0.043307500084    -2.326707553657    -0.000000971467     1.007825032230
         H            2.231938500084     2.488464446343    -0.000019971467     1.007825032230
         H            3.021757500084     1.154628446343    -0.886210971467     1.007825032230
         H            3.021737500084     1.154659446343     0.886236028533     1.007825032230
         H           -3.145671499916     1.164845446343    -0.879053971467     1.007825032230
         H           -2.414405499916     2.527058446343     0.000001028533     1.007825032230
         H           -3.145671499916     1.164844446343     0.879054028533     1.007825032230

  Basis Set: AUG-CC-PVTZ
    Blend: AUG-CC-PVTZ
  Basis Set: (AUG-CC-PVTZ AUX)
    Blend: AUG-CC-PVTZ-JKFIT
	 Reference Energy          =    -490.7132934287398598 [Eh]
	 Singles Energy            =      -0.0000000000000000 [Eh]
	 Same-Spin Energy          =      -0.5019348100101659 [Eh]
	 Opposite-Spin Energy      =      -1.5406162675758768 [Eh]
	 Correlation Energy        =      -2.0425510775860429 [Eh]
	 Total Energy              =    -492.7558445063259001 [Eh]

	 ================> DF-SCS-MP2 Energies <==================
	-----------------------------------------------------------
	 SCS Same-Spin Scale       =       0.3333333333333333 [-]
	 SCS Opposite-Spin Scale   =       1.2000000000000000 [-]
	 SCS Same-Spin Energy      =      -0.1673116033367220 [Eh]
	 SCS Opposite-Spin Energy  =      -1.8487395210910520 [Eh]
	 SCS Correlation Energy    =      -2.0160511244277739 [Eh]
	 SCS Total Energy          =    -492.7293445531676070 [Eh]
	-----------------------------------------------------------

  Dipole Moment: [D]
     X:     1.0486      Y:     4.3949      Z:    -0.0000     Total:     4.5183

*** Psi4 exiting successfully. Buy a developer a beer!
