                               Psi4 1.3.2 release

  ==> Input File <==

--------------------------------------------------------------------------
#psi4
#
memory 32 gb

molecule  {
0 1
  O        2.3111590    -1.3984000     0.0000580
  O       -2.2718830    -1.4902890    -0.0001310
  N        1.1826080     0.6255060     0.0000550
  N        0.0153410    -1.3761840    -0.0000340
  C       -1.2346770     0.6647280    -0.0000250
  C       -0.0319280     1.2897490     0.0000350
  C        1.2605820    -0.7608720     0.0000310
  C       -1.2829462    -0.8627525    -0.0000700
  C        2.4243390     1.3942650     0.0001240
  C       -2.5504790     1.3758010    -0.0000570
  H        0.0516650     2.3739750     0.0000690
  H       -0.0071089    -2.3937666    -0.0000631
  H        2.4800130     2.0209940     0.8935150
  H        2.4798690     2.0213500    -0.8930780
  H        3.2466700     0.6823050    -0.0000520
  H       -3.1375530     1.0948740    -0.8785960
  H       -2.4103180     2.4605130    -0.0000230
  H       -3.1376190     1.0948280     0.8784230
units angstrom
no_reorient  #important for SAPT in psi4, default
symmetry c1  #important for SAPT in psi4, default
}

set PROPERTIES_ORIGIN ["COM"]
properties('MP2/aug-cc-pvtz', properties = ['dipole'])
--------------------------------------------------------------------------

    Molecular point group: c1
  Charge       = 0
  Multiplicity = 1
  Basis Set: AUG-CC-PVTZ
    Blend: AUG-CC-PVTZ
  Basis Set: (AUG-CC-PVTZ AUX)
    Blend: AUG-CC-PVTZ-JKFIT

    Orbital Energies [Eh]
    ---------------------

    Doubly Occupied:

       1A    -20.551230     2A    -20.538434     3A    -15.631999
       4A    -15.621256     5A    -11.413516     6A    -11.376045
       7A    -11.314928     8A    -11.282234     9A    -11.257742
      10A    -11.234739    11A     -1.440014    12A     -1.412673
      13A     -1.302958    14A     -1.245261    15A     -1.097214
      16A     -0.989995    17A     -0.961004    18A     -0.898941
      19A     -0.854750    20A     -0.767535    21A     -0.724795
      22A     -0.692294    23A     -0.679092    24A     -0.661721
      25A     -0.638128    26A     -0.620014    27A     -0.613644
      28A     -0.586204    29A     -0.581732    30A     -0.557090
      31A     -0.555055    32A     -0.547146    33A     -0.483417
      34A     -0.472701    35A     -0.443445    36A     -0.437826
      37A     -0.340301

  @DF-RHF Final Energy:  -490.70822540769865

   => Energetics <=

    Nuclear Repulsion Energy =            530.1153630989550720
    One-Electron Energy =               -1719.9930303995956820
    Two-Electron Energy =                 699.1694418929419044
    Total Energy =                       -490.7082254076985919
  Basis Set: (AUG-CC-PVTZ AUX)
    Blend: AUG-CC-PVTZ-RI
    Molecular point group: c1

    Geometry (in Angstrom), charge = 0, multiplicity = 1:

       Center              X                  Y                   Z               Mass
    ------------   -----------------  -----------------  -----------------  -----------------
         O            2.311272570947    -1.326452708078     0.000059578904    15.994914619570
         O           -2.271769429053    -1.418341708078    -0.000129421096    15.994914619570
         N            1.182721570947     0.697453291922     0.000056578904    14.003074004430
         N            0.015454570947    -1.304236708078    -0.000032421096    14.003074004430
         C           -1.234563429053     0.736675291922    -0.000023421096    12.000000000000
         C           -0.031814429053     1.361696291922     0.000036578904    12.000000000000
         C            1.260695570947    -0.688924708078     0.000032578904    12.000000000000
         C           -1.282832629053    -0.790805208078    -0.000068421096    12.000000000000
         C            2.424452570947     1.466212291922     0.000125578904    12.000000000000
         C           -2.550365429053     1.447748291922    -0.000055421096    12.000000000000
         H            0.051778570947     2.445922291922     0.000070578904     1.007825032230
         H           -0.006995329053    -2.321819308078    -0.000061521096     1.007825032230
         H            2.480126570947     2.092941291922     0.893516578904     1.007825032230
         H            2.479982570947     2.093297291922    -0.893076421096     1.007825032230
         H            3.246783570947     0.754252291922    -0.000050421096     1.007825032230
         H           -3.137439429053     1.166821291922    -0.878594421096     1.007825032230
         H           -2.410204429053     2.532460291922    -0.000021421096     1.007825032230
         H           -3.137505429053     1.166775291922     0.878424578904     1.007825032230

  Basis Set: AUG-CC-PVTZ
    Blend: AUG-CC-PVTZ
  Basis Set: (AUG-CC-PVTZ AUX)
    Blend: AUG-CC-PVTZ-JKFIT
	 Reference Energy          =    -490.7082254076986487 [Eh]
	 Singles Energy            =      -0.0000000000000000 [Eh]
	 Same-Spin Energy          =      -0.5007176307978921 [Eh]
	 Opposite-Spin Energy      =      -1.5387431521242325 [Eh]
	 Correlation Energy        =      -2.0394607829221245 [Eh]
	 Total Energy              =    -492.7476861906207546 [Eh]

	 ================> DF-SCS-MP2 Energies <==================
	-----------------------------------------------------------
	 SCS Same-Spin Scale       =       0.3333333333333333 [-]
	 SCS Opposite-Spin Scale   =       1.2000000000000000 [-]
	 SCS Same-Spin Energy      =      -0.1669058769326307 [Eh]
	 SCS Opposite-Spin Energy  =      -1.8464917825490790 [Eh]
	 SCS Correlation Energy    =      -2.0133976594817096 [Eh]
	 SCS Total Energy          =    -492.7216230671803601 [Eh]
	-----------------------------------------------------------

  Dipole Moment: [D]
     X:     0.6301      Y:     4.0835      Z:     0.0001     Total:     4.1318

*** Psi4 exiting successfully. Buy a developer a beer!
