                               Psi4 1.3.2 release

  ==> Input File <==

--------------------------------------------------------------------------
#psi4
#
memory 32 gb

molecule  {
0 1
  O        2.3111590    -1.3984000     0.0000580
  O       -2.2718830    -1.4902890    -0.0001310
  N        1.1705127     0.6247728     0.0000545
  N        0.0100189    -1.3652939    -0.0000340
  C       -1.2346770     0.6647280    -0.0000250
  C       -0.0319280     1.2897490     0.0000350
  C        1.2605820    -0.7608720     0.0000310
  C       -1.2542960    -0.7955090    -0.0000670
  C        2.4243390     1.3942650     0.0001240
  C       -2.5504790     1.3758010    -0.0000570
  H        0.0516650     2.3739750     0.0000690
  H        0.0461780    -2.3935470    -0.0000610
  H        2.4800130     2.0209940     0.8935150
  H        2.4798690     2.0213500    -0.8930780
  H        3.2466700     0.6823050    -0.0000520
  H       -3.1375530     1.0948740    -0.8785960
  H       -2.4103180     2.4605130    -0.0000230
  H       -3.1376190     1.0948280     0.8784230
units angstrom
no_reorient  #important for SAPT in psi4, default
symmetry c1  #important for SAPT in psi4, default
}

set PROPERTIES_ORIGIN ["COM"]
properties('MP2/aug-cc-pvtz', properties = ['dipole'])
--------------------------------------------------------------------------

    Molecular point group: c1
  Charge       = 0
  Multiplicity = 1
  Basis Set: AUG-CC-PVTZ
    Blend: AUG-CC-PVTZ
  Basis Set: (AUG-CC-PVTZ AUX)
    Blend: AUG-CC-PVTZ-JKFIT

    Orbital Energies [Eh]
    ---------------------

    Doubly Occupied:

       1A    -20.542435     2A    -20.536791     3A    -15.638510
       4A    -15.625407     5A    -11.414876     6A    -11.374610
       7A    -11.323812     8A    -11.287274     9A    -11.257937
      10A    -11.236129    11A     -1.425089    12A     -1.386475
      13A     -1.309027    14A     -1.243312    15A     -1.107951
      16A     -0.992954    17A     -0.964827    18A     -0.914282
      19A     -0.854781    20A     -0.770687    21A     -0.732302
      22A     -0.692521    23A     -0.682714    24A     -0.648354
      25A     -0.638691    26A     -0.615921    27A     -0.607728
      28A     -0.588363    29A     -0.583560    30A     -0.555303
      31A     -0.546984    32A     -0.543544    33A     -0.490187
      34A     -0.476028    35A     -0.443976    36A     -0.430677
      37A     -0.344643

  @DF-RHF Final Energy:  -490.71104567101122

   => Energetics <=

    Nuclear Repulsion Energy =            530.7116256083990038
    One-Electron Energy =               -1721.1880212428934556
    Two-Electron Energy =                 699.7653499634833452
    Total Energy =                       -490.7110456710112203
  Basis Set: (AUG-CC-PVTZ AUX)
    Blend: AUG-CC-PVTZ-RI
    Molecular point group: c1

    Geometry (in Angstrom), charge = 0, multiplicity = 1:

       Center              X                  Y                   Z               Mass
    ------------   -----------------  -----------------  -----------------  -----------------
         O            2.310175821763    -1.333231094362     0.000059356748    15.994914619570
         O           -2.272866178237    -1.425120094362    -0.000129643252    15.994914619570
         N            1.169529521763     0.689941705638     0.000055856748    14.003074004430
         N            0.009035721763    -1.300124994362    -0.000032643252    14.003074004430
         C           -1.235660178237     0.729896905638    -0.000023643252    12.000000000000
         C           -0.032911178237     1.354917905638     0.000036356748    12.000000000000
         C            1.259598821763    -0.695703094362     0.000032356748    12.000000000000
         C           -1.255279178237    -0.730340094362    -0.000065643252    12.000000000000
         C            2.423355821763     1.459433905638     0.000125356748    12.000000000000
         C           -2.551462178237     1.440969905638    -0.000055643252    12.000000000000
         H            0.050681821763     2.439143905638     0.000070356748     1.007825032230
         H            0.045194821763    -2.328378094362    -0.000059643252     1.007825032230
         H            2.479029821763     2.086162905638     0.893516356748     1.007825032230
         H            2.478885821763     2.086518905638    -0.893076643252     1.007825032230
         H            3.245686821763     0.747473905638    -0.000050643252     1.007825032230
         H           -3.138536178237     1.160042905638    -0.878594643252     1.007825032230
         H           -2.411301178237     2.525681905638    -0.000021643252     1.007825032230
         H           -3.138602178237     1.159996905638     0.878424356748     1.007825032230

  Basis Set: AUG-CC-PVTZ
    Blend: AUG-CC-PVTZ
  Basis Set: (AUG-CC-PVTZ AUX)
    Blend: AUG-CC-PVTZ-JKFIT
	 Reference Energy          =    -490.7110456710112203 [Eh]
	 Singles Energy            =      -0.0000000000000000 [Eh]
	 Same-Spin Energy          =      -0.5026852328941518 [Eh]
	 Opposite-Spin Energy      =      -1.5417684875851090 [Eh]
	 Correlation Energy        =      -2.0444537204792610 [Eh]
	 Total Energy              =    -492.7554993914905026 [Eh]

	 ================> DF-SCS-MP2 Energies <==================
	-----------------------------------------------------------
	 SCS Same-Spin Scale       =       0.3333333333333333 [-]
	 SCS Opposite-Spin Scale   =       1.2000000000000000 [-]
	 SCS Same-Spin Energy      =      -0.1675617442980506 [Eh]
	 SCS Opposite-Spin Energy  =      -1.8501221851021308 [Eh]
	 SCS Correlation Energy    =      -2.0176839294001816 [Eh]
	 SCS Total Energy          =    -492.7287296004113841 [Eh]
	-----------------------------------------------------------

  Dipole Moment: [D]
     X:     1.1614      Y:     4.5168      Z:     0.0002     Total:     4.6637

*** Psi4 exiting successfully. Buy a developer a beer!
