                               Psi4 1.3.2 release

  ==> Input File <==

--------------------------------------------------------------------------
#psi4
#
memory 32 gb

molecule  {
0 1
  O        2.3111590    -1.3984000     0.0000580
  O       -2.2718830    -1.4902890    -0.0001310
  N        1.1762053     0.6362724    -0.0221438
  N        0.0153410    -1.3761840    -0.0000340
  C       -1.2346770     0.6647280    -0.0000250
  C       -0.0319280     1.2897490     0.0000350
  C        1.2605820    -0.7608720     0.0000310
  C       -1.2542960    -0.7955090    -0.0000670
  C        2.4243390     1.3942650     0.0001240
  C       -2.5504790     1.3758010    -0.0000570
  H        0.0516650     2.3739750     0.0000690
  H        0.0461780    -2.3935470    -0.0000610
  H        2.4800130     2.0209940     0.8935150
  H        2.4629395     2.0145837    -0.8986772
  H        3.2466700     0.6823050    -0.0000520
  H       -3.1375530     1.0948740    -0.8785960
  H       -2.4103180     2.4605130    -0.0000230
  H       -3.1376190     1.0948280     0.8784230
units angstrom
no_reorient  #important for SAPT in psi4, default
symmetry c1  #important for SAPT in psi4, default
}

set PROPERTIES_ORIGIN ["COM"]
properties('MP2/aug-cc-pvtz', properties = ['dipole'])
--------------------------------------------------------------------------

    Molecular point group: c1
  Charge       = 0
  Multiplicity = 1
  Basis Set: AUG-CC-PVTZ
    Blend: AUG-CC-PVTZ
  Basis Set: (AUG-CC-PVTZ AUX)
    Blend: AUG-CC-PVTZ-JKFIT

    Orbital Energies [Eh]
    ---------------------

    Doubly Occupied:

       1A    -20.542789     2A    -20.537852     3A    -15.638309
       4A    -15.625030     5A    -11.415564     6A    -11.375635
       7A    -11.324157     8A    -11.286321     9A    -11.257996
      10A    -11.236315    11A     -1.424276    12A     -1.386666
      13A     -1.308357    14A     -1.243459    15A     -1.108126
      16A     -0.993518    17A     -0.962219    18A     -0.914066
      19A     -0.853428    20A     -0.770332    21A     -0.734442
      22A     -0.692933    23A     -0.682484    24A     -0.649961
      25A     -0.638224    26A     -0.616337    27A     -0.609352
      28A     -0.587560    29A     -0.583585    30A     -0.555731
      31A     -0.547664    32A     -0.542893    33A     -0.489947
      34A     -0.476025    35A     -0.444129    36A     -0.430795
      37A     -0.344181

  @DF-RHF Final Energy:  -490.71122874305695

   => Energetics <=

    Nuclear Repulsion Energy =            530.3583002832049260
    One-Electron Energy =               -1720.4777501081166520
    Two-Electron Energy =                 699.4082210818547765
    Total Energy =                       -490.7112287430569495
  Basis Set: (AUG-CC-PVTZ AUX)
    Blend: AUG-CC-PVTZ-RI
    Molecular point group: c1

    Geometry (in Angstrom), charge = 0, multiplicity = 1:

       Center              X                  Y                   Z               Mass
    ------------   -----------------  -----------------  -----------------  -----------------
         O            2.309196390958    -1.333243343716     0.002319035928    15.994914619570
         O           -2.273845609042    -1.425132343716     0.002130035928    15.994914619570
         N            1.174242690958     0.701429056284    -0.019882764072    14.003074004430
         N            0.013378390958    -1.311027343716     0.002227035928    14.003074004430
         C           -1.236639609042     0.729884656284     0.002236035928    12.000000000000
         C           -0.033890609042     1.354905656284     0.002296035928    12.000000000000
         C            1.258619390958    -0.695715343716     0.002292035928    12.000000000000
         C           -1.256258609042    -0.730352343716     0.002194035928    12.000000000000
         C            2.422376390958     1.459421656284     0.002385035928    12.000000000000
         C           -2.552441609042     1.440957656284     0.002204035928    12.000000000000
         H            0.049702390958     2.439131656284     0.002330035928     1.007825032230
         H            0.044215390958    -2.328390343716     0.002200035928     1.007825032230
         H            2.478050390958     2.086150656284     0.895776035928     1.007825032230
         H            2.460976890958     2.079740356284    -0.896416164072     1.007825032230
         H            3.244707390958     0.747461656284     0.002209035928     1.007825032230
         H           -3.139515609042     1.160030656284    -0.876334964072     1.007825032230
         H           -2.412280609042     2.525669656284     0.002238035928     1.007825032230
         H           -3.139581609042     1.159984656284     0.880684035928     1.007825032230

  Basis Set: AUG-CC-PVTZ
    Blend: AUG-CC-PVTZ
  Basis Set: (AUG-CC-PVTZ AUX)
    Blend: AUG-CC-PVTZ-JKFIT
	 Reference Energy          =    -490.7112287430569495 [Eh]
	 Singles Energy            =      -0.0000000000000000 [Eh]
	 Same-Spin Energy          =      -0.5025800793023129 [Eh]
	 Opposite-Spin Energy      =      -1.5416918329942249 [Eh]
	 Correlation Energy        =      -2.0442719122965376 [Eh]
	 Total Energy              =    -492.7555006553535009 [Eh]

	 ================> DF-SCS-MP2 Energies <==================
	-----------------------------------------------------------
	 SCS Same-Spin Scale       =       0.3333333333333333 [-]
	 SCS Opposite-Spin Scale   =       1.2000000000000000 [-]
	 SCS Same-Spin Energy      =      -0.1675266931007710 [Eh]
	 SCS Opposite-Spin Energy  =      -1.8500301995930697 [Eh]
	 SCS Correlation Energy    =      -2.0175568926938405 [Eh]
	 SCS Total Energy          =    -492.7287856357507962 [Eh]
	-----------------------------------------------------------

  Dipole Moment: [D]
     X:     1.1297      Y:     4.4746      Z:     0.0166     Total:     4.6150

*** Psi4 exiting successfully. Buy a developer a beer!
