                               Psi4 1.4a3.dev225

  ==> Input File <==

--------------------------------------------------------------------------
#psi4
#
memory 32 gb

molecule  {
0 1
  O        2.3212770    -1.3580180     0.0000020
  O       -2.2717460    -1.4962290     0.0000010
  N        1.1724310     0.6334210    -0.0000020
  N        0.0162060    -1.3769820    -0.0000020
  C       -1.2398930     0.6613320     0.0000000
  C       -0.0575859     1.2841555    -0.0000010
  C        1.2527440    -0.7526170    -0.0000010
  C       -1.2589250    -0.7964470     0.0000000
  C        2.4447950     1.3519700     0.0000010
  C       -2.5550880     1.3760200     0.0000010
  H        0.0310140     2.3780990    -0.0000010
  H        0.0457120    -2.3937650    -0.0000010
  H        2.2343430     2.4214070    -0.0000200
  H        3.0241620     1.0875710    -0.8862110
  H        3.0241420     1.0876020     0.8862360
  H       -3.1432670     1.0977880    -0.8790540
  H       -2.4120010     2.4600010     0.0000010
  H       -3.1432670     1.0977870     0.8790540
units angstrom
no_reorient  #important for SAPT in psi4, default
symmetry c1  #important for SAPT in psi4, default
}

set PROPERTIES_ORIGIN ["COM"]
properties('MP2/aug-cc-pvtz', properties = ['dipole'])
--------------------------------------------------------------------------

    Molecular point group: c1
  Charge       = 0
  Multiplicity = 1
  Basis Set: AUG-CC-PVTZ
    Blend: AUG-CC-PVTZ
  Basis Set: (AUG-CC-PVTZ AUX)
    Blend: AUG-CC-PVTZ-JKFIT

    Orbital Energies [Eh]
    ---------------------

    Doubly Occupied:

       1A    -20.540170     2A    -20.539408     3A    -15.636781
       4A    -15.624720     5A    -11.410334     6A    -11.376989
       7A    -11.324658     8A    -11.288026     9A    -11.256194
      10A    -11.237237    11A     -1.424002    12A     -1.388050
      13A     -1.303753    14A     -1.242704    15A     -1.113119
      16A     -0.992693    17A     -0.961585    18A     -0.913724
      19A     -0.853607    20A     -0.771185    21A     -0.735295
      22A     -0.690712    23A     -0.681886    24A     -0.649757
      25A     -0.636069    26A     -0.612904    27A     -0.609514
      28A     -0.590254    29A     -0.581917    30A     -0.557938
      31A     -0.549274    32A     -0.540314    33A     -0.491008
      34A     -0.474458    35A     -0.444997    36A     -0.430405
      37A     -0.347838

  @DF-RHF Final Energy:  -490.71274598099558

   => Energetics <=

    Nuclear Repulsion Energy =            530.9026339586832819
    One-Electron Energy =               -1721.5838023436347157
    Two-Electron Energy =                 699.9684224039558558
    Total Energy =                       -490.7127459809955781
  Basis Set: (AUG-CC-PVTZ AUX)
    Blend: AUG-CC-PVTZ-RI
    Molecular point group: c1

    Geometry (in Angstrom), charge = 0, multiplicity = 1:

       Center              X                  Y                   Z               Mass
    ------------   -----------------  -----------------  -----------------  -----------------
         O            2.320366200818    -1.291875325192     0.000002028533    15.994914619570
         O           -2.272656799182    -1.430086325192     0.000001028533    15.994914619570
         N            1.171520200818     0.699563674808    -0.000001971467    14.003074004430
         N            0.015295200818    -1.310839325192    -0.000001971467    14.003074004430
         C           -1.240803799182     0.727474674808     0.000000028533    12.000000000000
         C           -0.058496699182     1.350298174808    -0.000000971467    12.000000000000
         C            1.251833200818    -0.686474325192    -0.000000971467    12.000000000000
         C           -1.259835799182    -0.730304325192     0.000000028533    12.000000000000
         C            2.443884200818     1.418112674808     0.000001028533    12.000000000000
         C           -2.555998799182     1.442162674808     0.000001028533    12.000000000000
         H            0.030103200818     2.444241674808    -0.000000971467     1.007825032230
         H            0.044801200818    -2.327622325192    -0.000000971467     1.007825032230
         H            2.233432200818     2.487549674808    -0.000019971467     1.007825032230
         H            3.023251200818     1.153713674808    -0.886210971467     1.007825032230
         H            3.023231200818     1.153744674808     0.886236028533     1.007825032230
         H           -3.144177799182     1.163930674808    -0.879053971467     1.007825032230
         H           -2.412911799182     2.526143674808     0.000001028533     1.007825032230
         H           -3.144177799182     1.163929674808     0.879054028533     1.007825032230

  Basis Set: AUG-CC-PVTZ
    Blend: AUG-CC-PVTZ
  Basis Set: (AUG-CC-PVTZ AUX)
    Blend: AUG-CC-PVTZ-JKFIT
	 Reference Energy          =    -490.7127459809955781 [Eh]
	 Singles Energy            =      -0.0000000000000000 [Eh]
	 Same-Spin Energy          =      -0.5020409755810142 [Eh]
	 Opposite-Spin Energy      =      -1.5408771790828277 [Eh]
	 Correlation Energy        =      -2.0429181546638420 [Eh]
	 Total Energy              =    -492.7556641356594014 [Eh]

	 ================> DF-SCS-MP2 Energies <==================
	-----------------------------------------------------------
	 SCS Same-Spin Scale       =       0.3333333333333333 [-]
	 SCS Opposite-Spin Scale   =       1.2000000000000000 [-]
	 SCS Same-Spin Energy      =      -0.1673469918603381 [Eh]
	 SCS Opposite-Spin Energy  =      -1.8490526148993931 [Eh]
	 SCS Correlation Energy    =      -2.0163996067597312 [Eh]
	 SCS Total Energy          =    -492.7291455877552835 [Eh]
	-----------------------------------------------------------

  Dipole Moment: [D]
     X:     1.0155      Y:     4.4957      Z:    -0.0000     Total:     4.6090

*** Psi4 exiting successfully. Buy a developer a beer!
