                               Psi4 1.3.2 release

  ==> Input File <==

--------------------------------------------------------------------------
#psi4
#
memory 32 gb

molecule  {
0 1
  O        2.3111590    -1.3984000     0.0000580
  O       -2.2718830    -1.4902890    -0.0001310
  N        1.1826080     0.6255060     0.0000550
  N        0.0153410    -1.3761840    -0.0000340
  C       -1.2346770     0.6647280    -0.0000250
  C       -0.0319280     1.2897490     0.0000350
  C        1.2493512    -0.5611876     0.0000345
  C       -1.2542960    -0.7955090    -0.0000670
  C        2.4243390     1.3942650     0.0001240
  C       -2.5504790     1.3758010    -0.0000570
  H        0.0516650     2.3739750     0.0000690
  H        0.0461780    -2.3935470    -0.0000610
  H        2.4800130     2.0209940     0.8935150
  H        2.4798690     2.0213500    -0.8930780
  H        3.2466700     0.6823050    -0.0000520
  H       -3.1375530     1.0948740    -0.8785960
  H       -2.4103180     2.4605130    -0.0000230
  H       -3.1376190     1.0948280     0.8784230
units angstrom
no_reorient  #important for SAPT in psi4, default
symmetry c1  #important for SAPT in psi4, default
}

set PROPERTIES_ORIGIN ["COM"]
properties('MP2/aug-cc-pvtz', properties = ['dipole'])
--------------------------------------------------------------------------

    Molecular point group: c1
  Charge       = 0
  Multiplicity = 1
  Basis Set: AUG-CC-PVTZ
    Blend: AUG-CC-PVTZ
  Basis Set: (AUG-CC-PVTZ AUX)
    Blend: AUG-CC-PVTZ-JKFIT

    Orbital Energies [Eh]
    ---------------------

    Doubly Occupied:

       1A    -20.536378     2A    -20.503648     3A    -15.662925
       4A    -15.616540     5A    -11.400693     6A    -11.371604
       7A    -11.333862     8A    -11.302135     9A    -11.282895
      10A    -11.248351    11A     -1.435826    12A     -1.385393
      13A     -1.278522    14A     -1.218424    15A     -1.124323
      16A     -1.030405    17A     -0.999102    18A     -0.919661
      19A     -0.837560    20A     -0.787345    21A     -0.738087
      22A     -0.713166    23A     -0.697567    24A     -0.662472
      25A     -0.617706    26A     -0.617040    27A     -0.607691
      28A     -0.584835    29A     -0.583598    30A     -0.563052
      31A     -0.549988    32A     -0.549819    33A     -0.469652
      34A     -0.455676    35A     -0.417996    36A     -0.412093
      37A     -0.365207

  @DF-RHF Final Energy:  -490.64460843563268

   => Energetics <=

    Nuclear Repulsion Energy =            531.8351267825560171
    One-Electron Energy =               -1723.1969978857378010
    Two-Electron Energy =                 700.7172626675491074
    Total Energy =                       -490.6446084356326764
  Basis Set: (AUG-CC-PVTZ AUX)
    Blend: AUG-CC-PVTZ-RI
    Molecular point group: c1

    Geometry (in Angstrom), charge = 0, multiplicity = 1:

       Center              X                  Y                   Z               Mass
    ------------   -----------------  -----------------  -----------------  -----------------
         O            2.309396665334    -1.349324253509     0.000059006884    15.994914619570
         O           -2.273645334666    -1.441213253509    -0.000129993116    15.994914619570
         N            1.180845665334     0.674581746491     0.000056006884    14.003074004430
         N            0.013578665334    -1.327108253509    -0.000032993116    14.003074004430
         C           -1.236439334666     0.713803746491    -0.000023993116    12.000000000000
         C           -0.033690334666     1.338824746491     0.000036006884    12.000000000000
         C            1.247588865334    -0.512111853509     0.000035506884    12.000000000000
         C           -1.256058334666    -0.746433253509    -0.000065993116    12.000000000000
         C            2.422576665334     1.443340746491     0.000125006884    12.000000000000
         C           -2.552241334666     1.424876746491    -0.000055993116    12.000000000000
         H            0.049902665334     2.423050746491     0.000070006884     1.007825032230
         H            0.044415665334    -2.344471253509    -0.000059993116     1.007825032230
         H            2.478250665334     2.070069746491     0.893516006884     1.007825032230
         H            2.478106665334     2.070425746491    -0.893076993116     1.007825032230
         H            3.244907665334     0.731380746491    -0.000050993116     1.007825032230
         H           -3.139315334666     1.143949746491    -0.878594993116     1.007825032230
         H           -2.412080334666     2.509588746491    -0.000021993116     1.007825032230
         H           -3.139381334666     1.143903746491     0.878424006884     1.007825032230

  Basis Set: AUG-CC-PVTZ
    Blend: AUG-CC-PVTZ
  Basis Set: (AUG-CC-PVTZ AUX)
    Blend: AUG-CC-PVTZ-JKFIT
	 Reference Energy          =    -490.6446084356326764 [Eh]
	 Singles Energy            =      -0.0000000000000000 [Eh]
	 Same-Spin Energy          =      -0.5037828278048883 [Eh]
	 Opposite-Spin Energy      =      -1.5457028073773580 [Eh]
	 Correlation Energy        =      -2.0494856351822461 [Eh]
	 Total Energy              =    -492.6940940708149128 [Eh]

	 ================> DF-SCS-MP2 Energies <==================
	-----------------------------------------------------------
	 SCS Same-Spin Scale       =       0.3333333333333333 [-]
	 SCS Opposite-Spin Scale   =       1.2000000000000000 [-]
	 SCS Same-Spin Energy      =      -0.1679276092682961 [Eh]
	 SCS Opposite-Spin Energy  =      -1.8548433688528294 [Eh]
	 SCS Correlation Energy    =      -2.0227709781211254 [Eh]
	 SCS Total Energy          =    -492.6673794137537925 [Eh]
	-----------------------------------------------------------

  Dipole Moment: [D]
     X:     0.3601      Y:     6.0924      Z:     0.0002     Total:     6.1031

*** Psi4 exiting successfully. Buy a developer a beer!
