                               Psi4 1.3.2 release

  ==> Input File <==

--------------------------------------------------------------------------
#psi4
#
memory 32 gb

molecule  {
0 1
  O        2.3111590    -1.3984000     0.0000580
  O       -2.2718830    -1.4902890    -0.0001310
  N        1.1826080     0.6255060     0.0000550
  N        0.0153410    -1.3761840    -0.0000340
  C       -1.2346770     0.6647280    -0.0000250
  C       -0.0319280     1.2897490     0.0000350
  C        1.0812776    -0.8494718     0.0000216
  C       -1.2542960    -0.7955090    -0.0000670
  C        2.4243390     1.3942650     0.0001240
  C       -2.5504790     1.3758010    -0.0000570
  H        0.0516650     2.3739750     0.0000690
  H        0.0461780    -2.3935470    -0.0000610
  H        2.4800130     2.0209940     0.8935150
  H        2.4798690     2.0213500    -0.8930780
  H        3.2466700     0.6823050    -0.0000520
  H       -3.1375530     1.0948740    -0.8785960
  H       -2.4103180     2.4605130    -0.0000230
  H       -3.1376190     1.0948280     0.8784230
units angstrom
no_reorient  #important for SAPT in psi4, default
symmetry c1  #important for SAPT in psi4, default
}

set PROPERTIES_ORIGIN ["COM"]
properties('MP2/aug-cc-pvtz', properties = ['dipole'])
--------------------------------------------------------------------------

    Molecular point group: c1
  Charge       = 0
  Multiplicity = 1
  Basis Set: AUG-CC-PVTZ
    Blend: AUG-CC-PVTZ
  Basis Set: (AUG-CC-PVTZ AUX)
    Blend: AUG-CC-PVTZ-JKFIT

    Orbital Energies [Eh]
    ---------------------

    Doubly Occupied:

       1A    -20.558232     2A    -20.510766     3A    -15.654803
       4A    -15.634669     5A    -11.408997     6A    -11.394746
       7A    -11.327943     8A    -11.280853     9A    -11.258894
      10A    -11.239855    11A     -1.444247    12A     -1.383163
      13A     -1.282749    14A     -1.262089    15A     -1.110067
      16A     -0.990702    17A     -0.973420    18A     -0.927276
      19A     -0.888108    20A     -0.768405    21A     -0.765137
      22A     -0.693928    23A     -0.689515    24A     -0.659097
      25A     -0.627504    26A     -0.618588    27A     -0.598206
      28A     -0.590142    29A     -0.581604    30A     -0.553371
      31A     -0.538819    32A     -0.536642    33A     -0.488704
      34A     -0.464856    35A     -0.432931    36A     -0.425420
      37A     -0.340824

  @DF-RHF Final Energy:  -490.64390357168026

   => Energetics <=

    Nuclear Repulsion Energy =            531.1797965643153248
    One-Electron Energy =               -1721.8368535201063878
    Two-Electron Energy =                 700.0131533841108649
    Total Energy =                       -490.6439035716803119
  Basis Set: (AUG-CC-PVTZ AUX)
    Blend: AUG-CC-PVTZ-RI
    Molecular point group: c1

    Geometry (in Angstrom), charge = 0, multiplicity = 1:

       Center              X                  Y                   Z               Mass
    ------------   -----------------  -----------------  -----------------  -----------------
         O            2.323796948672    -1.324624513860     0.000060112135    15.994914619570
         O           -2.259245051328    -1.416513513860    -0.000128887865    15.994914619570
         N            1.195245948672     0.699281486140     0.000057112135    14.003074004430
         N            0.027978948672    -1.302408513860    -0.000031887865    14.003074004430
         C           -1.222039051328     0.738503486140    -0.000022887865    12.000000000000
         C           -0.019290051328     1.363524486140     0.000037112135    12.000000000000
         C            1.093915548672    -0.775696313860     0.000023712135    12.000000000000
         C           -1.241658051328    -0.721733513860    -0.000064887865    12.000000000000
         C            2.436976948672     1.468040486140     0.000126112135    12.000000000000
         C           -2.537841051328     1.449576486140    -0.000054887865    12.000000000000
         H            0.064302948672     2.447750486140     0.000071112135     1.007825032230
         H            0.058815948672    -2.319771513860    -0.000058887865     1.007825032230
         H            2.492650948672     2.094769486140     0.893517112135     1.007825032230
         H            2.492506948672     2.095125486140    -0.893075887865     1.007825032230
         H            3.259307948672     0.756080486140    -0.000049887865     1.007825032230
         H           -3.124915051328     1.168649486140    -0.878593887865     1.007825032230
         H           -2.397680051328     2.534288486140    -0.000020887865     1.007825032230
         H           -3.124981051328     1.168603486140     0.878425112135     1.007825032230

  Basis Set: AUG-CC-PVTZ
    Blend: AUG-CC-PVTZ
  Basis Set: (AUG-CC-PVTZ AUX)
    Blend: AUG-CC-PVTZ-JKFIT
	 Reference Energy          =    -490.6439035716802550 [Eh]
	 Singles Energy            =      -0.0000000000000000 [Eh]
	 Same-Spin Energy          =      -0.5048849102513580 [Eh]
	 Opposite-Spin Energy      =      -1.5456065684398805 [Eh]
	 Correlation Energy        =      -2.0504914786912387 [Eh]
	 Total Energy              =    -492.6943950503714973 [Eh]

	 ================> DF-SCS-MP2 Energies <==================
	-----------------------------------------------------------
	 SCS Same-Spin Scale       =       0.3333333333333333 [-]
	 SCS Opposite-Spin Scale   =       1.2000000000000000 [-]
	 SCS Same-Spin Energy      =      -0.1682949700837860 [Eh]
	 SCS Opposite-Spin Energy  =      -1.8547278821278566 [Eh]
	 SCS Correlation Energy    =      -2.0230228522116427 [Eh]
	 SCS Total Energy          =    -492.6669264238918799 [Eh]
	-----------------------------------------------------------

  Dipole Moment: [D]
     X:    -0.2629      Y:     4.2648      Z:     0.0001     Total:     4.2729

*** Psi4 exiting successfully. Buy a developer a beer!
