                               Psi4 1.3.2 release

  ==> Input File <==

--------------------------------------------------------------------------
#psi4
#
memory 32 gb

molecule  {
0 1
  O        2.3111590    -1.3984000     0.0000580
  O       -2.2718830    -1.4902890    -0.0001310
  N        1.1826080     0.6255060     0.0000550
  N        0.0153410    -1.3761840    -0.0000340
  C       -1.2346770     0.6647280    -0.0000250
  C       -0.0319280     1.2897490     0.0000350
  C        1.2605820    -0.7608720     0.0000310
  C       -1.2542960    -0.7955090    -0.0000670
  C        2.4243390     1.3942650     0.0001240
  C       -2.5504790     1.3758010    -0.0000570
  H        0.0516650     2.3739750     0.0000690
  H        0.0492077    -2.4935011    -0.0000637
  H        2.4800130     2.0209940     0.8935150
  H        2.4798690     2.0213500    -0.8930780
  H        3.2466700     0.6823050    -0.0000520
  H       -3.1375530     1.0948740    -0.8785960
  H       -2.4103180     2.4605130    -0.0000230
  H       -3.1376190     1.0948280     0.8784230
units angstrom
no_reorient  #important for SAPT in psi4, default
symmetry c1  #important for SAPT in psi4, default
}

set PROPERTIES_ORIGIN ["COM"]
properties('MP2/aug-cc-pvtz', properties = ['dipole'])
--------------------------------------------------------------------------

    Molecular point group: c1
  Charge       = 0
  Multiplicity = 1
  Basis Set: AUG-CC-PVTZ
    Blend: AUG-CC-PVTZ
  Basis Set: (AUG-CC-PVTZ AUX)
    Blend: AUG-CC-PVTZ-JKFIT

    Orbital Energies [Eh]
    ---------------------

    Doubly Occupied:

       1A    -20.539270     2A    -20.537372     3A    -15.637706
       4A    -15.631196     5A    -11.412752     6A    -11.375374
       7A    -11.324320     8A    -11.285530     9A    -11.259328
      10A    -11.236785    11A     -1.421834    12A     -1.385570
      13A     -1.305884    14A     -1.233828    15A     -1.107779
      16A     -0.991892    17A     -0.962727    18A     -0.907993
      19A     -0.850976    20A     -0.768287    21A     -0.718546
      22A     -0.687292    23A     -0.681283    24A     -0.646180
      25A     -0.636597    26A     -0.614636    27A     -0.606668
      28A     -0.588078    29A     -0.583317    30A     -0.553305
      31A     -0.547003    32A     -0.542241    33A     -0.487277
      34A     -0.474555    35A     -0.443246    36A     -0.428351
      37A     -0.345369

  @DF-RHF Final Energy:  -490.70141326989165

   => Energetics <=

    Nuclear Repulsion Energy =            529.7628822300378033
    One-Electron Energy =               -1719.4079000011718108
    Two-Electron Energy =                 698.9436045012423619
    Total Energy =                       -490.7014132698916455
  Basis Set: (AUG-CC-PVTZ AUX)
    Blend: AUG-CC-PVTZ-RI
    Molecular point group: c1

    Geometry (in Angstrom), charge = 0, multiplicity = 1:

       Center              X                  Y                   Z               Mass
    ------------   -----------------  -----------------  -----------------  -----------------
         O            2.308412627012    -1.331496362576     0.000059326187    15.994914619570
         O           -2.274629372988    -1.423385362576    -0.000129673813    15.994914619570
         N            1.179861627012     0.692409637424     0.000056326187    14.003074004430
         N            0.012594627012    -1.309280362576    -0.000032673813    14.003074004430
         C           -1.237423372988     0.731631637424    -0.000023673813    12.000000000000
         C           -0.034674372988     1.356652637424     0.000036326187    12.000000000000
         C            1.257835627012    -0.693968362576     0.000032326187    12.000000000000
         C           -1.257042372988    -0.728605362576    -0.000065673813    12.000000000000
         C            2.421592627012     1.461168637424     0.000125326187    12.000000000000
         C           -2.553225372988     1.442704637424    -0.000055673813    12.000000000000
         H            0.048918627012     2.440878637424     0.000070326187     1.007825032230
         H            0.046461327012    -2.426597462576    -0.000062373813     1.007825032230
         H            2.477266627012     2.087897637424     0.893516326187     1.007825032230
         H            2.477122627012     2.088253637424    -0.893076673813     1.007825032230
         H            3.243923627012     0.749208637424    -0.000050673813     1.007825032230
         H           -3.140299372988     1.161777637424    -0.878594673813     1.007825032230
         H           -2.413064372988     2.527416637424    -0.000021673813     1.007825032230
         H           -3.140365372988     1.161731637424     0.878424326187     1.007825032230

  Basis Set: AUG-CC-PVTZ
    Blend: AUG-CC-PVTZ
  Basis Set: (AUG-CC-PVTZ AUX)
    Blend: AUG-CC-PVTZ-JKFIT
	 Reference Energy          =    -490.7014132698916455 [Eh]
	 Singles Energy            =      -0.0000000000000000 [Eh]
	 Same-Spin Energy          =      -0.5032812804285445 [Eh]
	 Opposite-Spin Energy      =      -1.5434036783877478 [Eh]
	 Correlation Energy        =      -2.0466849588162921 [Eh]
	 Total Energy              =    -492.7480982287079314 [Eh]

	 ================> DF-SCS-MP2 Energies <==================
	-----------------------------------------------------------
	 SCS Same-Spin Scale       =       0.3333333333333333 [-]
	 SCS Opposite-Spin Scale   =       1.2000000000000000 [-]
	 SCS Same-Spin Energy      =      -0.1677604268095148 [Eh]
	 SCS Opposite-Spin Energy  =      -1.8520844140652972 [Eh]
	 SCS Correlation Energy    =      -2.0198448408748120 [Eh]
	 SCS Total Energy          =    -492.7212581107664846 [Eh]
	-----------------------------------------------------------

  Dipole Moment: [D]
     X:     1.0499      Y:     4.3950      Z:     0.0002     Total:     4.5187

*** Psi4 exiting successfully. Buy a developer a beer!
