                               Psi4 1.3.2 release

  ==> Input File <==

--------------------------------------------------------------------------
#psi4
#
memory 32 gb

molecule  {
0 1
  O        2.3111590    -1.3984000     0.0000580
  O       -2.2718830    -1.4902890    -0.0001310
  N        1.1826080     0.6255060     0.0000550
  N        0.0153410    -1.3761840    -0.0000340
  C       -1.2346770     0.6647280    -0.0000250
  C       -0.0319280     1.2897490     0.0000350
  C        1.1879177    -0.7630529     0.0000278
  C       -1.2542960    -0.7955090    -0.0000670
  C        2.3824035     1.4581986     0.0001234
  C       -2.5504790     1.3758010    -0.0000570
  H        0.0516650     2.3739750     0.0000690
  H        0.0461780    -2.3935470    -0.0000610
  H        2.4800130     2.0209940     0.8935150
  H        2.4798690     2.0213500    -0.8930780
  H        3.2466700     0.6823050    -0.0000520
  H       -3.1375530     1.0948740    -0.8785960
  H       -2.4103180     2.4605130    -0.0000230
  H       -3.1376190     1.0948280     0.8784230
units angstrom
no_reorient  #important for SAPT in psi4, default
symmetry c1  #important for SAPT in psi4, default
}

set PROPERTIES_ORIGIN ["COM"]
properties('MP2/aug-cc-pvtz', properties = ['dipole'])
--------------------------------------------------------------------------

    Molecular point group: c1
  Charge       = 0
  Multiplicity = 1
  Basis Set: AUG-CC-PVTZ
    Blend: AUG-CC-PVTZ
  Basis Set: (AUG-CC-PVTZ AUX)
    Blend: AUG-CC-PVTZ-JKFIT

    Orbital Energies [Eh]
    ---------------------

    Doubly Occupied:

       1A    -20.545594     2A    -20.524362     3A    -15.641326
       4A    -15.636490     5A    -11.412949     6A    -11.382708
       7A    -11.325941     8A    -11.286179     9A    -11.261632
      10A    -11.239278    11A     -1.418247    12A     -1.380183
      13A     -1.290814    14A     -1.261733    15A     -1.110504
      16A     -0.996177    17A     -0.966429    18A     -0.921922
      19A     -0.866250    20A     -0.773480    21A     -0.747532
      22A     -0.691751    23A     -0.689329    24A     -0.657301
      25A     -0.630450    26A     -0.615190    27A     -0.610751
      28A     -0.585500    29A     -0.580222    30A     -0.552882
      31A     -0.542001    32A     -0.536700    33A     -0.488645
      34A     -0.463449    35A     -0.444003    36A     -0.429658
      37A     -0.347453

  @DF-RHF Final Energy:  -490.69389950902166

   => Energetics <=

    Nuclear Repulsion Energy =            530.6693493006249582
    One-Electron Energy =               -1721.0164669674823017
    Two-Electron Energy =                 699.6532181578355676
    Total Energy =                       -490.6938995090216622
  Basis Set: (AUG-CC-PVTZ AUX)
    Blend: AUG-CC-PVTZ-RI
    Molecular point group: c1

    Geometry (in Angstrom), charge = 0, multiplicity = 1:

       Center              X                  Y                   Z               Mass
    ------------   -----------------  -----------------  -----------------  -----------------
         O            2.318253159681    -1.337506481049     0.000059632336    15.994914619570
         O           -2.264788840319    -1.429395481049    -0.000129367664    15.994914619570
         N            1.189702159681     0.686399518951     0.000056632336    14.003074004430
         N            0.022435159681    -1.315290481049    -0.000032367664    14.003074004430
         C           -1.227582840319     0.725621518951    -0.000023367664    12.000000000000
         C           -0.024833840319     1.350642518951     0.000036632336    12.000000000000
         C            1.195011859681    -0.702159381049     0.000029432336    12.000000000000
         C           -1.247201840319    -0.734615481049    -0.000065367664    12.000000000000
         C            2.389497659681     1.519092118951     0.000125032336    12.000000000000
         C           -2.543384840319     1.436694518951    -0.000055367664    12.000000000000
         H            0.058759159681     2.434868518951     0.000070632336     1.007825032230
         H            0.053272159681    -2.332653481049    -0.000059367664     1.007825032230
         H            2.487107159681     2.081887518951     0.893516632336     1.007825032230
         H            2.486963159681     2.082243518951    -0.893076367664     1.007825032230
         H            3.253764159681     0.743198518951    -0.000050367664     1.007825032230
         H           -3.130458840319     1.155767518951    -0.878594367664     1.007825032230
         H           -2.403223840319     2.521406518951    -0.000021367664     1.007825032230
         H           -3.130524840319     1.155721518951     0.878424632336     1.007825032230

  Basis Set: AUG-CC-PVTZ
    Blend: AUG-CC-PVTZ
  Basis Set: (AUG-CC-PVTZ AUX)
    Blend: AUG-CC-PVTZ-JKFIT
	 Reference Energy          =    -490.6938995090216622 [Eh]
	 Singles Energy            =      -0.0000000000000000 [Eh]
	 Same-Spin Energy          =      -0.5036982513739846 [Eh]
	 Opposite-Spin Energy      =      -1.5436908215659557 [Eh]
	 Correlation Energy        =      -2.0473890729399402 [Eh]
	 Total Energy              =    -492.7412885819616122 [Eh]

	 ================> DF-SCS-MP2 Energies <==================
	-----------------------------------------------------------
	 SCS Same-Spin Scale       =       0.3333333333333333 [-]
	 SCS Opposite-Spin Scale   =       1.2000000000000000 [-]
	 SCS Same-Spin Energy      =      -0.1678994171246615 [Eh]
	 SCS Opposite-Spin Energy  =      -1.8524289858791467 [Eh]
	 SCS Correlation Energy    =      -2.0203284030038082 [Eh]
	 SCS Total Energy          =    -492.7142279120254784 [Eh]
	-----------------------------------------------------------

  Dipole Moment: [D]
     X:     0.4328      Y:     4.6456      Z:     0.0001     Total:     4.6657

*** Psi4 exiting successfully. Buy a developer a beer!
