                               Psi4 1.4a3.dev225

  ==> Input File <==

--------------------------------------------------------------------------
#psi4
#
memory 32 gb

molecule  {
0 1
  O        2.3212770    -1.3580180     0.0000020
  O       -2.2717460    -1.4962290     0.0000010
  N        1.1724310     0.6334210    -0.0000020
  N        0.0162060    -1.3769820    -0.0000020
  C       -1.2398930     0.6613320     0.0000000
  C       -0.0398910     1.2934770    -0.0000010
  C        1.2353429    -0.7427580    -0.0000010
  C       -1.2589250    -0.7964470     0.0000000
  C        2.4447950     1.3519700     0.0000010
  C       -2.5550880     1.3760200     0.0000010
  H        0.0310140     2.3780990    -0.0000010
  H        0.0457120    -2.3937650    -0.0000010
  H        2.2343430     2.4214070    -0.0000200
  H        3.0241620     1.0875710    -0.8862110
  H        3.0241420     1.0876020     0.8862360
  H       -3.1432670     1.0977880    -0.8790540
  H       -2.4120010     2.4600010     0.0000010
  H       -3.1432670     1.0977870     0.8790540
units angstrom
no_reorient  #important for SAPT in psi4, default
symmetry c1  #important for SAPT in psi4, default
}

set PROPERTIES_ORIGIN ["COM"]
properties('MP2/aug-cc-pvtz', properties = ['dipole'])
--------------------------------------------------------------------------

    Molecular point group: c1
  Charge       = 0
  Multiplicity = 1
  Basis Set: AUG-CC-PVTZ
    Blend: AUG-CC-PVTZ
  Basis Set: (AUG-CC-PVTZ AUX)
    Blend: AUG-CC-PVTZ-JKFIT

    Orbital Energies [Eh]
    ---------------------

    Doubly Occupied:

       1A    -20.539558     2A    -20.535588     3A    -15.640730
       4A    -15.627154     5A    -11.410709     6A    -11.377215
       7A    -11.327552     8A    -11.289551     9A    -11.259031
      10A    -11.237633    11A     -1.419422    12A     -1.385669
      13A     -1.303865    14A     -1.247224    15A     -1.110065
      16A     -0.995595    17A     -0.964701    18A     -0.916871
      19A     -0.855205    20A     -0.773021    21A     -0.738134
      22A     -0.693727    23A     -0.684099    24A     -0.651554
      25A     -0.629513    26A     -0.613904    27A     -0.609891
      28A     -0.592204    29A     -0.581148    30A     -0.558793
      31A     -0.548998    32A     -0.538542    33A     -0.491050
      34A     -0.471476    35A     -0.444414    36A     -0.429536
      37A     -0.345353

  @DF-RHF Final Energy:  -490.71101328144977

   => Energetics <=

    Nuclear Repulsion Energy =            530.8881120621059608
    One-Electron Energy =               -1721.5208576381332932
    Two-Electron Energy =                 699.9217322945777369
    Total Energy =                       -490.7110132814497092
  Basis Set: (AUG-CC-PVTZ AUX)
    Blend: AUG-CC-PVTZ-RI
    Molecular point group: c1

    Geometry (in Angstrom), charge = 0, multiplicity = 1:

       Center              X                  Y                   Z               Mass
    ------------   -----------------  -----------------  -----------------  -----------------
         O            2.320341028493    -1.293518680452     0.000002028533    15.994914619570
         O           -2.272681971507    -1.431729680452     0.000001028533    15.994914619570
         N            1.171495028493     0.697920319548    -0.000001971467    14.003074004430
         N            0.015270028493    -1.312482680452    -0.000001971467    14.003074004430
         C           -1.240828971507     0.725831319548     0.000000028533    12.000000000000
         C           -0.040826971507     1.357976319548    -0.000000971467    12.000000000000
         C            1.234406928493    -0.678258680452    -0.000000971467    12.000000000000
         C           -1.259860971507    -0.731947680452     0.000000028533    12.000000000000
         C            2.443859028493     1.416469319548     0.000001028533    12.000000000000
         C           -2.556023971507     1.440519319548     0.000001028533    12.000000000000
         H            0.030078028493     2.442598319548    -0.000000971467     1.007825032230
         H            0.044776028493    -2.329265680452    -0.000000971467     1.007825032230
         H            2.233407028493     2.485906319548    -0.000019971467     1.007825032230
         H            3.023226028493     1.152070319548    -0.886210971467     1.007825032230
         H            3.023206028493     1.152101319548     0.886236028533     1.007825032230
         H           -3.144202971507     1.162287319548    -0.879053971467     1.007825032230
         H           -2.412936971507     2.524500319548     0.000001028533     1.007825032230
         H           -3.144202971507     1.162286319548     0.879054028533     1.007825032230

  Basis Set: AUG-CC-PVTZ
    Blend: AUG-CC-PVTZ
  Basis Set: (AUG-CC-PVTZ AUX)
    Blend: AUG-CC-PVTZ-JKFIT
	 Reference Energy          =    -490.7110132814497661 [Eh]
	 Singles Energy            =      -0.0000000000000000 [Eh]
	 Same-Spin Energy          =      -0.5026360538696216 [Eh]
	 Opposite-Spin Energy      =      -1.5417869982320138 [Eh]
	 Correlation Energy        =      -2.0444230521016356 [Eh]
	 Total Energy              =    -492.7554363335514154 [Eh]

	 ================> DF-SCS-MP2 Energies <==================
	-----------------------------------------------------------
	 SCS Same-Spin Scale       =       0.3333333333333333 [-]
	 SCS Opposite-Spin Scale   =       1.2000000000000000 [-]
	 SCS Same-Spin Energy      =      -0.1675453512898739 [Eh]
	 SCS Opposite-Spin Energy  =      -1.8501443978784164 [Eh]
	 SCS Correlation Energy    =      -2.0176897491682904 [Eh]
	 SCS Total Energy          =    -492.7287030306180782 [Eh]
	-----------------------------------------------------------

  Dipole Moment: [D]
     X:     0.9149      Y:     4.6145      Z:    -0.0000     Total:     4.7044

*** Psi4 exiting successfully. Buy a developer a beer!
