                               Psi4 1.3.2 release

  ==> Input File <==

--------------------------------------------------------------------------
#psi4
#
memory 32 gb

molecule  {
0 1
  O        2.3111590    -1.3984000     0.0000580
  O       -2.2718830    -1.4902890    -0.0001310
  N        1.1826080     0.6255060     0.0000550
  N        0.0153410    -1.3761840    -0.0000340
  C       -1.2346770     0.6647280    -0.0000250
  C       -0.0319280     1.2897490     0.0000350
  C        1.2605820    -0.7608720     0.0000310
  C       -1.2542960    -0.7955090    -0.0000670
  C        2.4243390     1.3942650     0.0001240
  C       -2.5504790     1.3758010    -0.0000570
  H        0.0516650     2.3739750     0.0000690
  H        0.0401186    -2.1936388    -0.0000557
  H        2.4800130     2.0209940     0.8935150
  H        2.4798690     2.0213500    -0.8930780
  H        3.2466700     0.6823050    -0.0000520
  H       -3.1375530     1.0948740    -0.8785960
  H       -2.4103180     2.4605130    -0.0000230
  H       -3.1376190     1.0948280     0.8784230
units angstrom
no_reorient  #important for SAPT in psi4, default
symmetry c1  #important for SAPT in psi4, default
}

set PROPERTIES_ORIGIN ["COM"]
properties('MP2/aug-cc-pvtz', properties = ['dipole'])
--------------------------------------------------------------------------

    Molecular point group: c1
  Charge       = 0
  Multiplicity = 1
  Basis Set: AUG-CC-PVTZ
    Blend: AUG-CC-PVTZ
  Basis Set: (AUG-CC-PVTZ AUX)
    Blend: AUG-CC-PVTZ-JKFIT

    Orbital Energies [Eh]
    ---------------------

    Doubly Occupied:

       1A    -20.542905     2A    -20.540884     3A    -15.639165
       4A    -15.606572     5A    -11.415655     6A    -11.377957
       7A    -11.326222     8A    -11.286843     9A    -11.260386
      10A    -11.237848    11A     -1.430790    12A     -1.390152
      13A     -1.309179    14A     -1.271106    15A     -1.112077
      16A     -0.997395    17A     -0.967248    18A     -0.932700
      19A     -0.857063    20A     -0.787471    21A     -0.762705
      22A     -0.696861    23A     -0.683992    24A     -0.653579
      25A     -0.639733    26A     -0.617826    27A     -0.613959
      28A     -0.589993    29A     -0.585368    30A     -0.558591
      31A     -0.549424    32A     -0.544955    33A     -0.489439
      34A     -0.476518    35A     -0.446437    36A     -0.435469
      37A     -0.346973

  @DF-RHF Final Energy:  -490.66900349229968

   => Energetics <=

    Nuclear Repulsion Energy =            531.8732464825880015
    One-Electron Energy =               -1723.1216184061770491
    Two-Electron Energy =                 700.5793684312893674
    Total Energy =                       -490.6690034922996801
  Basis Set: (AUG-CC-PVTZ AUX)
    Blend: AUG-CC-PVTZ-RI
    Molecular point group: c1

    Geometry (in Angstrom), charge = 0, multiplicity = 1:

       Center              X                  Y                   Z               Mass
    ------------   -----------------  -----------------  -----------------  -----------------
         O            2.308478029808    -1.333654093559     0.000059268621    15.994914619570
         O           -2.274563970192    -1.425543093559    -0.000129731379    15.994914619570
         N            1.179927029808     0.690251906441     0.000056268621    14.003074004430
         N            0.012660029808    -1.311438093559    -0.000032731379    14.003074004430
         C           -1.237357970192     0.729473906441    -0.000023731379    12.000000000000
         C           -0.034608970192     1.354494906441     0.000036268621    12.000000000000
         C            1.257901029808    -0.696126093559     0.000032268621    12.000000000000
         C           -1.256976970192    -0.730763093559    -0.000065731379    12.000000000000
         C            2.421658029808     1.459010906441     0.000125268621    12.000000000000
         C           -2.553159970192     1.440546906441    -0.000055731379    12.000000000000
         H            0.048984029808     2.438720906441     0.000070268621     1.007825032230
         H            0.037437629808    -2.128892893559    -0.000054431379     1.007825032230
         H            2.477332029808     2.085739906441     0.893516268621     1.007825032230
         H            2.477188029808     2.086095906441    -0.893076731379     1.007825032230
         H            3.243989029808     0.747050906441    -0.000050731379     1.007825032230
         H           -3.140233970192     1.159619906441    -0.878594731379     1.007825032230
         H           -2.412998970192     2.525258906441    -0.000021731379     1.007825032230
         H           -3.140299970192     1.159573906441     0.878424268621     1.007825032230

  Basis Set: AUG-CC-PVTZ
    Blend: AUG-CC-PVTZ
  Basis Set: (AUG-CC-PVTZ AUX)
    Blend: AUG-CC-PVTZ-JKFIT
	 Reference Energy          =    -490.6690034922996801 [Eh]
	 Singles Energy            =      -0.0000000000000000 [Eh]
	 Same-Spin Energy          =      -0.5009221507876253 [Eh]
	 Opposite-Spin Energy      =      -1.5389831298302195 [Eh]
	 Correlation Energy        =      -2.0399052806178446 [Eh]
	 Total Energy              =    -492.7089087729175390 [Eh]

	 ================> DF-SCS-MP2 Energies <==================
	-----------------------------------------------------------
	 SCS Same-Spin Scale       =       0.3333333333333333 [-]
	 SCS Opposite-Spin Scale   =       1.2000000000000000 [-]
	 SCS Same-Spin Energy      =      -0.1669740502625418 [Eh]
	 SCS Opposite-Spin Energy  =      -1.8467797557962633 [Eh]
	 SCS Correlation Energy    =      -2.0137538060588049 [Eh]
	 SCS Total Energy          =    -492.6827572983584673 [Eh]
	-----------------------------------------------------------

  Dipole Moment: [D]
     X:     1.0431      Y:     4.7667      Z:     0.0002     Total:     4.8795

*** Psi4 exiting successfully. Buy a developer a beer!
