                               Psi4 1.4a3.dev225

  ==> Input File <==

--------------------------------------------------------------------------
#psi4
#
memory 32 gb

molecule  {
0 1
  O        2.3212770    -1.3580180     0.0000020
  O       -2.2717460    -1.4962290     0.0000010
  N        1.1724310     0.6334210    -0.0000020
  N        0.0162060    -1.3769820    -0.0000020
  C       -1.2398930     0.6613320     0.0000000
  C       -0.0398910     1.2934770    -0.0000010
  C        1.2527440    -0.7526170    -0.0000010
  C       -1.2589250    -0.7964470     0.0000000
  C        2.4447950     1.3519700     0.0000010
  C       -2.5550880     1.3760200     0.0000010
  H        0.0342757     2.4279925    -0.0000010
  H        0.0457120    -2.3937650    -0.0000010
  H        2.2343430     2.4214070    -0.0000200
  H        3.0241620     1.0875710    -0.8862110
  H        3.0241420     1.0876020     0.8862360
  H       -3.1432670     1.0977880    -0.8790540
  H       -2.4120010     2.4600010     0.0000010
  H       -3.1432670     1.0977870     0.8790540
units angstrom
no_reorient  #important for SAPT in psi4, default
symmetry c1  #important for SAPT in psi4, default
}

set PROPERTIES_ORIGIN ["COM"]
properties('MP2/aug-cc-pvtz', properties = ['dipole'])
--------------------------------------------------------------------------

    Molecular point group: c1
  Charge       = 0
  Multiplicity = 1
  Basis Set: AUG-CC-PVTZ
    Blend: AUG-CC-PVTZ
  Basis Set: (AUG-CC-PVTZ AUX)
    Blend: AUG-CC-PVTZ-JKFIT

    Orbital Energies [Eh]
    ---------------------

    Doubly Occupied:

       1A    -20.541349     2A    -20.538188     3A    -15.639049
       4A    -15.625006     5A    -11.411871     6A    -11.376209
       7A    -11.331760     8A    -11.288636     9A    -11.257387
      10A    -11.236366    11A     -1.425124    12A     -1.387427
      13A     -1.306572    14A     -1.243672    15A     -1.108088
      16A     -0.993631    17A     -0.960997    18A     -0.912400
      19A     -0.853096    20A     -0.770573    21A     -0.735117
      22A     -0.686800    23A     -0.683247    24A     -0.650291
      25A     -0.635213    26A     -0.612769    27A     -0.605608
      28A     -0.590867    29A     -0.581317    30A     -0.557995
      31A     -0.547863    32A     -0.540286    33A     -0.492204
      34A     -0.475275    35A     -0.444310    36A     -0.430472
      37A     -0.344037

  @DF-RHF Final Energy:  -490.70991829189813

   => Energetics <=

    Nuclear Repulsion Energy =            530.4812531172195804
    One-Electron Energy =               -1720.7401940660690798
    Two-Electron Energy =                 699.5490226569514789
    Total Energy =                       -490.7099182918981342
  Basis Set: (AUG-CC-PVTZ AUX)
    Blend: AUG-CC-PVTZ-RI
    Molecular point group: c1

    Geometry (in Angstrom), charge = 0, multiplicity = 1:

       Center              X                  Y                   Z               Mass
    ------------   -----------------  -----------------  -----------------  -----------------
         O            2.318826659101    -1.293032997368     0.000002028533    15.994914619570
         O           -2.274196340899    -1.431243997368     0.000001028533    15.994914619570
         N            1.169980659101     0.698406002632    -0.000001971467    14.003074004430
         N            0.013755659101    -1.311996997368    -0.000001971467    14.003074004430
         C           -1.242343340899     0.726317002632     0.000000028533    12.000000000000
         C           -0.042341340899     1.358462002632    -0.000000971467    12.000000000000
         C            1.250293659101    -0.687631997368    -0.000000971467    12.000000000000
         C           -1.261375340899    -0.731461997368     0.000000028533    12.000000000000
         C            2.442344659101     1.416955002632     0.000001028533    12.000000000000
         C           -2.557538340899     1.441005002632     0.000001028533    12.000000000000
         H            0.031825359101     2.492977502632    -0.000000971467     1.007825032230
         H            0.043261659101    -2.328779997368    -0.000000971467     1.007825032230
         H            2.231892659101     2.486392002632    -0.000019971467     1.007825032230
         H            3.021711659101     1.152556002632    -0.886210971467     1.007825032230
         H            3.021691659101     1.152587002632     0.886236028533     1.007825032230
         H           -3.145717340899     1.162773002632    -0.879053971467     1.007825032230
         H           -2.414451340899     2.524986002632     0.000001028533     1.007825032230
         H           -3.145717340899     1.162772002632     0.879054028533     1.007825032230

  Basis Set: AUG-CC-PVTZ
    Blend: AUG-CC-PVTZ
  Basis Set: (AUG-CC-PVTZ AUX)
    Blend: AUG-CC-PVTZ-JKFIT
	 Reference Energy          =    -490.7099182918981342 [Eh]
	 Singles Energy            =      -0.0000000000000000 [Eh]
	 Same-Spin Energy          =      -0.5025606312586971 [Eh]
	 Opposite-Spin Energy      =      -1.5417747757149924 [Eh]
	 Correlation Energy        =      -2.0443354069736897 [Eh]
	 Total Energy              =    -492.7542536988718211 [Eh]

	 ================> DF-SCS-MP2 Energies <==================
	-----------------------------------------------------------
	 SCS Same-Spin Scale       =       0.3333333333333333 [-]
	 SCS Opposite-Spin Scale   =       1.2000000000000000 [-]
	 SCS Same-Spin Energy      =      -0.1675202104195657 [Eh]
	 SCS Opposite-Spin Energy  =      -1.8501297308579909 [Eh]
	 SCS Correlation Energy    =      -2.0176499412775568 [Eh]
	 SCS Total Energy          =    -492.7275682331757025 [Eh]
	-----------------------------------------------------------

  Dipole Moment: [D]
     X:     1.0992      Y:     4.5016      Z:    -0.0000     Total:     4.6339

*** Psi4 exiting successfully. Buy a developer a beer!
