                               Psi4 1.4a3.dev225

  ==> Input File <==

--------------------------------------------------------------------------
#psi4
#
memory 32 gb

molecule  {
0 1
  O        2.3212770    -1.3580180     0.0000020
  O       -2.2717460    -1.4962290     0.0000010
  N        1.1724310     0.6334210    -0.0000020
  N        0.0162060    -1.3769820    -0.0000020
  C       -1.2398930     0.6613320     0.0000000
  C       -0.0398910     1.2934770    -0.0000010
  C        1.2527440    -0.7526170    -0.0000010
  C       -1.2134192    -0.8171646    -0.0000001
  C        2.4447950     1.3519700     0.0000010
  C       -2.5550880     1.3760200     0.0000010
  H        0.0310140     2.3780990    -0.0000010
  H        0.0457120    -2.3937650    -0.0000010
  H        2.2343430     2.4214070    -0.0000200
  H        3.0241620     1.0875710    -0.8862110
  H        3.0241420     1.0876020     0.8862360
  H       -3.1432670     1.0977880    -0.8790540
  H       -2.4120010     2.4600010     0.0000010
  H       -3.1432670     1.0977870     0.8790540
units angstrom
no_reorient  #important for SAPT in psi4, default
symmetry c1  #important for SAPT in psi4, default
}

set PROPERTIES_ORIGIN ["COM"]
properties('MP2/aug-cc-pvtz', properties = ['dipole'])
--------------------------------------------------------------------------

    Molecular point group: c1
  Charge       = 0
  Multiplicity = 1
  Basis Set: AUG-CC-PVTZ
    Blend: AUG-CC-PVTZ
  Basis Set: (AUG-CC-PVTZ AUX)
    Blend: AUG-CC-PVTZ-JKFIT

    Orbital Energies [Eh]
    ---------------------

    Doubly Occupied:

       1A    -20.546039     2A    -20.530590     3A    -15.640044
       4A    -15.632965     5A    -11.416563     6A    -11.374852
       7A    -11.323161     8A    -11.289850     9A    -11.258900
      10A    -11.235966    11A     -1.429960    12A     -1.373984
      13A     -1.308154    14A     -1.255220    15A     -1.105637
      16A     -0.995075    17A     -0.964950    18A     -0.915951
      19A     -0.862763    20A     -0.771659    21A     -0.740907
      22A     -0.693219    23A     -0.686724    24A     -0.650260
      25A     -0.635806    26A     -0.614955    27A     -0.601839
      28A     -0.592014    29A     -0.581499    30A     -0.558933
      31A     -0.544391    32A     -0.537740    33A     -0.493270
      34A     -0.476674    35A     -0.440473    36A     -0.430367
      37A     -0.342760

  @DF-RHF Final Energy:  -490.70856075655155

   => Energetics <=

    Nuclear Repulsion Energy =            530.9571278686347569
    One-Electron Energy =               -1721.6231486886606490
    Two-Electron Energy =                 699.9574600634744002
    Total Energy =                       -490.7085607565516057
  Basis Set: (AUG-CC-PVTZ AUX)
    Blend: AUG-CC-PVTZ-RI
    Molecular point group: c1

    Geometry (in Angstrom), charge = 0, multiplicity = 1:

       Center              X                  Y                   Z               Mass
    ------------   -----------------  -----------------  -----------------  -----------------
         O            2.314951263629    -1.290898925157     0.000002037101    15.994914619570
         O           -2.278071736371    -1.429109925157     0.000001037101    15.994914619570
         N            1.166105263629     0.700540074843    -0.000001962899    14.003074004430
         N            0.009880263629    -1.309862925157    -0.000001962899    14.003074004430
         C           -1.246218736371     0.728451074843     0.000000037101    12.000000000000
         C           -0.046216736371     1.360596074843    -0.000000962899    12.000000000000
         C            1.246418263629    -0.685497925157    -0.000000962899    12.000000000000
         C           -1.219744936371    -0.750045525157    -0.000000062899    12.000000000000
         C            2.438469263629     1.419089074843     0.000001037101    12.000000000000
         C           -2.561413736371     1.443139074843     0.000001037101    12.000000000000
         H            0.024688263629     2.445218074843    -0.000000962899     1.007825032230
         H            0.039386263629    -2.326645925157    -0.000000962899     1.007825032230
         H            2.228017263629     2.488526074843    -0.000019962899     1.007825032230
         H            3.017836263629     1.154690074843    -0.886210962899     1.007825032230
         H            3.017816263629     1.154721074843     0.886236037101     1.007825032230
         H           -3.149592736371     1.164907074843    -0.879053962899     1.007825032230
         H           -2.418326736371     2.527120074843     0.000001037101     1.007825032230
         H           -3.149592736371     1.164906074843     0.879054037101     1.007825032230

  Basis Set: AUG-CC-PVTZ
    Blend: AUG-CC-PVTZ
  Basis Set: (AUG-CC-PVTZ AUX)
    Blend: AUG-CC-PVTZ-JKFIT
	 Reference Energy          =    -490.7085607565515488 [Eh]
	 Singles Energy            =      -0.0000000000000000 [Eh]
	 Same-Spin Energy          =      -0.5027033856919694 [Eh]
	 Opposite-Spin Energy      =      -1.5419788023177898 [Eh]
	 Correlation Energy        =      -2.0446821880097592 [Eh]
	 Total Energy              =    -492.7532429445612934 [Eh]

	 ================> DF-SCS-MP2 Energies <==================
	-----------------------------------------------------------
	 SCS Same-Spin Scale       =       0.3333333333333333 [-]
	 SCS Opposite-Spin Scale   =       1.2000000000000000 [-]
	 SCS Same-Spin Energy      =      -0.1675677952306565 [Eh]
	 SCS Opposite-Spin Energy  =      -1.8503745627813477 [Eh]
	 SCS Correlation Energy    =      -2.0179423580120042 [Eh]
	 SCS Total Energy          =    -492.7265031145635703 [Eh]
	-----------------------------------------------------------

  Dipole Moment: [D]
     X:     1.4201      Y:     4.4582      Z:    -0.0000     Total:     4.6790

*** Psi4 exiting successfully. Buy a developer a beer!
