                               Psi4 1.3.2 release

  ==> Input File <==

--------------------------------------------------------------------------
#psi4
#
memory 32 gb

molecule  {
0 1
  O        2.3055556    -1.4075436     0.0000576
  O       -2.2718830    -1.4902890    -0.0001310
  N        1.1826080     0.6255060     0.0000550
  N        0.0207580    -1.3870272    -0.0000340
  C       -1.2346770     0.6647280    -0.0000250
  C       -0.0319280     1.2897490     0.0000350
  C        1.2605820    -0.7608720     0.0000310
  C       -1.2542960    -0.7955090    -0.0000670
  C        2.4243390     1.3942650     0.0001240
  C       -2.5504790     1.3758010    -0.0000570
  H        0.0516650     2.3739750     0.0000690
  H        0.0461780    -2.3935470    -0.0000610
  H        2.4800130     2.0209940     0.8935150
  H        2.4798690     2.0213500    -0.8930780
  H        3.2466700     0.6823050    -0.0000520
  H       -3.1375530     1.0948740    -0.8785960
  H       -2.4103180     2.4605130    -0.0000230
  H       -3.1376190     1.0948280     0.8784230
units angstrom
no_reorient  #important for SAPT in psi4, default
symmetry c1  #important for SAPT in psi4, default
}

set PROPERTIES_ORIGIN ["COM"]
properties('MP2/aug-cc-pvtz', properties = ['dipole'])
--------------------------------------------------------------------------

    Molecular point group: c1
  Charge       = 0
  Multiplicity = 1
  Basis Set: AUG-CC-PVTZ
    Blend: AUG-CC-PVTZ
  Basis Set: (AUG-CC-PVTZ AUX)
    Blend: AUG-CC-PVTZ-JKFIT

    Orbital Energies [Eh]
    ---------------------

    Doubly Occupied:

       1A    -20.539374     2A    -20.539277     3A    -15.638778
       4A    -15.622837     5A    -11.412948     6A    -11.376886
       7A    -11.325535     8A    -11.286462     9A    -11.260216
      10A    -11.237516    11A     -1.423362    12A     -1.386775
      13A     -1.306630    14A     -1.241546    15A     -1.109410
      16A     -0.993357    17A     -0.963560    18A     -0.914304
      19A     -0.851090    20A     -0.771042    21A     -0.736601
      22A     -0.692993    23A     -0.681855    24A     -0.649681
      25A     -0.636866    26A     -0.615151    27A     -0.610551
      28A     -0.589266    29A     -0.584168    30A     -0.556138
      31A     -0.548530    32A     -0.542720    33A     -0.488310
      34A     -0.475118    35A     -0.443804    36A     -0.429813
      37A     -0.346268

  @DF-RHF Final Energy:  -490.71215747999491

   => Energetics <=

    Nuclear Repulsion Energy =            530.1367465018648772
    One-Electron Energy =               -1720.0403345227891805
    Two-Electron Energy =                 699.1914305409294457
    Total Energy =                       -490.7121574799949713
  Basis Set: (AUG-CC-PVTZ AUX)
    Blend: AUG-CC-PVTZ-RI
    Molecular point group: c1

    Geometry (in Angstrom), charge = 0, multiplicity = 1:

       Center              X                  Y                   Z               Mass
    ------------   -----------------  -----------------  -----------------  -----------------
         O            2.302929352894    -1.339230887938     0.000058952439    15.994914619570
         O           -2.274509247106    -1.421976287938    -0.000129647561    15.994914619570
         N            1.179981752894     0.693818712062     0.000056352439    14.003074004430
         N            0.018131752894    -1.318714487938    -0.000032647561    14.003074004430
         C           -1.237303247106     0.733040712062    -0.000023647561    12.000000000000
         C           -0.034554247106     1.358061712062     0.000036352439    12.000000000000
         C            1.257955752894    -0.692559287938     0.000032352439    12.000000000000
         C           -1.256922247106    -0.727196287938    -0.000065647561    12.000000000000
         C            2.421712752894     1.462577712062     0.000125352439    12.000000000000
         C           -2.553105247106     1.444113712062    -0.000055647561    12.000000000000
         H            0.049038752894     2.442287712062     0.000070352439     1.007825032230
         H            0.043551752894    -2.325234287938    -0.000059647561     1.007825032230
         H            2.477386752894     2.089306712062     0.893516352439     1.007825032230
         H            2.477242752894     2.089662712062    -0.893076647561     1.007825032230
         H            3.244043752894     0.750617712062    -0.000050647561     1.007825032230
         H           -3.140179247106     1.163186712062    -0.878594647561     1.007825032230
         H           -2.412944247106     2.528825712062    -0.000021647561     1.007825032230
         H           -3.140245247106     1.163140712062     0.878424352439     1.007825032230

  Basis Set: AUG-CC-PVTZ
    Blend: AUG-CC-PVTZ
  Basis Set: (AUG-CC-PVTZ AUX)
    Blend: AUG-CC-PVTZ-JKFIT
	 Reference Energy          =    -490.7121574799949144 [Eh]
	 Singles Energy            =      -0.0000000000000000 [Eh]
	 Same-Spin Energy          =      -0.5021832247234924 [Eh]
	 Opposite-Spin Energy      =      -1.5412528954569089 [Eh]
	 Correlation Energy        =      -2.0434361201804014 [Eh]
	 Total Energy              =    -492.7555936001753025 [Eh]

	 ================> DF-SCS-MP2 Energies <==================
	-----------------------------------------------------------
	 SCS Same-Spin Scale       =       0.3333333333333333 [-]
	 SCS Opposite-Spin Scale   =       1.2000000000000000 [-]
	 SCS Same-Spin Energy      =      -0.1673944082411641 [Eh]
	 SCS Opposite-Spin Energy  =      -1.8495034745482906 [Eh]
	 SCS Correlation Energy    =      -2.0168978827894546 [Eh]
	 SCS Total Energy          =    -492.7290553627843792 [Eh]
	-----------------------------------------------------------

  Dipole Moment: [D]
     X:     1.0173      Y:     4.5662      Z:     0.0002     Total:     4.6781

*** Psi4 exiting successfully. Buy a developer a beer!
