                               Psi4 1.3.2 release

  ==> Input File <==

--------------------------------------------------------------------------
#psi4
#
memory 32 gb

molecule  {
0 1
  O        2.3111590    -1.3984000     0.0000580
  O       -2.2718830    -1.4902890    -0.0001310
  N        1.1826080     0.6255060     0.0000550
  N        0.0153410    -1.3761840    -0.0000340
  C       -1.2346770     0.6647280    -0.0000250
  C       -0.1206620     1.2436374     0.0000306
  C        1.2605820    -0.7608720     0.0000310
  C       -1.2542960    -0.7955090    -0.0000670
  C        2.4243390     1.3942650     0.0001240
  C       -2.5504790     1.3758010    -0.0000570
  H        0.0516650     2.3739750     0.0000690
  H        0.0461780    -2.3935470    -0.0000610
  H        2.4800130     2.0209940     0.8935150
  H        2.4798690     2.0213500    -0.8930780
  H        3.2466700     0.6823050    -0.0000520
  H       -3.1375530     1.0948740    -0.8785960
  H       -2.4103180     2.4605130    -0.0000230
  H       -3.1376190     1.0948280     0.8784230
units angstrom
no_reorient  #important for SAPT in psi4, default
symmetry c1  #important for SAPT in psi4, default
}

set PROPERTIES_ORIGIN ["COM"]
properties('MP2/aug-cc-pvtz', properties = ['dipole'])
--------------------------------------------------------------------------

    Molecular point group: c1
  Charge       = 0
  Multiplicity = 1
  Basis Set: AUG-CC-PVTZ
    Blend: AUG-CC-PVTZ
  Basis Set: (AUG-CC-PVTZ AUX)
    Blend: AUG-CC-PVTZ-JKFIT

    Orbital Energies [Eh]
    ---------------------

    Doubly Occupied:

       1A    -20.544522     2A    -20.536175     3A    -15.630534
       4A    -15.624003     5A    -11.408251     6A    -11.381055
       7A    -11.316199     8A    -11.283017     9A    -11.252561
      10A    -11.240585    11A     -1.420561    12A     -1.390048
      13A     -1.294855    14A     -1.237802    15A     -1.132944
      16A     -0.988880    17A     -0.962327    18A     -0.907611
      19A     -0.854945    20A     -0.773125    21A     -0.734504
      22A     -0.679396    23A     -0.677047    24A     -0.646697
      25A     -0.634516    26A     -0.616091    27A     -0.611094
      28A     -0.588158    29A     -0.586982    30A     -0.553988
      31A     -0.548774    32A     -0.543910    33A     -0.485730
      34A     -0.470120    35A     -0.447084    36A     -0.431005
      37A     -0.365077

  @DF-RHF Final Energy:  -490.69907496095851

   => Energetics <=

    Nuclear Repulsion Energy =            531.2197230302147091
    One-Electron Energy =               -1722.2372507112324911
    Two-Electron Energy =                 700.3184527200593266
    Total Energy =                       -490.6990749609584554
  Basis Set: (AUG-CC-PVTZ AUX)
    Blend: AUG-CC-PVTZ-RI
    Molecular point group: c1

    Geometry (in Angstrom), charge = 0, multiplicity = 1:

       Center              X                  Y                   Z               Mass
    ------------   -----------------  -----------------  -----------------  -----------------
         O            2.316037018367    -1.328264836424     0.000059683743    15.994914619570
         O           -2.267004981633    -1.420153836424    -0.000129316257    15.994914619570
         N            1.187486018367     0.695641163576     0.000056683743    14.003074004430
         N            0.020219018367    -1.306048836424    -0.000032316257    14.003074004430
         C           -1.229798981633     0.734863163576    -0.000023316257    12.000000000000
         C           -0.115783981633     1.313772563576     0.000032283743    12.000000000000
         C            1.265460018367    -0.690736836424     0.000032683743    12.000000000000
         C           -1.249417981633    -0.725373836424    -0.000065316257    12.000000000000
         C            2.429217018367     1.464400163576     0.000125683743    12.000000000000
         C           -2.545600981633     1.445936163576    -0.000055316257    12.000000000000
         H            0.056543018367     2.444110163576     0.000070683743     1.007825032230
         H            0.051056018367    -2.323411836424    -0.000059316257     1.007825032230
         H            2.484891018367     2.091129163576     0.893516683743     1.007825032230
         H            2.484747018367     2.091485163576    -0.893076316257     1.007825032230
         H            3.251548018367     0.752440163576    -0.000050316257     1.007825032230
         H           -3.132674981633     1.165009163576    -0.878594316257     1.007825032230
         H           -2.405439981633     2.530648163576    -0.000021316257     1.007825032230
         H           -3.132740981633     1.164963163576     0.878424683743     1.007825032230

  Basis Set: AUG-CC-PVTZ
    Blend: AUG-CC-PVTZ
  Basis Set: (AUG-CC-PVTZ AUX)
    Blend: AUG-CC-PVTZ-JKFIT
	 Reference Energy          =    -490.6990749609585123 [Eh]
	 Singles Energy            =      -0.0000000000000000 [Eh]
	 Same-Spin Energy          =      -0.5010829022874266 [Eh]
	 Opposite-Spin Energy      =      -1.5398765039279070 [Eh]
	 Correlation Energy        =      -2.0409594062153333 [Eh]
	 Total Energy              =    -492.7400343671738483 [Eh]

	 ================> DF-SCS-MP2 Energies <==================
	-----------------------------------------------------------
	 SCS Same-Spin Scale       =       0.3333333333333333 [-]
	 SCS Opposite-Spin Scale   =       1.2000000000000000 [-]
	 SCS Same-Spin Energy      =      -0.1670276340958088 [Eh]
	 SCS Opposite-Spin Energy  =      -1.8478518047134882 [Eh]
	 SCS Correlation Energy    =      -2.0148794388092970 [Eh]
	 SCS Total Energy          =    -492.7139543997678288 [Eh]
	-----------------------------------------------------------

  Dipole Moment: [D]
     X:     0.6733      Y:     4.4432      Z:     0.0002     Total:     4.4939

*** Psi4 exiting successfully. Buy a developer a beer!
