                               Psi4 1.3.2 release

  ==> Input File <==

--------------------------------------------------------------------------
#psi4
#
memory 32 gb

molecule  {
0 1
  O        2.3111590    -1.3984000     0.0000580
  O       -2.2718830    -1.4902890    -0.0001310
  N        1.1826080     0.6255060     0.0000550
  N        0.0153410    -1.3761840    -0.0000340
  C       -1.2346770     0.6647280    -0.0000250
  C       -0.0319280     1.2897490     0.0000350
  C        1.2605820    -0.7608720     0.0000310
  C       -1.2542960    -0.7955090    -0.0000670
  C        2.4243390     1.3942650     0.0001240
  C       -2.5504790     1.3758010    -0.0000570
  H        0.0516650     2.3739750     0.0000690
  H        0.0461780    -2.3935470    -0.0000610
  H        2.4800130     2.0209940     0.8935150
  H        2.4798690     2.0213500    -0.8930780
  H        3.2466700     0.6823050    -0.0000520
  H       -3.1353548     1.0584034    -0.8675740
  H       -2.3904149     2.4572684     0.0323927
  H       -3.1376190     1.0948280     0.8784230
units angstrom
no_reorient  #important for SAPT in psi4, default
symmetry c1  #important for SAPT in psi4, default
}

set PROPERTIES_ORIGIN ["COM"]
properties('MP2/aug-cc-pvtz', properties = ['dipole'])
--------------------------------------------------------------------------

    Molecular point group: c1
  Charge       = 0
  Multiplicity = 1
  Basis Set: AUG-CC-PVTZ
    Blend: AUG-CC-PVTZ
  Basis Set: (AUG-CC-PVTZ AUX)
    Blend: AUG-CC-PVTZ-JKFIT

    Orbital Energies [Eh]
    ---------------------

    Doubly Occupied:

       1A    -20.540415     2A    -20.538743     3A    -15.638048
       4A    -15.624594     5A    -11.413626     6A    -11.376214
       7A    -11.324670     8A    -11.285893     9A    -11.259354
      10A    -11.237302    11A     -1.424035    12A     -1.387149
      13A     -1.306673    14A     -1.242889    15A     -1.109241
      16A     -0.993177    17A     -0.963916    18A     -0.914154
      19A     -0.852513    20A     -0.770904    21A     -0.734492
      22A     -0.692200    23A     -0.682093    24A     -0.649448
      25A     -0.637662    26A     -0.615715    27A     -0.610897
      28A     -0.588401    29A     -0.583241    30A     -0.554020
      31A     -0.551600    32A     -0.542357    33A     -0.487724
      34A     -0.475255    35A     -0.444389    36A     -0.430623
      37A     -0.345583

  @DF-RHF Final Energy:  -490.71149446705169

   => Energetics <=

    Nuclear Repulsion Energy =            530.4664447868817660
    One-Electron Energy =               -1720.6974582285731685
    Two-Electron Energy =                 699.5195189746397091
    Total Energy =                       -490.7114944670516934
  Basis Set: (AUG-CC-PVTZ AUX)
    Blend: AUG-CC-PVTZ-RI
    Molecular point group: c1

    Geometry (in Angstrom), charge = 0, multiplicity = 1:

       Center              X                  Y                   Z               Mass
    ------------   -----------------  -----------------  -----------------  -----------------
         O            2.308275392748    -1.331929826005    -0.000253259614    15.994914619570
         O           -2.274766607252    -1.423818826005    -0.000442259614    15.994914619570
         N            1.179724392748     0.691976173995    -0.000256259614    14.003074004430
         N            0.012457392748    -1.309713826005    -0.000345259614    14.003074004430
         C           -1.237560607252     0.731198173995    -0.000336259614    12.000000000000
         C           -0.034811607252     1.356219173995    -0.000276259614    12.000000000000
         C            1.257698392748    -0.694401826005    -0.000280259614    12.000000000000
         C           -1.257179607252    -0.729038826005    -0.000378259614    12.000000000000
         C            2.421455392748     1.460735173995    -0.000187259614    12.000000000000
         C           -2.553362607252     1.442271173995    -0.000368259614    12.000000000000
         H            0.048781392748     2.440445173995    -0.000242259614     1.007825032230
         H            0.043294392748    -2.327076826005    -0.000372259614     1.007825032230
         H            2.477129392748     2.087464173995     0.893203740386     1.007825032230
         H            2.476985392748     2.087820173995    -0.893389259614     1.007825032230
         H            3.243786392748     0.748775173995    -0.000363259614     1.007825032230
         H           -3.138238407252     1.124873573995    -0.867885259614     1.007825032230
         H           -2.393298507252     2.523738573995     0.032081440386     1.007825032230
         H           -3.140502607252     1.161298173995     0.878111740386     1.007825032230

  Basis Set: AUG-CC-PVTZ
    Blend: AUG-CC-PVTZ
  Basis Set: (AUG-CC-PVTZ AUX)
    Blend: AUG-CC-PVTZ-JKFIT
	 Reference Energy          =    -490.7114944670516934 [Eh]
	 Singles Energy            =      -0.0000000000000000 [Eh]
	 Same-Spin Energy          =      -0.5024559204642915 [Eh]
	 Opposite-Spin Energy      =      -1.5415462482853814 [Eh]
	 Correlation Energy        =      -2.0440021687496728 [Eh]
	 Total Energy              =    -492.7554966358013644 [Eh]

	 ================> DF-SCS-MP2 Energies <==================
	-----------------------------------------------------------
	 SCS Same-Spin Scale       =       0.3333333333333333 [-]
	 SCS Opposite-Spin Scale   =       1.2000000000000000 [-]
	 SCS Same-Spin Energy      =      -0.1674853068214305 [Eh]
	 SCS Opposite-Spin Energy  =      -1.8498554979424577 [Eh]
	 SCS Correlation Energy    =      -2.0173408047638883 [Eh]
	 SCS Total Energy          =    -492.7288352718155693 [Eh]
	-----------------------------------------------------------

  Dipole Moment: [D]
     X:     1.0432      Y:     4.5077      Z:     0.0191     Total:     4.6269

*** Psi4 exiting successfully. Buy a developer a beer!
