                               Psi4 1.3.2 release

  ==> Input File <==

--------------------------------------------------------------------------
#psi4
#
memory 32 gb

molecule  {
0 1
  O        2.3111590    -1.3984000     0.0000580
  O       -2.2718830    -1.4902890    -0.0001310
  N        1.1826080     0.6255060     0.0000550
  N        0.0153410    -1.3761840    -0.0000340
  C       -1.2346770     0.6647280    -0.0000250
  C       -0.0543699     1.2469577     0.0000328
  C        1.2605820    -0.7608720     0.0000310
  C       -1.2542960    -0.7955090    -0.0000670
  C        2.4504119     1.3504609     0.0001234
  C       -2.5504790     1.3758010    -0.0000570
  H        0.0516650     2.3739750     0.0000690
  H        0.0461780    -2.3935470    -0.0000610
  H        2.4800130     2.0209940     0.8935150
  H        2.4798690     2.0213500    -0.8930780
  H        3.2466700     0.6823050    -0.0000520
  H       -3.1375530     1.0948740    -0.8785960
  H       -2.4103180     2.4605130    -0.0000230
  H       -3.1376190     1.0948280     0.8784230
units angstrom
no_reorient  #important for SAPT in psi4, default
symmetry c1  #important for SAPT in psi4, default
}

set PROPERTIES_ORIGIN ["COM"]
properties('MP2/aug-cc-pvtz', properties = ['dipole'])
--------------------------------------------------------------------------

    Molecular point group: c1
  Charge       = 0
  Multiplicity = 1
  Basis Set: AUG-CC-PVTZ
    Blend: AUG-CC-PVTZ
  Basis Set: (AUG-CC-PVTZ AUX)
    Blend: AUG-CC-PVTZ-JKFIT

    Orbital Energies [Eh]
    ---------------------

    Doubly Occupied:

       1A    -20.539853     2A    -20.539355     3A    -15.637385
       4A    -15.624228     5A    -11.411683     6A    -11.376505
       7A    -11.323000     8A    -11.287655     9A    -11.256001
      10A    -11.238571    11A     -1.424376    12A     -1.387581
      13A     -1.306876    14A     -1.242497    15A     -1.117622
      16A     -0.995180    17A     -0.962117    18A     -0.911279
      19A     -0.856707    20A     -0.773647    21A     -0.734927
      22A     -0.683933    23A     -0.680106    24A     -0.651479
      25A     -0.636296    26A     -0.611470    27A     -0.610398
      28A     -0.592776    29A     -0.583788    30A     -0.561179
      31A     -0.550032    32A     -0.541649    33A     -0.487614
      34A     -0.473408    35A     -0.444457    36A     -0.430647
      37A     -0.351871

  @DF-RHF Final Energy:  -490.70709338374172

   => Energetics <=

    Nuclear Repulsion Energy =            531.2815173759709069
    One-Electron Energy =               -1722.3009241375157217
    Two-Electron Energy =                 700.3123133778030933
    Total Energy =                       -490.7070933837417215
  Basis Set: (AUG-CC-PVTZ AUX)
    Blend: AUG-CC-PVTZ-RI
    Molecular point group: c1

    Geometry (in Angstrom), charge = 0, multiplicity = 1:

       Center              X                  Y                   Z               Mass
    ------------   -----------------  -----------------  -----------------  -----------------
         O            2.308123329540    -1.324796247719     0.000059546658    15.994914619570
         O           -2.274918670460    -1.416685247719    -0.000129453342    15.994914619570
         N            1.179572329540     0.699109752281     0.000056546658    14.003074004430
         N            0.012305329540    -1.302580247719    -0.000032453342    14.003074004430
         C           -1.237712670460     0.738331752281    -0.000023453342    12.000000000000
         C           -0.057405570460     1.320561452281     0.000034346658    12.000000000000
         C            1.257546329540    -0.687268247719     0.000032546658    12.000000000000
         C           -1.257331670460    -0.721905247719    -0.000065453342    12.000000000000
         C            2.447376229540     1.424064652281     0.000124946658    12.000000000000
         C           -2.553514670460     1.449404752281    -0.000055453342    12.000000000000
         H            0.048629329540     2.447578752281     0.000070546658     1.007825032230
         H            0.043142329540    -2.319943247719    -0.000059453342     1.007825032230
         H            2.476977329540     2.094597752281     0.893516546658     1.007825032230
         H            2.476833329540     2.094953752281    -0.893076453342     1.007825032230
         H            3.243634329540     0.755908752281    -0.000050453342     1.007825032230
         H           -3.140588670460     1.168477752281    -0.878594453342     1.007825032230
         H           -2.413353670460     2.534116752281    -0.000021453342     1.007825032230
         H           -3.140654670460     1.168431752281     0.878424546658     1.007825032230

  Basis Set: AUG-CC-PVTZ
    Blend: AUG-CC-PVTZ
  Basis Set: (AUG-CC-PVTZ AUX)
    Blend: AUG-CC-PVTZ-JKFIT
	 Reference Energy          =    -490.7070933837417215 [Eh]
	 Singles Energy            =      -0.0000000000000000 [Eh]
	 Same-Spin Energy          =      -0.5019243332519150 [Eh]
	 Opposite-Spin Energy      =      -1.5406506564380140 [Eh]
	 Correlation Energy        =      -2.0425749896899292 [Eh]
	 Total Energy              =    -492.7496683734316321 [Eh]

	 ================> DF-SCS-MP2 Energies <==================
	-----------------------------------------------------------
	 SCS Same-Spin Scale       =       0.3333333333333333 [-]
	 SCS Opposite-Spin Scale   =       1.2000000000000000 [-]
	 SCS Same-Spin Energy      =      -0.1673081110839716 [Eh]
	 SCS Opposite-Spin Energy  =      -1.8487807877256168 [Eh]
	 SCS Correlation Energy    =      -2.0160888988095884 [Eh]
	 SCS Total Energy          =    -492.7231822825513063 [Eh]
	-----------------------------------------------------------

  Dipole Moment: [D]
     X:     1.0039      Y:     4.4686      Z:     0.0002     Total:     4.5800

*** Psi4 exiting successfully. Buy a developer a beer!
