                               Psi4 1.3.2 release

  ==> Input File <==

--------------------------------------------------------------------------
#psi4
#
memory 32 gb

molecule  {
0 1
  O        2.3111590    -1.3984000     0.0000580
  O       -2.2718830    -1.4902890    -0.0001310
  N        1.1826080     0.6255060     0.0000550
  N        0.0153410    -1.3761840    -0.0000340
  C       -1.2346770     0.6647280    -0.0000250
  C       -0.0319280     1.2897490     0.0000350
  C        1.2383494    -0.7177885     0.0000313
  C       -1.2332573    -0.7515530    -0.0000650
  C        2.4243390     1.3942650     0.0001240
  C       -2.5504790     1.3758010    -0.0000570
  H        0.0516650     2.3739750     0.0000690
  H        0.0461780    -2.3935470    -0.0000610
  H        2.4800130     2.0209940     0.8935150
  H        2.4798690     2.0213500    -0.8930780
  H        3.2466700     0.6823050    -0.0000520
  H       -3.1375530     1.0948740    -0.8785960
  H       -2.4103180     2.4605130    -0.0000230
  H       -3.1376190     1.0948280     0.8784230
units angstrom
no_reorient  #important for SAPT in psi4, default
symmetry c1  #important for SAPT in psi4, default
}

set PROPERTIES_ORIGIN ["COM"]
properties('MP2/aug-cc-pvtz', properties = ['dipole'])
--------------------------------------------------------------------------

    Molecular point group: c1
  Charge       = 0
  Multiplicity = 1
  Basis Set: AUG-CC-PVTZ
    Blend: AUG-CC-PVTZ
  Basis Set: (AUG-CC-PVTZ AUX)
    Blend: AUG-CC-PVTZ-JKFIT

    Orbital Energies [Eh]
    ---------------------

    Doubly Occupied:

       1A    -20.531312     2A    -20.529842     3A    -15.649530
       4A    -15.628818     5A    -11.412188     6A    -11.376268
       7A    -11.334648     8A    -11.292107     9A    -11.265153
      10A    -11.241497    11A     -1.414337    12A     -1.359738
      13A     -1.306190    14A     -1.240194    15A     -1.121257
      16A     -1.002428    17A     -0.974580    18A     -0.927004
      19A     -0.852085    20A     -0.779998    21A     -0.745011
      22A     -0.695944    23A     -0.689867    24A     -0.647407
      25A     -0.623725    26A     -0.616522    27A     -0.603765
      28A     -0.593047    29A     -0.584555    30A     -0.560423
      31A     -0.550938    32A     -0.532948    33A     -0.488610
      34A     -0.466507    35A     -0.438418    36A     -0.421117
      37A     -0.353877

  @DF-RHF Final Energy:  -490.69863437159296

   => Energetics <=

    Nuclear Repulsion Energy =            530.9811702266225666
    One-Electron Energy =               -1721.6558967444359496
    Two-Electron Energy =                 699.9760921462202532
    Total Energy =                       -490.6986343715930161
  Basis Set: (AUG-CC-PVTZ AUX)
    Blend: AUG-CC-PVTZ-RI
    Molecular point group: c1

    Geometry (in Angstrom), charge = 0, multiplicity = 1:

       Center              X                  Y                   Z               Mass
    ------------   -----------------  -----------------  -----------------  -----------------
         O            2.308536719430    -1.339673014548     0.000059109698    15.994914619570
         O           -2.274505280570    -1.431562014548    -0.000129890302    15.994914619570
         N            1.179985719430     0.684232985452     0.000056109698    14.003074004430
         N            0.012718719430    -1.317457014548    -0.000032890302    14.003074004430
         C           -1.237299280570     0.723454985452    -0.000023890302    12.000000000000
         C           -0.034550280570     1.348475985452     0.000036109698    12.000000000000
         C            1.235727119430    -0.659061514548     0.000032409698    12.000000000000
         C           -1.235879580570    -0.692826014548    -0.000063890302    12.000000000000
         C            2.421716719430     1.452991985452     0.000125109698    12.000000000000
         C           -2.553101280570     1.434527985452    -0.000055890302    12.000000000000
         H            0.049042719430     2.432701985452     0.000070109698     1.007825032230
         H            0.043555719430    -2.334820014548    -0.000059890302     1.007825032230
         H            2.477390719430     2.079720985452     0.893516109698     1.007825032230
         H            2.477246719430     2.080076985452    -0.893076890302     1.007825032230
         H            3.244047719430     0.741031985452    -0.000050890302     1.007825032230
         H           -3.140175280570     1.153600985452    -0.878594890302     1.007825032230
         H           -2.412940280570     2.519239985452    -0.000021890302     1.007825032230
         H           -3.140241280570     1.153554985452     0.878424109698     1.007825032230

  Basis Set: AUG-CC-PVTZ
    Blend: AUG-CC-PVTZ
  Basis Set: (AUG-CC-PVTZ AUX)
    Blend: AUG-CC-PVTZ-JKFIT
	 Reference Energy          =    -490.6986343715929593 [Eh]
	 Singles Energy            =      -0.0000000000000000 [Eh]
	 Same-Spin Energy          =      -0.5042798786117364 [Eh]
	 Opposite-Spin Energy      =      -1.5448201538874977 [Eh]
	 Correlation Energy        =      -2.0491000324992341 [Eh]
	 Total Energy              =    -492.7477344040921707 [Eh]

	 ================> DF-SCS-MP2 Energies <==================
	-----------------------------------------------------------
	 SCS Same-Spin Scale       =       0.3333333333333333 [-]
	 SCS Opposite-Spin Scale   =       1.2000000000000000 [-]
	 SCS Same-Spin Energy      =      -0.1680932928705788 [Eh]
	 SCS Opposite-Spin Energy  =      -1.8537841846649972 [Eh]
	 SCS Correlation Energy    =      -2.0218774775355759 [Eh]
	 SCS Total Energy          =    -492.7205118491285134 [Eh]
	-----------------------------------------------------------

  Dipole Moment: [D]
     X:     0.9825      Y:     5.1539      Z:     0.0002     Total:     5.2467

*** Psi4 exiting successfully. Buy a developer a beer!
