                               Psi4 1.3.2 release

  ==> Input File <==

--------------------------------------------------------------------------
#psi4
#
memory 32 gb

molecule  {
0 1
  O        2.3111590    -1.3984000     0.0000580
  O       -2.2718830    -1.4902890    -0.0001310
  N        1.1826080     0.6255060     0.0000550
  N        0.0153410    -1.3761840    -0.0000340
  C       -1.2346770     0.6647280    -0.0000250
  C       -0.0319280     1.2897490     0.0000350
  C        1.2605820    -0.7608720     0.0000310
  C       -1.2542960    -0.7955090    -0.0000670
  C        2.4243390     1.3942650     0.0001240
  C       -2.5504790     1.3758010    -0.0000570
  H        0.0516650     2.3739750     0.0000690
  H        0.0461780    -2.3935470    -0.0000610
  H        2.4800130     2.0209940     0.8935150
  H        2.5267581     1.9924794    -0.9085997
  H        3.2640237     0.7046385    -0.0494777
  H       -3.1375530     1.0948740    -0.8785960
  H       -2.4103180     2.4605130    -0.0000230
  H       -3.1376190     1.0948280     0.8784230
units angstrom
no_reorient  #important for SAPT in psi4, default
symmetry c1  #important for SAPT in psi4, default
}

set PROPERTIES_ORIGIN ["COM"]
properties('MP2/aug-cc-pvtz', properties = ['dipole'])
--------------------------------------------------------------------------

    Molecular point group: c1
  Charge       = 0
  Multiplicity = 1
  Basis Set: AUG-CC-PVTZ
    Blend: AUG-CC-PVTZ
  Basis Set: (AUG-CC-PVTZ AUX)
    Blend: AUG-CC-PVTZ-JKFIT

    Orbital Energies [Eh]
    ---------------------

    Doubly Occupied:

       1A    -20.540288     2A    -20.538558     3A    -15.638898
       4A    -15.624582     5A    -11.413662     6A    -11.376213
       7A    -11.325075     8A    -11.285848     9A    -11.259638
      10A    -11.237115    11A     -1.423890    12A     -1.386947
      13A     -1.306709    14A     -1.242804    15A     -1.108963
      16A     -0.993176    17A     -0.963755    18A     -0.914164
      19A     -0.853443    20A     -0.770262    21A     -0.735480
      22A     -0.692623    23A     -0.682708    24A     -0.650649
      25A     -0.637481    26A     -0.617399    27A     -0.609582
      28A     -0.585192    29A     -0.582450    30A     -0.554338
      31A     -0.548163    32A     -0.543069    33A     -0.488674
      34A     -0.475158    35A     -0.444289    36A     -0.430485
      37A     -0.346113

  @DF-RHF Final Energy:  -490.71108787913607

   => Energetics <=

    Nuclear Repulsion Energy =            530.2599420764659044
    One-Electron Energy =               -1720.2863771963304771
    Two-Electron Energy =                 699.3153472407285562
    Total Energy =                       -490.7110878791360165
  Basis Set: (AUG-CC-PVTZ AUX)
    Blend: AUG-CC-PVTZ-RI
    Molecular point group: c1

    Geometry (in Angstrom), charge = 0, multiplicity = 1:

       Center              X                  Y                   Z               Mass
    ------------   -----------------  -----------------  -----------------  -----------------
         O            2.307972153493    -1.332168566968     0.000526651327    15.994914619570
         O           -2.275069846507    -1.424057566968     0.000337651327    15.994914619570
         N            1.179421153493     0.691737433032     0.000523651327    14.003074004430
         N            0.012154153493    -1.309952566968     0.000434651327    14.003074004430
         C           -1.237863846507     0.730959433032     0.000443651327    12.000000000000
         C           -0.035114846507     1.355980433032     0.000503651327    12.000000000000
         C            1.257395153493    -0.694640566968     0.000499651327    12.000000000000
         C           -1.257482846507    -0.729277566968     0.000401651327    12.000000000000
         C            2.421152153493     1.460496433032     0.000592651327    12.000000000000
         C           -2.553665846507     1.442032433032     0.000411651327    12.000000000000
         H            0.048478153493     2.440206433032     0.000537651327     1.007825032230
         H            0.042991153493    -2.327315566968     0.000407651327     1.007825032230
         H            2.476826153493     2.087225433032     0.893983651327     1.007825032230
         H            2.523571253493     2.058710833032    -0.908131048673     1.007825032230
         H            3.260836853493     0.770869933032    -0.049009048673     1.007825032230
         H           -3.140739846507     1.161105433032    -0.878127348673     1.007825032230
         H           -2.413504846507     2.526744433032     0.000445651327     1.007825032230
         H           -3.140805846507     1.161059433032     0.878891651327     1.007825032230

  Basis Set: AUG-CC-PVTZ
    Blend: AUG-CC-PVTZ
  Basis Set: (AUG-CC-PVTZ AUX)
    Blend: AUG-CC-PVTZ-JKFIT
	 Reference Energy          =    -490.7110878791360733 [Eh]
	 Singles Energy            =      -0.0000000000000000 [Eh]
	 Same-Spin Energy          =      -0.5023708026596676 [Eh]
	 Opposite-Spin Energy      =      -1.5414483036092417 [Eh]
	 Correlation Energy        =      -2.0438191062689093 [Eh]
	 Total Energy              =    -492.7549069854050003 [Eh]

	 ================> DF-SCS-MP2 Energies <==================
	-----------------------------------------------------------
	 SCS Same-Spin Scale       =       0.3333333333333333 [-]
	 SCS Opposite-Spin Scale   =       1.2000000000000000 [-]
	 SCS Same-Spin Energy      =      -0.1674569342198892 [Eh]
	 SCS Opposite-Spin Energy  =      -1.8497379643310898 [Eh]
	 SCS Correlation Energy    =      -2.0171948985509789 [Eh]
	 SCS Total Energy          =    -492.7282827776870704 [Eh]
	-----------------------------------------------------------

  Dipole Moment: [D]
     X:     1.0757      Y:     4.5156      Z:    -0.0326     Total:     4.6420

*** Psi4 exiting successfully. Buy a developer a beer!
