                               Psi4 1.3.2 release

  ==> Input File <==

--------------------------------------------------------------------------
#psi4
#
memory 32 gb

molecule  {
0 1
  O        2.3111590    -1.3984000     0.0000580
  O       -2.2718830    -1.4902890    -0.0001310
  N        1.1826080     0.6255060     0.0000550
  N        0.0153410    -1.3761840    -0.0000340
  C       -1.2346770     0.6647280    -0.0000250
  C       -0.0319280     1.2897490     0.0000350
  C        1.3089184    -0.7573062     0.0000332
  C       -1.2542960    -0.7955090    -0.0000670
  C        2.4504119     1.3504609     0.0001243
  C       -2.5504790     1.3758010    -0.0000570
  H        0.0516650     2.3739750     0.0000690
  H        0.0461780    -2.3935470    -0.0000610
  H        2.4800130     2.0209940     0.8935150
  H        2.4798690     2.0213500    -0.8930780
  H        3.2466700     0.6823050    -0.0000520
  H       -3.1375530     1.0948740    -0.8785960
  H       -2.4103180     2.4605130    -0.0000230
  H       -3.1376190     1.0948280     0.8784230
units angstrom
no_reorient  #important for SAPT in psi4, default
symmetry c1  #important for SAPT in psi4, default
}

set PROPERTIES_ORIGIN ["COM"]
properties('MP2/aug-cc-pvtz', properties = ['dipole'])
--------------------------------------------------------------------------

    Molecular point group: c1
  Charge       = 0
  Multiplicity = 1
  Basis Set: AUG-CC-PVTZ
    Blend: AUG-CC-PVTZ
  Basis Set: (AUG-CC-PVTZ AUX)
    Blend: AUG-CC-PVTZ-JKFIT

    Orbital Energies [Eh]
    ---------------------

    Doubly Occupied:

       1A    -20.551392     2A    -20.533840     3A    -15.636857
       4A    -15.616003     5A    -11.413989     6A    -11.371657
       7A    -11.324469     8A    -11.286986     9A    -11.258566
      10A    -11.235829    11A     -1.443763    12A     -1.385939
      13A     -1.312006    14A     -1.229524    15A     -1.108184
      16A     -0.992671    17A     -0.961771    18A     -0.909941
      19A     -0.844934    20A     -0.769216    21A     -0.727429
      22A     -0.696206    23A     -0.680017    24A     -0.652410
      25A     -0.644974    26A     -0.614240    27A     -0.606902
      28A     -0.591641    29A     -0.584751    30A     -0.559119
      31A     -0.547033    32A     -0.545458    33A     -0.487451
      34A     -0.483557    35A     -0.440830    36A     -0.427137
      37A     -0.344880

  @DF-RHF Final Energy:  -490.70671686676968

   => Energetics <=

    Nuclear Repulsion Energy =            530.3033216235355667
    One-Electron Energy =               -1720.3769369738374735
    Two-Electron Energy =                 699.3668984835321680
    Total Energy =                       -490.7067168667697388
  Basis Set: (AUG-CC-PVTZ AUX)
    Blend: AUG-CC-PVTZ-RI
    Molecular point group: c1

    Geometry (in Angstrom), charge = 0, multiplicity = 1:

       Center              X                  Y                   Z               Mass
    ------------   -----------------  -----------------  -----------------  -----------------
         O            2.302059155427    -1.328768051588     0.000059092562    15.994914619570
         O           -2.280982844573    -1.420657051588    -0.000129907438    15.994914619570
         N            1.173508155427     0.695137948412     0.000056092562    14.003074004430
         N            0.006241155427    -1.306552051588    -0.000032907438    14.003074004430
         C           -1.243776844573     0.734359948412    -0.000023907438    12.000000000000
         C           -0.041027844573     1.359380948412     0.000036092562    12.000000000000
         C            1.299818555427    -0.687674251588     0.000034292562    12.000000000000
         C           -1.263395844573    -0.725877051588    -0.000065907438    12.000000000000
         C            2.441312055427     1.420092848412     0.000125392562    12.000000000000
         C           -2.559578844573     1.445432948412    -0.000055907438    12.000000000000
         H            0.042565155427     2.443606948412     0.000070092562     1.007825032230
         H            0.037078155427    -2.323915051588    -0.000059907438     1.007825032230
         H            2.470913155427     2.090625948412     0.893516092562     1.007825032230
         H            2.470769155427     2.090981948412    -0.893076907438     1.007825032230
         H            3.237570155427     0.751936948412    -0.000050907438     1.007825032230
         H           -3.146652844573     1.164505948412    -0.878594907438     1.007825032230
         H           -2.419417844573     2.530144948412    -0.000021907438     1.007825032230
         H           -3.146718844573     1.164459948412     0.878424092562     1.007825032230

  Basis Set: AUG-CC-PVTZ
    Blend: AUG-CC-PVTZ
  Basis Set: (AUG-CC-PVTZ AUX)
    Blend: AUG-CC-PVTZ-JKFIT
	 Reference Energy          =    -490.7067168667696819 [Eh]
	 Singles Energy            =      -0.0000000000000000 [Eh]
	 Same-Spin Energy          =      -0.5018247754537905 [Eh]
	 Opposite-Spin Energy      =      -1.5407419648651994 [Eh]
	 Correlation Energy        =      -2.0425667403189900 [Eh]
	 Total Energy              =    -492.7492836070886710 [Eh]

	 ================> DF-SCS-MP2 Energies <==================
	-----------------------------------------------------------
	 SCS Same-Spin Scale       =       0.3333333333333333 [-]
	 SCS Opposite-Spin Scale   =       1.2000000000000000 [-]
	 SCS Same-Spin Energy      =      -0.1672749251512635 [Eh]
	 SCS Opposite-Spin Energy  =      -1.8488903578382392 [Eh]
	 SCS Correlation Energy    =      -2.0161652829895025 [Eh]
	 SCS Total Energy          =    -492.7228821497591866 [Eh]
	-----------------------------------------------------------

  Dipole Moment: [D]
     X:     1.4587      Y:     4.4404      Z:     0.0002     Total:     4.6739

*** Psi4 exiting successfully. Buy a developer a beer!
