                               Psi4 1.4a3.dev225

  ==> Input File <==

--------------------------------------------------------------------------
#psi4
#
memory 32 gb

molecule  {
0 1
  O        2.3212770    -1.3580180     0.0000020
  O       -2.2717460    -1.4962290     0.0000010
  N        1.1724310     0.6334210    -0.0000020
  N        0.0162060    -1.3769820    -0.0000020
  C       -1.2398930     0.6613320     0.0000000
  C       -0.0398910     1.2934770    -0.0000010
  C        1.2527440    -0.7526170    -0.0000010
  C       -1.3044308    -0.7757294     0.0000001
  C        2.4447950     1.3519700     0.0000010
  C       -2.5550880     1.3760200     0.0000010
  H        0.0310140     2.3780990    -0.0000010
  H        0.0457120    -2.3937650    -0.0000010
  H        2.2343430     2.4214070    -0.0000200
  H        3.0241620     1.0875710    -0.8862110
  H        3.0241420     1.0876020     0.8862360
  H       -3.1432670     1.0977880    -0.8790540
  H       -2.4120010     2.4600010     0.0000010
  H       -3.1432670     1.0977870     0.8790540
units angstrom
no_reorient  #important for SAPT in psi4, default
symmetry c1  #important for SAPT in psi4, default
}

set PROPERTIES_ORIGIN ["COM"]
properties('MP2/aug-cc-pvtz', properties = ['dipole'])
--------------------------------------------------------------------------

    Molecular point group: c1
  Charge       = 0
  Multiplicity = 1
  Basis Set: AUG-CC-PVTZ
    Blend: AUG-CC-PVTZ
  Basis Set: (AUG-CC-PVTZ AUX)
    Blend: AUG-CC-PVTZ-JKFIT

    Orbital Energies [Eh]
    ---------------------

    Doubly Occupied:

       1A    -20.545322     2A    -20.536243     3A    -15.637331
       4A    -15.616023     5A    -11.406334     6A    -11.376965
       7A    -11.329865     8A    -11.287673     9A    -11.255898
      10A    -11.237115    11A     -1.422433    12A     -1.401516
      13A     -1.304333    14A     -1.230743    15A     -1.111956
      16A     -0.993058    17A     -0.960172    18A     -0.914867
      19A     -0.843544    20A     -0.770165    21A     -0.729387
      22A     -0.695082    23A     -0.679961    24A     -0.652478
      25A     -0.635762    26A     -0.614772    27A     -0.612675
      28A     -0.589841    29A     -0.580353    30A     -0.557343
      31A     -0.550767    32A     -0.544459    33A     -0.490859
      34A     -0.475961    35A     -0.444260    36A     -0.427791
      37A     -0.345115

  @DF-RHF Final Energy:  -490.71062210113365

   => Energetics <=

    Nuclear Repulsion Energy =            530.5753461509480076
    One-Electron Energy =               -1720.9550942570019743
    Two-Electron Energy =                 699.6691260049203720
    Total Energy =                       -490.7106221011335947
  Basis Set: (AUG-CC-PVTZ AUX)
    Blend: AUG-CC-PVTZ-RI
    Molecular point group: c1

    Geometry (in Angstrom), charge = 0, multiplicity = 1:

       Center              X                  Y                   Z               Mass
    ------------   -----------------  -----------------  -----------------  -----------------
         O            2.322748995260    -1.294449028327     0.000002019965    15.994914619570
         O           -2.270274004740    -1.432660028327     0.000001019965    15.994914619570
         N            1.173902995260     0.696989971673    -0.000001980035    14.003074004430
         N            0.017677995260    -1.313413028327    -0.000001980035    14.003074004430
         C           -1.238421004740     0.724900971673     0.000000019965    12.000000000000
         C           -0.038419004740     1.357045971673    -0.000000980035    12.000000000000
         C            1.254215995260    -0.689048028327    -0.000000980035    12.000000000000
         C           -1.302958804740    -0.712160428327     0.000000119965    12.000000000000
         C            2.446266995260     1.415538971673     0.000001019965    12.000000000000
         C           -2.553616004740     1.439588971673     0.000001019965    12.000000000000
         H            0.032485995260     2.441667971673    -0.000000980035     1.007825032230
         H            0.047183995260    -2.330196028327    -0.000000980035     1.007825032230
         H            2.235814995260     2.484975971673    -0.000019980035     1.007825032230
         H            3.025633995260     1.151139971673    -0.886210980035     1.007825032230
         H            3.025613995260     1.151170971673     0.886236019965     1.007825032230
         H           -3.141795004740     1.161356971673    -0.879053980035     1.007825032230
         H           -2.410529004740     2.523569971673     0.000001019965     1.007825032230
         H           -3.141795004740     1.161355971673     0.879054019965     1.007825032230

  Basis Set: AUG-CC-PVTZ
    Blend: AUG-CC-PVTZ
  Basis Set: (AUG-CC-PVTZ AUX)
    Blend: AUG-CC-PVTZ-JKFIT
	 Reference Energy          =    -490.7106221011336515 [Eh]
	 Singles Energy            =      -0.0000000000000000 [Eh]
	 Same-Spin Energy          =      -0.5022039993044007 [Eh]
	 Opposite-Spin Energy      =      -1.5409349957075702 [Eh]
	 Correlation Energy        =      -2.0431389950119709 [Eh]
	 Total Energy              =    -492.7537610961456380 [Eh]

	 ================> DF-SCS-MP2 Energies <==================
	-----------------------------------------------------------
	 SCS Same-Spin Scale       =       0.3333333333333333 [-]
	 SCS Opposite-Spin Scale   =       1.2000000000000000 [-]
	 SCS Same-Spin Energy      =      -0.1674013331014669 [Eh]
	 SCS Opposite-Spin Energy  =      -1.8491219948490842 [Eh]
	 SCS Correlation Energy    =      -2.0165233279505510 [Eh]
	 SCS Total Energy          =    -492.7271454290842030 [Eh]
	-----------------------------------------------------------

  Dipole Moment: [D]
     X:     0.7666      Y:     4.5748      Z:    -0.0000     Total:     4.6386

*** Psi4 exiting successfully. Buy a developer a beer!
