                               Psi4 1.3.2 release

  ==> Input File <==

--------------------------------------------------------------------------
#psi4
#
memory 32 gb

molecule  {
0 1
  O        2.3111590    -1.3984000     0.0000580
  O       -2.2718830    -1.4902890    -0.0001310
  N        1.1826080     0.6255060     0.0000550
  N        0.0153410    -1.3761840    -0.0000340
  C       -1.2346770     0.6647280    -0.0000250
  C       -0.0319280     1.2897490     0.0000350
  C        1.2266725    -0.6965444     0.0000315
  C       -1.2542960    -0.7955090    -0.0000670
  C        2.4243390     1.3942650     0.0001240
  C       -2.5504790     1.3758010    -0.0000570
  H        0.0516650     2.3739750     0.0000690
  H       -0.0071089    -2.3937666    -0.0000631
  H        2.4800130     2.0209940     0.8935150
  H        2.4798690     2.0213500    -0.8930780
  H        3.2466700     0.6823050    -0.0000520
  H       -3.1375530     1.0948740    -0.8785960
  H       -2.4103180     2.4605130    -0.0000230
  H       -3.1376190     1.0948280     0.8784230
units angstrom
no_reorient  #important for SAPT in psi4, default
symmetry c1  #important for SAPT in psi4, default
}

set PROPERTIES_ORIGIN ["COM"]
properties('MP2/aug-cc-pvtz', properties = ['dipole'])
--------------------------------------------------------------------------

    Molecular point group: c1
  Charge       = 0
  Multiplicity = 1
  Basis Set: AUG-CC-PVTZ
    Blend: AUG-CC-PVTZ
  Basis Set: (AUG-CC-PVTZ AUX)
    Blend: AUG-CC-PVTZ-JKFIT

    Orbital Energies [Eh]
    ---------------------

    Doubly Occupied:

       1A    -20.540993     2A    -20.522132     3A    -15.648374
       4A    -15.627034     5A    -11.410669     6A    -11.376779
       7A    -11.328948     8A    -11.291245     9A    -11.267718
      10A    -11.241515    11A     -1.414574    12A     -1.381757
      13A     -1.298392    14A     -1.243429    15A     -1.114741
      16A     -1.004330    17A     -0.976175    18A     -0.917554
      19A     -0.853887    20A     -0.781779    21A     -0.737957
      22A     -0.694460    23A     -0.690063    24A     -0.655609
      25A     -0.617940    26A     -0.616525    27A     -0.607748
      28A     -0.595610    29A     -0.583310    30A     -0.559095
      31A     -0.551633    32A     -0.541800    33A     -0.483642
      34A     -0.463797    35A     -0.438452    36A     -0.424182
      37A     -0.353042

  @DF-RHF Final Energy:  -490.70062644713232

   => Energetics <=

    Nuclear Repulsion Energy =            530.9358079374159161
    One-Electron Energy =               -1721.5590901109251263
    Two-Electron Energy =                 699.9226557263770019
    Total Energy =                       -490.7006264471323220
  Basis Set: (AUG-CC-PVTZ AUX)
    Blend: AUG-CC-PVTZ-RI
    Molecular point group: c1

    Geometry (in Angstrom), charge = 0, multiplicity = 1:

       Center              X                  Y                   Z               Mass
    ------------   -----------------  -----------------  -----------------  -----------------
         O            2.311723179550    -1.337725514272     0.000059279030    15.994914619570
         O           -2.271318820450    -1.429614514272    -0.000129720970    15.994914619570
         N            1.183172179550     0.686180485728     0.000056279030    14.003074004430
         N            0.015905179550    -1.315509514272    -0.000032720970    14.003074004430
         C           -1.234112820450     0.725402485728    -0.000023720970    12.000000000000
         C           -0.031363820450     1.350423485728     0.000036279030    12.000000000000
         C            1.227236679550    -0.635869914272     0.000032779030    12.000000000000
         C           -1.253731820450    -0.734834514272    -0.000065720970    12.000000000000
         C            2.424903179550     1.454939485728     0.000125279030    12.000000000000
         C           -2.549914820450     1.436475485728    -0.000055720970    12.000000000000
         H            0.052229179550     2.434649485728     0.000070279030     1.007825032230
         H           -0.006544720450    -2.333092114272    -0.000061820970     1.007825032230
         H            2.480577179550     2.081668485728     0.893516279030     1.007825032230
         H            2.480433179550     2.082024485728    -0.893076720970     1.007825032230
         H            3.247234179550     0.742979485728    -0.000050720970     1.007825032230
         H           -3.136988820450     1.155548485728    -0.878594720970     1.007825032230
         H           -2.409753820450     2.521187485728    -0.000021720970     1.007825032230
         H           -3.137054820450     1.155502485728     0.878424279030     1.007825032230

  Basis Set: AUG-CC-PVTZ
    Blend: AUG-CC-PVTZ
  Basis Set: (AUG-CC-PVTZ AUX)
    Blend: AUG-CC-PVTZ-JKFIT
	 Reference Energy          =    -490.7006264471323220 [Eh]
	 Singles Energy            =      -0.0000000000000000 [Eh]
	 Same-Spin Energy          =      -0.5031422039656286 [Eh]
	 Opposite-Spin Energy      =      -1.5430834929257160 [Eh]
	 Correlation Energy        =      -2.0462256968913444 [Eh]
	 Total Energy              =    -492.7468521440236486 [Eh]

	 ================> DF-SCS-MP2 Energies <==================
	-----------------------------------------------------------
	 SCS Same-Spin Scale       =       0.3333333333333333 [-]
	 SCS Opposite-Spin Scale   =       1.2000000000000000 [-]
	 SCS Same-Spin Energy      =      -0.1677140679885429 [Eh]
	 SCS Opposite-Spin Energy  =      -1.8517001915108591 [Eh]
	 SCS Correlation Energy    =      -2.0194142594994018 [Eh]
	 SCS Total Energy          =    -492.7200407066317212 [Eh]
	-----------------------------------------------------------

  Dipole Moment: [D]
     X:     0.5459      Y:     5.0756      Z:     0.0002     Total:     5.1048

*** Psi4 exiting successfully. Buy a developer a beer!
