                               Psi4 1.4a3.dev225

  ==> Input File <==

--------------------------------------------------------------------------
#psi4
#
memory 32 gb

molecule  {
0 1
  O        2.3212770    -1.3580180     0.0000020
  O       -2.2717460    -1.4962290     0.0000010
  N        1.1724310     0.6334210    -0.0000020
  N        0.0162060    -1.3769820    -0.0000020
  C       -1.2398930     0.6613320     0.0000000
  C       -0.0398910     1.2934770    -0.0000010
  C        1.2527440    -0.7526170    -0.0000010
  C       -1.2586639    -0.7764487     0.0000000
  C        2.4447950     1.3519700     0.0000010
  C       -2.5550880     1.3760200     0.0000010
  H        0.0310140     2.3780990    -0.0000010
  H        0.0457120    -2.3937650    -0.0000010
  H        2.2343430     2.4214070    -0.0000200
  H        3.0241620     1.0875710    -0.8862110
  H        3.0241420     1.0876020     0.8862360
  H       -3.1432670     1.0977880    -0.8790540
  H       -2.4120010     2.4600010     0.0000010
  H       -3.1432670     1.0977870     0.8790540
units angstrom
no_reorient  #important for SAPT in psi4, default
symmetry c1  #important for SAPT in psi4, default
}

set PROPERTIES_ORIGIN ["COM"]
properties('MP2/aug-cc-pvtz', properties = ['dipole'])
--------------------------------------------------------------------------

    Molecular point group: c1
  Charge       = 0
  Multiplicity = 1
  Basis Set: AUG-CC-PVTZ
    Blend: AUG-CC-PVTZ
  Basis Set: (AUG-CC-PVTZ AUX)
    Blend: AUG-CC-PVTZ-JKFIT

    Orbital Energies [Eh]
    ---------------------

    Doubly Occupied:

       1A    -20.540846     2A    -20.535888     3A    -15.640238
       4A    -15.624420     5A    -11.411026     6A    -11.375809
       7A    -11.329629     8A    -11.289630     9A    -11.256989
      10A    -11.237104    11A     -1.424245    12A     -1.380055
      13A     -1.307141    14A     -1.240698    15A     -1.112353
      16A     -0.994562    17A     -0.962897    18A     -0.918348
      19A     -0.851130    20A     -0.772065    21A     -0.736683
      22A     -0.694677    23A     -0.683527    24A     -0.648581
      25A     -0.635987    26A     -0.612068    27A     -0.608131
      28A     -0.591588    29A     -0.581779    30A     -0.558352
      31A     -0.548574    32A     -0.537383    33A     -0.492985
      34A     -0.475768    35A     -0.443285    36A     -0.428146
      37A     -0.345395

  @DF-RHF Final Energy:  -490.71064655793163

   => Energetics <=

    Nuclear Repulsion Energy =            530.8021268815662097
    One-Electron Energy =               -1721.3695840026721271
    Two-Electron Energy =                 699.8568105631742355
    Total Energy =                       -490.7106465579316819
  Basis Set: (AUG-CC-PVTZ AUX)
    Blend: AUG-CC-PVTZ-RI
    Molecular point group: c1

    Geometry (in Angstrom), charge = 0, multiplicity = 1:

       Center              X                  Y                   Z               Mass
    ------------   -----------------  -----------------  -----------------  -----------------
         O            2.318827758804    -1.294387399827     0.000002028533    15.994914619570
         O           -2.274195241196    -1.432598399827     0.000001028533    15.994914619570
         N            1.169981758804     0.697051600173    -0.000001971467    14.003074004430
         N            0.013756758804    -1.313351399827    -0.000001971467    14.003074004430
         C           -1.242342241196     0.724962600173     0.000000028533    12.000000000000
         C           -0.042340241196     1.357107600173    -0.000000971467    12.000000000000
         C            1.250294758804    -0.688986399827    -0.000000971467    12.000000000000
         C           -1.261113141196    -0.712818099827     0.000000028533    12.000000000000
         C            2.442345758804     1.415600600173     0.000001028533    12.000000000000
         C           -2.557537241196     1.439650600173     0.000001028533    12.000000000000
         H            0.028564758804     2.441729600173    -0.000000971467     1.007825032230
         H            0.043262758804    -2.330134399827    -0.000000971467     1.007825032230
         H            2.231893758804     2.485037600173    -0.000019971467     1.007825032230
         H            3.021712758804     1.151201600173    -0.886210971467     1.007825032230
         H            3.021692758804     1.151232600173     0.886236028533     1.007825032230
         H           -3.145716241196     1.161418600173    -0.879053971467     1.007825032230
         H           -2.414450241196     2.523631600173     0.000001028533     1.007825032230
         H           -3.145716241196     1.161417600173     0.879054028533     1.007825032230

  Basis Set: AUG-CC-PVTZ
    Blend: AUG-CC-PVTZ
  Basis Set: (AUG-CC-PVTZ AUX)
    Blend: AUG-CC-PVTZ-JKFIT
	 Reference Energy          =    -490.7106465579316250 [Eh]
	 Singles Energy            =      -0.0000000000000000 [Eh]
	 Same-Spin Energy          =      -0.5028366524849154 [Eh]
	 Opposite-Spin Energy      =      -1.5420551359100729 [Eh]
	 Correlation Energy        =      -2.0448917883949882 [Eh]
	 Total Energy              =    -492.7555383463266026 [Eh]

	 ================> DF-SCS-MP2 Energies <==================
	-----------------------------------------------------------
	 SCS Same-Spin Scale       =       0.3333333333333333 [-]
	 SCS Opposite-Spin Scale   =       1.2000000000000000 [-]
	 SCS Same-Spin Energy      =      -0.1676122174949718 [Eh]
	 SCS Opposite-Spin Energy  =      -1.8504661630920873 [Eh]
	 SCS Correlation Energy    =      -2.0180783805870592 [Eh]
	 SCS Total Energy          =    -492.7287249385186669 [Eh]
	-----------------------------------------------------------

  Dipole Moment: [D]
     X:     1.1446      Y:     4.6267      Z:    -0.0000     Total:     4.7662

*** Psi4 exiting successfully. Buy a developer a beer!
