                               Psi4 1.3.2 release

  ==> Input File <==

--------------------------------------------------------------------------
#psi4
#
memory 32 gb

molecule  {
0 1
  O        2.3111590    -1.3984000     0.0000580
  O       -2.2657812    -1.4991426    -0.0001310
  N        1.1826080     0.6255060     0.0000550
  N        0.0153410    -1.3761840    -0.0000340
  C       -1.2219349     0.6645012    -0.0000245
  C       -0.0319280     1.2897490     0.0000350
  C        1.2605820    -0.7608720     0.0000310
  C       -1.2542960    -0.7955090    -0.0000670
  C        2.4243390     1.3942650     0.0001240
  C       -2.5504790     1.3758010    -0.0000570
  H        0.0516650     2.3739750     0.0000690
  H        0.0461780    -2.3935470    -0.0000610
  H        2.4800130     2.0209940     0.8935150
  H        2.4798690     2.0213500    -0.8930780
  H        3.2466700     0.6823050    -0.0000520
  H       -3.1375530     1.0948740    -0.8785960
  H       -2.4103180     2.4605130    -0.0000230
  H       -3.1376190     1.0948280     0.8784230
units angstrom
no_reorient  #important for SAPT in psi4, default
symmetry c1  #important for SAPT in psi4, default
}

set PROPERTIES_ORIGIN ["COM"]
properties('MP2/aug-cc-pvtz', properties = ['dipole'])
--------------------------------------------------------------------------

    Molecular point group: c1
  Charge       = 0
  Multiplicity = 1
  Basis Set: AUG-CC-PVTZ
    Blend: AUG-CC-PVTZ
  Basis Set: (AUG-CC-PVTZ AUX)
    Blend: AUG-CC-PVTZ-JKFIT

    Orbital Energies [Eh]
    ---------------------

    Doubly Occupied:

       1A    -20.540112     2A    -20.539272     3A    -15.637467
       4A    -15.623902     5A    -11.413265     6A    -11.376733
       7A    -11.323732     8A    -11.285685     9A    -11.259201
      10A    -11.238032    11A     -1.423914    12A     -1.387358
      13A     -1.306801    14A     -1.242422    15A     -1.109980
      16A     -0.992655    17A     -0.963221    18A     -0.914537
      19A     -0.853254    20A     -0.771591    21A     -0.734171
      22A     -0.693024    23A     -0.682089    24A     -0.649433
      25A     -0.637803    26A     -0.615451    27A     -0.609949
      28A     -0.587937    29A     -0.583444    30A     -0.552679
      31A     -0.549214    32A     -0.543342    33A     -0.488760
      34A     -0.475363    35A     -0.444584    36A     -0.430242
      37A     -0.347993

  @DF-RHF Final Energy:  -490.71227904523050

   => Energetics <=

    Nuclear Repulsion Energy =            530.4887790667995660
    One-Electron Energy =               -1720.7448867966973012
    Two-Electron Energy =                 699.5438286846673464
    Total Energy =                       -490.7122790452305026
  Basis Set: (AUG-CC-PVTZ AUX)
    Blend: AUG-CC-PVTZ-RI
    Molecular point group: c1

    Geometry (in Angstrom), charge = 0, multiplicity = 1:

       Center              X                  Y                   Z               Mass
    ------------   -----------------  -----------------  -----------------  -----------------
         O            2.306645869367    -1.331185079020     0.000059263919    15.994914619570
         O           -2.270294330633    -1.431927679020    -0.000129736081    15.994914619570
         N            1.178094869367     0.692720920980     0.000056263919    14.003074004430
         N            0.010827869367    -1.308969079020    -0.000032736081    14.003074004430
         C           -1.226448030633     0.731716120980    -0.000023236081    12.000000000000
         C           -0.036441130633     1.356963920980     0.000036263919    12.000000000000
         C            1.256068869367    -0.693657079020     0.000032263919    12.000000000000
         C           -1.258809130633    -0.728294079020    -0.000065736081    12.000000000000
         C            2.419825869367     1.461479920980     0.000125263919    12.000000000000
         C           -2.554992130633     1.443015920980    -0.000055736081    12.000000000000
         H            0.047151869367     2.441189920980     0.000070263919     1.007825032230
         H            0.041664869367    -2.326332079020    -0.000059736081     1.007825032230
         H            2.475499869367     2.088208920980     0.893516263919     1.007825032230
         H            2.475355869367     2.088564920980    -0.893076736081     1.007825032230
         H            3.242156869367     0.749519920980    -0.000050736081     1.007825032230
         H           -3.142066130633     1.162088920980    -0.878594736081     1.007825032230
         H           -2.414831130633     2.527727920980    -0.000021736081     1.007825032230
         H           -3.142132130633     1.162042920980     0.878424263919     1.007825032230

  Basis Set: AUG-CC-PVTZ
    Blend: AUG-CC-PVTZ
  Basis Set: (AUG-CC-PVTZ AUX)
    Blend: AUG-CC-PVTZ-JKFIT
	 Reference Energy          =    -490.7122790452305026 [Eh]
	 Singles Energy            =      -0.0000000000000000 [Eh]
	 Same-Spin Energy          =      -0.5021842868369115 [Eh]
	 Opposite-Spin Energy      =      -1.5411624720569819 [Eh]
	 Correlation Energy        =      -2.0433467588938932 [Eh]
	 Total Energy              =    -492.7556258041244064 [Eh]

	 ================> DF-SCS-MP2 Energies <==================
	-----------------------------------------------------------
	 SCS Same-Spin Scale       =       0.3333333333333333 [-]
	 SCS Opposite-Spin Scale   =       1.2000000000000000 [-]
	 SCS Same-Spin Energy      =      -0.1673947622789705 [Eh]
	 SCS Opposite-Spin Energy  =      -1.8493949664683782 [Eh]
	 SCS Correlation Energy    =      -2.0167897287473489 [Eh]
	 SCS Total Energy          =    -492.7290687739778718 [Eh]
	-----------------------------------------------------------

  Dipole Moment: [D]
     X:     1.0273      Y:     4.5359      Z:     0.0002     Total:     4.6508

*** Psi4 exiting successfully. Buy a developer a beer!
