                               Psi4 1.3.2 release

  ==> Input File <==

--------------------------------------------------------------------------
#psi4
#
memory 32 gb

molecule  {
0 1
  O        2.3111590    -1.3984000     0.0000580
  O       -2.2718830    -1.4902890    -0.0001310
  N        1.1826080     0.6255060     0.0000550
  N        0.0153410    -1.3761840    -0.0000340
  C       -1.2346770     0.6647280    -0.0000250
  C       -0.0319280     1.2897490     0.0000350
  C        1.2605820    -0.7608720     0.0000310
  C       -1.1778462    -0.7945346    -0.0000639
  C        2.4243390     1.3942650     0.0001240
  C       -2.5114611     1.4436903    -0.0000535
  H        0.0516650     2.3739750     0.0000690
  H        0.0461780    -2.3935470    -0.0000610
  H        2.4800130     2.0209940     0.8935150
  H        2.4798690     2.0213500    -0.8930780
  H        3.2466700     0.6823050    -0.0000520
  H       -3.1375530     1.0948740    -0.8785960
  H       -2.4103180     2.4605130    -0.0000230
  H       -3.1376190     1.0948280     0.8784230
units angstrom
no_reorient  #important for SAPT in psi4, default
symmetry c1  #important for SAPT in psi4, default
}

set PROPERTIES_ORIGIN ["COM"]
properties('MP2/aug-cc-pvtz', properties = ['dipole'])
--------------------------------------------------------------------------

    Molecular point group: c1
  Charge       = 0
  Multiplicity = 1
  Basis Set: AUG-CC-PVTZ
    Blend: AUG-CC-PVTZ
  Basis Set: (AUG-CC-PVTZ AUX)
    Blend: AUG-CC-PVTZ-JKFIT

    Orbital Energies [Eh]
    ---------------------

    Doubly Occupied:

       1A    -20.547814     2A    -20.523057     3A    -15.642621
       4A    -15.637832     5A    -11.420865     6A    -11.375813
       7A    -11.323220     8A    -11.289042     9A    -11.263324
      10A    -11.238560    11A     -1.432251    12A     -1.359789
      13A     -1.307561    14A     -1.254117    15A     -1.111018
      16A     -0.996644    17A     -0.967893    18A     -0.922969
      19A     -0.866596    20A     -0.773797    21A     -0.749519
      22A     -0.693191    23A     -0.688635    24A     -0.650187
      25A     -0.635229    26A     -0.619351    27A     -0.602297
      28A     -0.594245    29A     -0.570489    30A     -0.566487
      31A     -0.543514    32A     -0.533965    33A     -0.488691
      34A     -0.477280    35A     -0.435792    36A     -0.424696
      37A     -0.344134

  @DF-RHF Final Energy:  -490.69191987604853

   => Energetics <=

    Nuclear Repulsion Energy =            530.7324077028072224
    One-Electron Energy =               -1721.1036874684764371
    Two-Electron Energy =                 699.6793598896206277
    Total Energy =                       -490.6919198760485870
  Basis Set: (AUG-CC-PVTZ AUX)
    Blend: AUG-CC-PVTZ-RI
    Molecular point group: c1

    Geometry (in Angstrom), charge = 0, multiplicity = 1:

       Center              X                  Y                   Z               Mass
    ------------   -----------------  -----------------  -----------------  -----------------
         O            2.298541335892    -1.338115740414     0.000058741280    15.994914619570
         O           -2.284500664108    -1.430004740414    -0.000130258720    15.994914619570
         N            1.169990335892     0.685790259586     0.000055741280    14.003074004430
         N            0.002723335892    -1.315899740414    -0.000033258720    14.003074004430
         C           -1.247294664108     0.725012259586    -0.000024258720    12.000000000000
         C           -0.044545664108     1.350033259586     0.000035741280    12.000000000000
         C            1.247964335892    -0.700587740414     0.000031741280    12.000000000000
         C           -1.190463864108    -0.734250340414    -0.000063158720    12.000000000000
         C            2.411721335892     1.454549259586     0.000124741280    12.000000000000
         C           -2.524078764108     1.503974559586    -0.000052758720    12.000000000000
         H            0.039047335892     2.434259259586     0.000069741280     1.007825032230
         H            0.033560335892    -2.333262740414    -0.000060258720     1.007825032230
         H            2.467395335892     2.081278259586     0.893515741280     1.007825032230
         H            2.467251335892     2.081634259586    -0.893077258720     1.007825032230
         H            3.234052335892     0.742589259586    -0.000051258720     1.007825032230
         H           -3.150170664108     1.155158259586    -0.878595258720     1.007825032230
         H           -2.422935664108     2.520797259586    -0.000022258720     1.007825032230
         H           -3.150236664108     1.155112259586     0.878423741280     1.007825032230

  Basis Set: AUG-CC-PVTZ
    Blend: AUG-CC-PVTZ
  Basis Set: (AUG-CC-PVTZ AUX)
    Blend: AUG-CC-PVTZ-JKFIT
	 Reference Energy          =    -490.6919198760485301 [Eh]
	 Singles Energy            =      -0.0000000000000000 [Eh]
	 Same-Spin Energy          =      -0.5039754659510413 [Eh]
	 Opposite-Spin Energy      =      -1.5442431092709441 [Eh]
	 Correlation Energy        =      -2.0482185752219855 [Eh]
	 Total Energy              =    -492.7401384512705249 [Eh]

	 ================> DF-SCS-MP2 Energies <==================
	-----------------------------------------------------------
	 SCS Same-Spin Scale       =       0.3333333333333333 [-]
	 SCS Opposite-Spin Scale   =       1.2000000000000000 [-]
	 SCS Same-Spin Energy      =      -0.1679918219836804 [Eh]
	 SCS Opposite-Spin Energy  =      -1.8530917311251329 [Eh]
	 SCS Correlation Energy    =      -2.0210835531088134 [Eh]
	 SCS Total Energy          =    -492.7130034291573679 [Eh]
	-----------------------------------------------------------

  Dipole Moment: [D]
     X:     1.6425      Y:     4.6507      Z:     0.0002     Total:     4.9322

*** Psi4 exiting successfully. Buy a developer a beer!
