                               Psi4 1.3.2 release

  ==> Input File <==

--------------------------------------------------------------------------
#psi4
#
memory 32 gb

molecule  {
0 1
  O        2.3111590    -1.3984000     0.0000580
  O       -2.2718830    -1.4902890    -0.0001310
  N        1.1826080     0.6255060     0.0000550
  N        0.0153410    -1.3761840    -0.0000340
  C       -1.2346770     0.6647280    -0.0000250
  C       -0.0319280     1.2897490     0.0000350
  C        1.2605820    -0.7608720     0.0000310
  C       -1.2516091    -0.5955270    -0.0000612
  C        2.4243390     1.3942650     0.0001240
  C       -2.5504790     1.3758010    -0.0000570
  H        0.0516650     2.3739750     0.0000690
  H        0.0461780    -2.3935470    -0.0000610
  H        2.4800130     2.0209940     0.8935150
  H        2.4798690     2.0213500    -0.8930780
  H        3.2466700     0.6823050    -0.0000520
  H       -3.1375530     1.0948740    -0.8785960
  H       -2.4103180     2.4605130    -0.0000230
  H       -3.1376190     1.0948280     0.8784230
units angstrom
no_reorient  #important for SAPT in psi4, default
symmetry c1  #important for SAPT in psi4, default
}

set PROPERTIES_ORIGIN ["COM"]
properties('MP2/aug-cc-pvtz', properties = ['dipole'])
--------------------------------------------------------------------------

    Molecular point group: c1
  Charge       = 0
  Multiplicity = 1
  Basis Set: AUG-CC-PVTZ
    Blend: AUG-CC-PVTZ
  Basis Set: (AUG-CC-PVTZ AUX)
    Blend: AUG-CC-PVTZ-JKFIT

    Orbital Energies [Eh]
    ---------------------

    Doubly Occupied:

       1A    -20.538584     2A    -20.511053     3A    -15.658461
       4A    -15.618699     5A    -11.409179     6A    -11.368163
       7A    -11.362013     8A    -11.296720     9A    -11.251341
      10A    -11.243547    11A     -1.422160    12A     -1.330871
      13A     -1.301138    14A     -1.208995    15A     -1.151200
      16A     -1.005315    17A     -0.971142    18A     -0.952564
      19A     -0.838104    20A     -0.777620    21A     -0.743489
      22A     -0.704753    23A     -0.690100    24A     -0.644017
      25A     -0.640110    26A     -0.617097    27A     -0.603211
      28A     -0.589134    29A     -0.579508    30A     -0.560586
      31A     -0.545462    32A     -0.518852    33A     -0.494937
      34A     -0.471347    35A     -0.418919    36A     -0.410098
      37A     -0.357212

  @DF-RHF Final Energy:  -490.63730835318660

   => Energetics <=

    Nuclear Repulsion Energy =            531.1657415638796920
    One-Electron Energy =               -1721.9946948289186821
    Two-Electron Energy =                 700.1916449118524497
    Total Energy =                       -490.6373083531865404
  Basis Set: (AUG-CC-PVTZ AUX)
    Blend: AUG-CC-PVTZ-RI
    Molecular point group: c1

    Geometry (in Angstrom), charge = 0, multiplicity = 1:

       Center              X                  Y                   Z               Mass
    ------------   -----------------  -----------------  -----------------  -----------------
         O            2.308204218552    -1.349349751412     0.000058809823    15.994914619570
         O           -2.274837781448    -1.441238751412    -0.000130190177    15.994914619570
         N            1.179653218552     0.674556248588     0.000055809823    14.003074004430
         N            0.012386218552    -1.327133751412    -0.000033190177    14.003074004430
         C           -1.237631781448     0.713778248588    -0.000024190177    12.000000000000
         C           -0.034882781448     1.338799248588     0.000035809823    12.000000000000
         C            1.257627218552    -0.711821751412     0.000031809823    12.000000000000
         C           -1.254563881448    -0.546476751412    -0.000060390177    12.000000000000
         C            2.421384218552     1.443315248588     0.000124809823    12.000000000000
         C           -2.553433781448     1.424851248588    -0.000056190177    12.000000000000
         H            0.048710218552     2.423025248588     0.000069809823     1.007825032230
         H            0.043223218552    -2.344496751412    -0.000060190177     1.007825032230
         H            2.477058218552     2.070044248588     0.893515809823     1.007825032230
         H            2.476914218552     2.070400248588    -0.893077190177     1.007825032230
         H            3.243715218552     0.731355248588    -0.000051190177     1.007825032230
         H           -3.140507781448     1.143924248588    -0.878595190177     1.007825032230
         H           -2.413272781448     2.509563248588    -0.000022190177     1.007825032230
         H           -3.140573781448     1.143878248588     0.878423809823     1.007825032230

  Basis Set: AUG-CC-PVTZ
    Blend: AUG-CC-PVTZ
  Basis Set: (AUG-CC-PVTZ AUX)
    Blend: AUG-CC-PVTZ-JKFIT
	 Reference Energy          =    -490.6373083531865973 [Eh]
	 Singles Energy            =      -0.0000000000000000 [Eh]
	 Same-Spin Energy          =      -0.5083553036840847 [Eh]
	 Opposite-Spin Energy      =      -1.5514673914311707 [Eh]
	 Correlation Energy        =      -2.0598226951152556 [Eh]
	 Total Energy              =    -492.6971310483018556 [Eh]

	 ================> DF-SCS-MP2 Energies <==================
	-----------------------------------------------------------
	 SCS Same-Spin Scale       =       0.3333333333333333 [-]
	 SCS Opposite-Spin Scale   =       1.2000000000000000 [-]
	 SCS Same-Spin Energy      =      -0.1694517678946949 [Eh]
	 SCS Opposite-Spin Energy  =      -1.8617608697174048 [Eh]
	 SCS Correlation Energy    =      -2.0312126376120996 [Eh]
	 SCS Total Energy          =    -492.6685209907986973 [Eh]
	-----------------------------------------------------------

  Dipole Moment: [D]
     X:     1.5531      Y:     5.6464      Z:     0.0002     Total:     5.8561

*** Psi4 exiting successfully. Buy a developer a beer!
