                               Psi4 1.4a3.dev225

  ==> Input File <==

--------------------------------------------------------------------------
#psi4
#
memory 32 gb

molecule  {
0 1
  O        2.3212770    -1.3580180     0.0000020
  O       -2.2717460    -1.4962290     0.0000010
  N        1.1724310     0.6334210    -0.0000020
  N        0.0162060    -1.3769820    -0.0000020
  C       -1.2398930     0.6613320     0.0000000
  C       -0.0398910     1.2934770    -0.0000010
  C        1.2527440    -0.7526170    -0.0000010
  C       -1.2589250    -0.7964470     0.0000000
  C        2.4447950     1.3519700     0.0000010
  C       -2.5550880     1.3760200     0.0000010
  H        0.0323187     2.3980564    -0.0000010
  H        0.0457120    -2.3937650    -0.0000010
  H        2.2343430     2.4214070    -0.0000200
  H        3.0241620     1.0875710    -0.8862110
  H        3.0241420     1.0876020     0.8862360
  H       -3.1432670     1.0977880    -0.8790540
  H       -2.4120010     2.4600010     0.0000010
  H       -3.1432670     1.0977870     0.8790540
units angstrom
no_reorient  #important for SAPT in psi4, default
symmetry c1  #important for SAPT in psi4, default
}

set PROPERTIES_ORIGIN ["COM"]
properties('MP2/aug-cc-pvtz', properties = ['dipole'])
--------------------------------------------------------------------------

    Molecular point group: c1
  Charge       = 0
  Multiplicity = 1
  Basis Set: AUG-CC-PVTZ
    Blend: AUG-CC-PVTZ
  Basis Set: (AUG-CC-PVTZ AUX)
    Blend: AUG-CC-PVTZ-JKFIT

    Orbital Energies [Eh]
    ---------------------

    Doubly Occupied:

       1A    -20.541215     2A    -20.538100     3A    -15.638775
       4A    -15.624913     5A    -11.411665     6A    -11.376028
       7A    -11.328605     8A    -11.288691     9A    -11.257258
      10A    -11.236427    11A     -1.424995    12A     -1.387330
      13A     -1.306556    14A     -1.243618    15A     -1.108436
      16A     -0.993664    17A     -0.961805    18A     -0.913814
      19A     -0.853018    20A     -0.770729    21A     -0.735256
      22A     -0.690864    23A     -0.683146    24A     -0.650260
      25A     -0.636113    26A     -0.612739    27A     -0.607821
      28A     -0.590912    29A     -0.581325    30A     -0.557985
      31A     -0.547871    32A     -0.540218    33A     -0.492108
      34A     -0.475445    35A     -0.444268    36A     -0.430376
      37A     -0.343943

  @DF-RHF Final Energy:  -490.71183049139518

   => Energetics <=

    Nuclear Repulsion Energy =            530.6403693864189108
    One-Electron Energy =               -1721.0518146966519453
    Two-Electron Energy =                 699.6996148188377447
    Total Energy =                       -490.7118304913951761
  Basis Set: (AUG-CC-PVTZ AUX)
    Blend: AUG-CC-PVTZ-RI
    Molecular point group: c1

    Geometry (in Angstrom), charge = 0, multiplicity = 1:

       Center              X                  Y                   Z               Mass
    ------------   -----------------  -----------------  -----------------  -----------------
         O            2.318840741163    -1.292817584993     0.000002028533    15.994914619570
         O           -2.274182258837    -1.431028584993     0.000001028533    15.994914619570
         N            1.169994741163     0.698621415007    -0.000001971467    14.003074004430
         N            0.013769741163    -1.311781584993    -0.000001971467    14.003074004430
         C           -1.242329258837     0.726532415007     0.000000028533    12.000000000000
         C           -0.042327258837     1.358677415007    -0.000000971467    12.000000000000
         C            1.250307741163    -0.687416584993    -0.000000971467    12.000000000000
         C           -1.261361258837    -0.731246584993     0.000000028533    12.000000000000
         C            2.442358741163     1.417170415007     0.000001028533    12.000000000000
         C           -2.557524258837     1.441220415007     0.000001028533    12.000000000000
         H            0.029882441163     2.463256815007    -0.000000971467     1.007825032230
         H            0.043275741163    -2.328564584993    -0.000000971467     1.007825032230
         H            2.231906741163     2.486607415007    -0.000019971467     1.007825032230
         H            3.021725741163     1.152771415007    -0.886210971467     1.007825032230
         H            3.021705741163     1.152802415007     0.886236028533     1.007825032230
         H           -3.145703258837     1.162988415007    -0.879053971467     1.007825032230
         H           -2.414437258837     2.525201415007     0.000001028533     1.007825032230
         H           -3.145703258837     1.162987415007     0.879054028533     1.007825032230

  Basis Set: AUG-CC-PVTZ
    Blend: AUG-CC-PVTZ
  Basis Set: (AUG-CC-PVTZ AUX)
    Blend: AUG-CC-PVTZ-JKFIT
	 Reference Energy          =    -490.7118304913951761 [Eh]
	 Singles Energy            =      -0.0000000000000000 [Eh]
	 Same-Spin Energy          =      -0.5024398666669525 [Eh]
	 Opposite-Spin Energy      =      -1.5414752884475167 [Eh]
	 Correlation Energy        =      -2.0439151551144690 [Eh]
	 Total Energy              =    -492.7557456465096379 [Eh]

	 ================> DF-SCS-MP2 Energies <==================
	-----------------------------------------------------------
	 SCS Same-Spin Scale       =       0.3333333333333333 [-]
	 SCS Opposite-Spin Scale   =       1.2000000000000000 [-]
	 SCS Same-Spin Energy      =      -0.1674799555556508 [Eh]
	 SCS Opposite-Spin Energy  =      -1.8497703461370198 [Eh]
	 SCS Correlation Energy    =      -2.0172503016926706 [Eh]
	 SCS Total Energy          =    -492.7290807930878600 [Eh]
	-----------------------------------------------------------

  Dipole Moment: [D]
     X:     1.0974      Y:     4.5077      Z:    -0.0000     Total:     4.6393

*** Psi4 exiting successfully. Buy a developer a beer!
