                               Psi4 1.3.2 release

  ==> Input File <==

--------------------------------------------------------------------------
#psi4
#
memory 32 gb

molecule  {
0 1
  O        2.3111590    -1.3984000     0.0000580
  O       -2.2718830    -1.4902890    -0.0001310
  N        1.1826080     0.6255060     0.0000550
  N        0.0102254    -1.3872414    -0.0000345
  C       -1.2474206     0.6648436    -0.0000255
  C       -0.0319280     1.2897490     0.0000350
  C        1.2605820    -0.7608720     0.0000310
  C       -1.2542960    -0.7955090    -0.0000670
  C        2.4243390     1.3942650     0.0001240
  C       -2.5504790     1.3758010    -0.0000570
  H        0.0516650     2.3739750     0.0000690
  H        0.0461780    -2.3935470    -0.0000610
  H        2.4800130     2.0209940     0.8935150
  H        2.4798690     2.0213500    -0.8930780
  H        3.2466700     0.6823050    -0.0000520
  H       -3.1375530     1.0948740    -0.8785960
  H       -2.4103180     2.4605130    -0.0000230
  H       -3.1376190     1.0948280     0.8784230
units angstrom
no_reorient  #important for SAPT in psi4, default
symmetry c1  #important for SAPT in psi4, default
}

set PROPERTIES_ORIGIN ["COM"]
properties('MP2/aug-cc-pvtz', properties = ['dipole'])
--------------------------------------------------------------------------

    Molecular point group: c1
  Charge       = 0
  Multiplicity = 1
  Basis Set: AUG-CC-PVTZ
    Blend: AUG-CC-PVTZ
  Basis Set: (AUG-CC-PVTZ AUX)
    Blend: AUG-CC-PVTZ-JKFIT

    Orbital Energies [Eh]
    ---------------------

    Doubly Occupied:

       1A    -20.541488     2A    -20.536702     3A    -15.639498
       4A    -15.623771     5A    -11.414789     6A    -11.375049
       7A    -11.326643     8A    -11.286658     9A    -11.260812
      10A    -11.236639    11A     -1.423695    12A     -1.386378
      13A     -1.306615    14A     -1.241890    15A     -1.108545
      16A     -0.993938    17A     -0.964139    18A     -0.914258
      19A     -0.850357    20A     -0.769831    21A     -0.737795
      22A     -0.692370    23A     -0.681814    24A     -0.649581
      25A     -0.637565    26A     -0.615536    27A     -0.609686
      28A     -0.589988    29A     -0.584506    30A     -0.558832
      31A     -0.547272    32A     -0.543112    33A     -0.487535
      34A     -0.475499    35A     -0.443261    36A     -0.429936
      37A     -0.344155

  @DF-RHF Final Energy:  -490.71130689287008

   => Energetics <=

    Nuclear Repulsion Energy =            530.0333628490440105
    One-Electron Energy =               -1719.8290625404918046
    Two-Electron Energy =                 699.0843927985775963
    Total Energy =                       -490.7113068928700841
  Basis Set: (AUG-CC-PVTZ AUX)
    Blend: AUG-CC-PVTZ-RI
    Molecular point group: c1

    Geometry (in Angstrom), charge = 0, multiplicity = 1:

       Center              X                  Y                   Z               Mass
    ------------   -----------------  -----------------  -----------------  -----------------
         O            2.310037737997    -1.331119990436     0.000059399587    15.994914619570
         O           -2.273004262003    -1.423008990436    -0.000129600413    15.994914619570
         N            1.181486737997     0.692786009564     0.000056399587    14.003074004430
         N            0.009104137997    -1.319961390436    -0.000033100413    14.003074004430
         C           -1.248541862003     0.732123609564    -0.000024100413    12.000000000000
         C           -0.033049262003     1.357029009564     0.000036399587    12.000000000000
         C            1.259460737997    -0.693591990436     0.000032399587    12.000000000000
         C           -1.255417262003    -0.728228990436    -0.000065600413    12.000000000000
         C            2.423217737997     1.461545009564     0.000125399587    12.000000000000
         C           -2.551600262003     1.443081009564    -0.000055600413    12.000000000000
         H            0.050543737997     2.441255009564     0.000070399587     1.007825032230
         H            0.045056737997    -2.326266990436    -0.000059600413     1.007825032230
         H            2.478891737997     2.088274009564     0.893516399587     1.007825032230
         H            2.478747737997     2.088630009564    -0.893076600413     1.007825032230
         H            3.245548737997     0.749585009564    -0.000050600413     1.007825032230
         H           -3.138674262003     1.162154009564    -0.878594600413     1.007825032230
         H           -2.411439262003     2.527793009564    -0.000021600413     1.007825032230
         H           -3.138740262003     1.162108009564     0.878424399587     1.007825032230

  Basis Set: AUG-CC-PVTZ
    Blend: AUG-CC-PVTZ
  Basis Set: (AUG-CC-PVTZ AUX)
    Blend: AUG-CC-PVTZ-JKFIT
	 Reference Energy          =    -490.7113068928700841 [Eh]
	 Singles Energy            =      -0.0000000000000000 [Eh]
	 Same-Spin Energy          =      -0.5024219255350604 [Eh]
	 Opposite-Spin Energy      =      -1.5416081430338111 [Eh]
	 Correlation Energy        =      -2.0440300685688717 [Eh]
	 Total Energy              =    -492.7553369614389567 [Eh]

	 ================> DF-SCS-MP2 Energies <==================
	-----------------------------------------------------------
	 SCS Same-Spin Scale       =       0.3333333333333333 [-]
	 SCS Opposite-Spin Scale   =       1.2000000000000000 [-]
	 SCS Same-Spin Energy      =      -0.1674739751783534 [Eh]
	 SCS Opposite-Spin Energy  =      -1.8499297716405732 [Eh]
	 SCS Correlation Energy    =      -2.0174037468189265 [Eh]
	 SCS Total Energy          =    -492.7287106396889840 [Eh]
	-----------------------------------------------------------

  Dipole Moment: [D]
     X:     1.0890      Y:     4.5537      Z:     0.0002     Total:     4.6821

*** Psi4 exiting successfully. Buy a developer a beer!
