                               Psi4 1.3.2 release

  ==> Input File <==

--------------------------------------------------------------------------
#psi4
#
memory 32 gb

molecule  {
0 1
  O        2.3111590    -1.3984000     0.0000580
  O       -2.2718830    -1.4902890    -0.0001310
  N        1.1826080     0.6255060     0.0000550
  N        0.0153410    -1.3761840    -0.0000340
  C       -1.2346770     0.6647280    -0.0000250
  C       -0.0319280     1.2897490     0.0000350
  C        1.2605820    -0.7608720     0.0000310
  C       -1.2542960    -0.7955090    -0.0000670
  C        2.4243390     1.3942650     0.0001240
  C       -2.5504790     1.3758010    -0.0000570
  H        0.0516650     2.3739750     0.0000690
  H        0.0522374    -2.5934552    -0.0000663
  H        2.4800130     2.0209940     0.8935150
  H        2.4798690     2.0213500    -0.8930780
  H        3.2466700     0.6823050    -0.0000520
  H       -3.1375530     1.0948740    -0.8785960
  H       -2.4103180     2.4605130    -0.0000230
  H       -3.1376190     1.0948280     0.8784230
units angstrom
no_reorient  #important for SAPT in psi4, default
symmetry c1  #important for SAPT in psi4, default
}

set PROPERTIES_ORIGIN ["COM"]
properties('MP2/aug-cc-pvtz', properties = ['dipole'])
--------------------------------------------------------------------------

    Molecular point group: c1
  Charge       = 0
  Multiplicity = 1
  Basis Set: AUG-CC-PVTZ
    Blend: AUG-CC-PVTZ
  Basis Set: (AUG-CC-PVTZ AUX)
    Blend: AUG-CC-PVTZ-JKFIT

    Orbital Energies [Eh]
    ---------------------

    Doubly Occupied:

       1A    -20.538012     2A    -20.536189     3A    -15.637228
       4A    -15.636036     5A    -11.411779     6A    -11.374527
       7A    -11.323691     8A    -11.285082     9A    -11.259021
      10A    -11.236441    11A     -1.419909    12A     -1.384175
      13A     -1.305030    14A     -1.227001    15A     -1.106692
      16A     -0.990888    17A     -0.961771    18A     -0.903272
      19A     -0.849401    20A     -0.766610    21A     -0.708353
      22A     -0.680409    23A     -0.679608    24A     -0.641850
      25A     -0.634966    26A     -0.613632    27A     -0.602441
      28A     -0.587266    29A     -0.582625    30A     -0.551103
      31A     -0.544969    32A     -0.541269    33A     -0.486546
      34A     -0.473661    35A     -0.442094    36A     -0.426218
      37A     -0.344818

  @DF-RHF Final Energy:  -490.68206905341162

   => Energetics <=

    Nuclear Repulsion Energy =            529.2101012127432114
    One-Electron Energy =               -1718.3951770973860675
    Two-Electron Energy =                 698.5030068312312324
    Total Energy =                       -490.6820690534116238
  Basis Set: (AUG-CC-PVTZ AUX)
    Blend: AUG-CC-PVTZ-RI
    Molecular point group: c1

    Geometry (in Angstrom), charge = 0, multiplicity = 1:

       Center              X                  Y                   Z               Mass
    ------------   -----------------  -----------------  -----------------  -----------------
         O            2.308390826080    -1.330777118915     0.000059344896    15.994914619570
         O           -2.274651173920    -1.422666118915    -0.000129655104    15.994914619570
         N            1.179839826080     0.693128881085     0.000056344896    14.003074004430
         N            0.012572826080    -1.308561118915    -0.000032655104    14.003074004430
         C           -1.237445173920     0.732350881085    -0.000023655104    12.000000000000
         C           -0.034696173920     1.357371881085     0.000036344896    12.000000000000
         C            1.257813826080    -0.693249118915     0.000032344896    12.000000000000
         C           -1.257064173920    -0.727886118915    -0.000065655104    12.000000000000
         C            2.421570826080     1.461887881085     0.000125344896    12.000000000000
         C           -2.553247173920     1.443423881085    -0.000055655104    12.000000000000
         H            0.048896826080     2.441597881085     0.000070344896     1.007825032230
         H            0.049469226080    -2.525832318915    -0.000064955104     1.007825032230
         H            2.477244826080     2.088616881085     0.893516344896     1.007825032230
         H            2.477100826080     2.088972881085    -0.893076655104     1.007825032230
         H            3.243901826080     0.749927881085    -0.000050655104     1.007825032230
         H           -3.140321173920     1.162496881085    -0.878594655104     1.007825032230
         H           -2.413086173920     2.528135881085    -0.000021655104     1.007825032230
         H           -3.140387173920     1.162450881085     0.878424344896     1.007825032230

  Basis Set: AUG-CC-PVTZ
    Blend: AUG-CC-PVTZ
  Basis Set: (AUG-CC-PVTZ AUX)
    Blend: AUG-CC-PVTZ-JKFIT
	 Reference Energy          =    -490.6820690534116238 [Eh]
	 Singles Energy            =      -0.0000000000000000 [Eh]
	 Same-Spin Energy          =      -0.5042285813877265 [Eh]
	 Opposite-Spin Energy      =      -1.5456872819361505 [Eh]
	 Correlation Energy        =      -2.0499158633238768 [Eh]
	 Total Energy              =    -492.7319849167354846 [Eh]

	 ================> DF-SCS-MP2 Energies <==================
	-----------------------------------------------------------
	 SCS Same-Spin Scale       =       0.3333333333333333 [-]
	 SCS Opposite-Spin Scale   =       1.2000000000000000 [-]
	 SCS Same-Spin Energy      =      -0.1680761937959088 [Eh]
	 SCS Opposite-Spin Energy  =      -1.8548247383233805 [Eh]
	 SCS Correlation Energy    =      -2.0229009321192892 [Eh]
	 SCS Total Energy          =    -492.7049699855309086 [Eh]
	-----------------------------------------------------------

  Dipole Moment: [D]
     X:     1.0510      Y:     4.2681      Z:     0.0002     Total:     4.3956

*** Psi4 exiting successfully. Buy a developer a beer!
