                               Psi4 1.3.2 release

  ==> Input File <==

--------------------------------------------------------------------------
#psi4
#
memory 32 gb

molecule  {
0 1
  O        2.3111590    -1.3984000     0.0000580
  O       -2.2718830    -1.4902890    -0.0001310
  N        1.1701829     0.6472697    -0.0443359
  N        0.0153410    -1.3761840    -0.0000340
  C       -1.2346770     0.6647280    -0.0000250
  C       -0.0319280     1.2897490     0.0000350
  C        1.2605820    -0.7608720     0.0000310
  C       -1.2542960    -0.7955090    -0.0000670
  C        2.4243390     1.3942650     0.0001240
  C       -2.5504790     1.3758010    -0.0000570
  H        0.0516650     2.3739750     0.0000690
  H        0.0461780    -2.3935470    -0.0000610
  H        2.4800130     2.0209940     0.8935150
  H        2.4459981     2.0076285    -0.9040027
  H        3.2466700     0.6823050    -0.0000520
  H       -3.1375530     1.0948740    -0.8785960
  H       -2.4103180     2.4605130    -0.0000230
  H       -3.1376190     1.0948280     0.8784230
units angstrom
no_reorient  #important for SAPT in psi4, default
symmetry c1  #important for SAPT in psi4, default
}

set PROPERTIES_ORIGIN ["COM"]
properties('MP2/aug-cc-pvtz', properties = ['dipole'])
--------------------------------------------------------------------------

    Molecular point group: c1
  Charge       = 0
  Multiplicity = 1
  Basis Set: AUG-CC-PVTZ
    Blend: AUG-CC-PVTZ
  Basis Set: (AUG-CC-PVTZ AUX)
    Blend: AUG-CC-PVTZ-JKFIT

    Orbital Energies [Eh]
    ---------------------

    Doubly Occupied:

       1A    -20.545122     2A    -20.537209     3A    -15.638439
       4A    -15.625475     5A    -11.417409     6A    -11.375083
       7A    -11.323343     8A    -11.286628     9A    -11.256378
      10A    -11.235517    11A     -1.424501    12A     -1.386370
      13A     -1.309861    14A     -1.244037    15A     -1.107243
      16A     -0.993957    17A     -0.960393    18A     -0.913799
      19A     -0.854076    20A     -0.769833    21A     -0.734016
      22A     -0.693610    23A     -0.682786    24A     -0.650800
      25A     -0.638543    26A     -0.617045    27A     -0.608874
      28A     -0.586275    29A     -0.582937    30A     -0.556035
      31A     -0.547157    32A     -0.542566    33A     -0.491800
      34A     -0.476682    35A     -0.443915    36A     -0.431020
      37A     -0.342543

  @DF-RHF Final Energy:  -490.70961919733975

   => Energetics <=

    Nuclear Repulsion Energy =            530.3206445250179968
    One-Electron Energy =               -1720.3979743162392424
    Two-Electron Energy =                 699.3677105938814975
    Total Energy =                       -490.7096191973397481
  Basis Set: (AUG-CC-PVTZ AUX)
    Blend: AUG-CC-PVTZ-RI
    Molecular point group: c1

    Geometry (in Angstrom), charge = 0, multiplicity = 1:

       Center              X                  Y                   Z               Mass
    ------------   -----------------  -----------------  -----------------  -----------------
         O            2.309920417159    -1.334292807332     0.004576125758    15.994914619570
         O           -2.273121582841    -1.426181807332     0.004387125758    15.994914619570
         N            1.168944317159     0.711376892668    -0.039817774242    14.003074004430
         N            0.014102417159    -1.312076807332     0.004484125758    14.003074004430
         C           -1.235915582841     0.728835192668     0.004493125758    12.000000000000
         C           -0.033166582841     1.353856192668     0.004553125758    12.000000000000
         C            1.259343417159    -0.696764807332     0.004549125758    12.000000000000
         C           -1.255534582841    -0.731401807332     0.004451125758    12.000000000000
         C            2.423100417159     1.458372192668     0.004642125758    12.000000000000
         C           -2.551717582841     1.439908192668     0.004461125758    12.000000000000
         H            0.050426417159     2.438082192668     0.004587125758     1.007825032230
         H            0.044939417159    -2.329439807332     0.004457125758     1.007825032230
         H            2.478774417159     2.085101192668     0.898033125758     1.007825032230
         H            2.444759517159     2.071735692668    -0.899484574242     1.007825032230
         H            3.245431417159     0.746412192668     0.004466125758     1.007825032230
         H           -3.138791582841     1.158981192668    -0.874077874242     1.007825032230
         H           -2.411556582841     2.524620192668     0.004495125758     1.007825032230
         H           -3.138857582841     1.158935192668     0.882941125758     1.007825032230

  Basis Set: AUG-CC-PVTZ
    Blend: AUG-CC-PVTZ
  Basis Set: (AUG-CC-PVTZ AUX)
    Blend: AUG-CC-PVTZ-JKFIT
	 Reference Energy          =    -490.7096191973397481 [Eh]
	 Singles Energy            =      -0.0000000000000000 [Eh]
	 Same-Spin Energy          =      -0.5027900856887029 [Eh]
	 Opposite-Spin Energy      =      -1.5419754139263029 [Eh]
	 Correlation Energy        =      -2.0447654996150058 [Eh]
	 Total Energy              =    -492.7543846969547303 [Eh]

	 ================> DF-SCS-MP2 Energies <==================
	-----------------------------------------------------------
	 SCS Same-Spin Scale       =       0.3333333333333333 [-]
	 SCS Opposite-Spin Scale   =       1.2000000000000000 [-]
	 SCS Same-Spin Energy      =      -0.1675966952295676 [Eh]
	 SCS Opposite-Spin Energy  =      -1.8503704967115633 [Eh]
	 SCS Correlation Energy    =      -2.0179671919411311 [Eh]
	 SCS Total Energy          =    -492.7275863892808729 [Eh]
	-----------------------------------------------------------

  Dipole Moment: [D]
     X:     1.2086      Y:     4.4227      Z:     0.0330     Total:     4.5850

*** Psi4 exiting successfully. Buy a developer a beer!
