                               Psi4 1.3.2 release

  ==> Input File <==

--------------------------------------------------------------------------
#psi4
#
memory 32 gb

molecule  {
0 1
  O        2.3111590    -1.3984000     0.0000580
  O       -2.2779073    -1.4813825    -0.0001310
  N        1.1826080     0.6255060     0.0000550
  N        0.0153410    -1.3761840    -0.0000340
  C       -1.2474206     0.6648436    -0.0000256
  C       -0.0319280     1.2897490     0.0000350
  C        1.2605820    -0.7608720     0.0000310
  C       -1.2542960    -0.7955090    -0.0000670
  C        2.4243390     1.3942650     0.0001240
  C       -2.5504790     1.3758010    -0.0000570
  H        0.0516650     2.3739750     0.0000690
  H        0.0461780    -2.3935470    -0.0000610
  H        2.4800130     2.0209940     0.8935150
  H        2.4798690     2.0213500    -0.8930780
  H        3.2466700     0.6823050    -0.0000520
  H       -3.1375530     1.0948740    -0.8785960
  H       -2.4103180     2.4605130    -0.0000230
  H       -3.1376190     1.0948280     0.8784230
units angstrom
no_reorient  #important for SAPT in psi4, default
symmetry c1  #important for SAPT in psi4, default
}

set PROPERTIES_ORIGIN ["COM"]
properties('MP2/aug-cc-pvtz', properties = ['dipole'])
--------------------------------------------------------------------------

    Molecular point group: c1
  Charge       = 0
  Multiplicity = 1
  Basis Set: AUG-CC-PVTZ
    Blend: AUG-CC-PVTZ
  Basis Set: (AUG-CC-PVTZ AUX)
    Blend: AUG-CC-PVTZ-JKFIT

    Orbital Energies [Eh]
    ---------------------

    Doubly Occupied:

       1A    -20.540909     2A    -20.537846     3A    -15.638887
       4A    -15.625324     5A    -11.414157     6A    -11.375741
       7A    -11.326133     8A    -11.286248     9A    -11.260120
      10A    -11.236235    11A     -1.424288    12A     -1.386685
      13A     -1.306773    14A     -1.243405    15A     -1.108159
      16A     -0.993642    17A     -0.964459    18A     -0.913995
      19A     -0.852248    20A     -0.769794    21A     -0.735686
      22A     -0.691512    23A     -0.682256    24A     -0.649566
      25A     -0.637746    26A     -0.615901    27A     -0.609647
      28A     -0.589677    29A     -0.584594    30A     -0.558029
      31A     -0.546838    32A     -0.543042    33A     -0.487285
      34A     -0.475265    35A     -0.444031    36A     -0.430953
      37A     -0.343790

  @DF-RHF Final Energy:  -490.71114810955993

   => Energetics <=

    Nuclear Repulsion Energy =            530.2732614636810240
    One-Electron Energy =               -1720.3070891828451749
    Two-Electron Energy =                 699.3226796096041653
    Total Energy =                       -490.7111481095598720
  Basis Set: (AUG-CC-PVTZ AUX)
    Blend: AUG-CC-PVTZ-RI
    Molecular point group: c1

    Geometry (in Angstrom), charge = 0, multiplicity = 1:

       Center              X                  Y                   Z               Mass
    ------------   -----------------  -----------------  -----------------  -----------------
         O            2.310214264414    -1.333242647276     0.000059358165    15.994914619570
         O           -2.278852035586    -1.416225147276    -0.000129641835    15.994914619570
         N            1.181663264414     0.690663352724     0.000056358165    14.003074004430
         N            0.014396264414    -1.311026647276    -0.000032641835    14.003074004430
         C           -1.248365335586     0.730000952724    -0.000024241835    12.000000000000
         C           -0.032872735586     1.354906352724     0.000036358165    12.000000000000
         C            1.259637264414    -0.695714647276     0.000032358165    12.000000000000
         C           -1.255240735586    -0.730351647276    -0.000065641835    12.000000000000
         C            2.423394264414     1.459422352724     0.000125358165    12.000000000000
         C           -2.551423735586     1.440958352724    -0.000055641835    12.000000000000
         H            0.050720264414     2.439132352724     0.000070358165     1.007825032230
         H            0.045233264414    -2.328389647276    -0.000059641835     1.007825032230
         H            2.479068264414     2.086151352724     0.893516358165     1.007825032230
         H            2.478924264414     2.086507352724    -0.893076641835     1.007825032230
         H            3.245725264414     0.747462352724    -0.000050641835     1.007825032230
         H           -3.138497735586     1.160031352724    -0.878594641835     1.007825032230
         H           -2.411262735586     2.525670352724    -0.000021641835     1.007825032230
         H           -3.138563735586     1.159985352724     0.878424358165     1.007825032230

  Basis Set: AUG-CC-PVTZ
    Blend: AUG-CC-PVTZ
  Basis Set: (AUG-CC-PVTZ AUX)
    Blend: AUG-CC-PVTZ-JKFIT
	 Reference Energy          =    -490.7111481095599288 [Eh]
	 Singles Energy            =      -0.0000000000000000 [Eh]
	 Same-Spin Energy          =      -0.5026112421354582 [Eh]
	 Opposite-Spin Energy      =      -1.5417986961623011 [Eh]
	 Correlation Energy        =      -2.0444099382977594 [Eh]
	 Total Energy              =    -492.7555580478576758 [Eh]

	 ================> DF-SCS-MP2 Energies <==================
	-----------------------------------------------------------
	 SCS Same-Spin Scale       =       0.3333333333333333 [-]
	 SCS Opposite-Spin Scale   =       1.2000000000000000 [-]
	 SCS Same-Spin Energy      =      -0.1675370807118194 [Eh]
	 SCS Opposite-Spin Energy  =      -1.8501584353947613 [Eh]
	 SCS Correlation Energy    =      -2.0176955161065808 [Eh]
	 SCS Total Energy          =    -492.7288436256665136 [Eh]
	-----------------------------------------------------------

  Dipole Moment: [D]
     X:     1.0670      Y:     4.5083      Z:     0.0002     Total:     4.6328

*** Psi4 exiting successfully. Buy a developer a beer!
