                               Psi4 1.4a3.dev225

  ==> Input File <==

--------------------------------------------------------------------------
#psi4
#
memory 32 gb

molecule  {
0 1
  O        2.3212770    -1.3580180     0.0000020
  O       -2.2717460    -1.4962290     0.0000010
  N        1.1724310     0.6334210    -0.0000020
  N        0.0162060    -1.3769820    -0.0000020
  C       -1.2398930     0.6613320     0.0000000
  C       -0.0398910     1.2934770    -0.0000010
  C        1.2348908    -0.7616316    -0.0000010
  C       -1.2589250    -0.7964470     0.0000000
  C        2.4447950     1.3519700     0.0000010
  C       -2.5550880     1.3760200     0.0000010
  H        0.0310140     2.3780990    -0.0000010
  H        0.0457120    -2.3937650    -0.0000010
  H        2.2343430     2.4214070    -0.0000200
  H        3.0241620     1.0875710    -0.8862110
  H        3.0241420     1.0876020     0.8862360
  H       -3.1432670     1.0977880    -0.8790540
  H       -2.4120010     2.4600010     0.0000010
  H       -3.1432670     1.0977870     0.8790540
units angstrom
no_reorient  #important for SAPT in psi4, default
symmetry c1  #important for SAPT in psi4, default
}

set PROPERTIES_ORIGIN ["COM"]
properties('MP2/aug-cc-pvtz', properties = ['dipole'])
--------------------------------------------------------------------------

    Molecular point group: c1
  Charge       = 0
  Multiplicity = 1
  Basis Set: AUG-CC-PVTZ
    Blend: AUG-CC-PVTZ
  Basis Set: (AUG-CC-PVTZ AUX)
    Blend: AUG-CC-PVTZ-JKFIT

    Orbital Energies [Eh]
    ---------------------

    Doubly Occupied:

       1A    -20.539905     2A    -20.538294     3A    -15.638350
       4A    -15.628143     5A    -11.411482     6A    -11.377788
       7A    -11.326730     8A    -11.288230     9A    -11.257088
      10A    -11.236721    11A     -1.421871    12A     -1.387079
      13A     -1.303103    14A     -1.249389    15A     -1.108740
      16A     -0.993399    17A     -0.961624    18A     -0.916467
      19A     -0.856896    20A     -0.770951    21A     -0.738296
      22A     -0.693197    23A     -0.682503    24A     -0.651280
      25A     -0.633042    26A     -0.613938    27A     -0.609579
      28A     -0.590394    29A     -0.581628    30A     -0.557691
      31A     -0.548260    32A     -0.538964    33A     -0.491216
      34A     -0.472795    35A     -0.445731    36A     -0.431507
      37A     -0.343407

  @DF-RHF Final Energy:  -490.71141804403271

   => Energetics <=

    Nuclear Repulsion Energy =            530.7845861407934080
    One-Electron Energy =               -1721.3206516941888822
    Two-Electron Energy =                 699.8246475093627623
    Total Energy =                       -490.7114180440327118
  Basis Set: (AUG-CC-PVTZ AUX)
    Blend: AUG-CC-PVTZ-RI
    Molecular point group: c1

    Geometry (in Angstrom), charge = 0, multiplicity = 1:

       Center              X                  Y                   Z               Mass
    ------------   -----------------  -----------------  -----------------  -----------------
         O            2.320379763714    -1.291901619904     0.000002028533    15.994914619570
         O           -2.272643236286    -1.430112619904     0.000001028533    15.994914619570
         N            1.171533763714     0.699537380096    -0.000001971467    14.003074004430
         N            0.015308763714    -1.310865619904    -0.000001971467    14.003074004430
         C           -1.240790236286     0.727448380096     0.000000028533    12.000000000000
         C           -0.040788236286     1.359593380096    -0.000000971467    12.000000000000
         C            1.233993563714    -0.695515219904    -0.000000971467    12.000000000000
         C           -1.259822236286    -0.730330619904     0.000000028533    12.000000000000
         C            2.443897763714     1.418086380096     0.000001028533    12.000000000000
         C           -2.555985236286     1.442136380096     0.000001028533    12.000000000000
         H            0.030116763714     2.444215380096    -0.000000971467     1.007825032230
         H            0.044814763714    -2.327648619904    -0.000000971467     1.007825032230
         H            2.233445763714     2.487523380096    -0.000019971467     1.007825032230
         H            3.023264763714     1.153687380096    -0.886210971467     1.007825032230
         H            3.023244763714     1.153718380096     0.886236028533     1.007825032230
         H           -3.144164236286     1.163904380096    -0.879053971467     1.007825032230
         H           -2.412898236286     2.526117380096     0.000001028533     1.007825032230
         H           -3.144164236286     1.163903380096     0.879054028533     1.007825032230

  Basis Set: AUG-CC-PVTZ
    Blend: AUG-CC-PVTZ
  Basis Set: (AUG-CC-PVTZ AUX)
    Blend: AUG-CC-PVTZ-JKFIT
	 Reference Energy          =    -490.7114180440327118 [Eh]
	 Singles Energy            =      -0.0000000000000000 [Eh]
	 Same-Spin Energy          =      -0.5025701016450730 [Eh]
	 Opposite-Spin Energy      =      -1.5415887979330209 [Eh]
	 Correlation Energy        =      -2.0441588995780942 [Eh]
	 Total Energy              =    -492.7555769436108335 [Eh]

	 ================> DF-SCS-MP2 Energies <==================
	-----------------------------------------------------------
	 SCS Same-Spin Scale       =       0.3333333333333333 [-]
	 SCS Opposite-Spin Scale   =       1.2000000000000000 [-]
	 SCS Same-Spin Energy      =      -0.1675233672150243 [Eh]
	 SCS Opposite-Spin Energy  =      -1.8499065575196250 [Eh]
	 SCS Correlation Energy    =      -2.0174299247346492 [Eh]
	 SCS Total Energy          =    -492.7288479687673544 [Eh]
	-----------------------------------------------------------

  Dipole Moment: [D]
     X:     0.9657      Y:     4.4803      Z:    -0.0000     Total:     4.5832

*** Psi4 exiting successfully. Buy a developer a beer!
