                               Psi4 1.3.2 release

  ==> Input File <==

--------------------------------------------------------------------------
#psi4
#
memory 32 gb

molecule  {
0 1
  O        2.3111590    -1.3984000     0.0000580
  O       -2.2718830    -1.4902890    -0.0001310
  N        1.1826080     0.6255060     0.0000550
  N        0.0203599    -1.3650824    -0.0000335
  C       -1.2219349     0.6645012    -0.0000245
  C       -0.0319280     1.2897490     0.0000350
  C        1.2605820    -0.7608720     0.0000310
  C       -1.2542960    -0.7955090    -0.0000670
  C        2.4243390     1.3942650     0.0001240
  C       -2.5504790     1.3758010    -0.0000570
  H        0.0516650     2.3739750     0.0000690
  H        0.0461780    -2.3935470    -0.0000610
  H        2.4800130     2.0209940     0.8935150
  H        2.4798690     2.0213500    -0.8930780
  H        3.2466700     0.6823050    -0.0000520
  H       -3.1375530     1.0948740    -0.8785960
  H       -2.4103180     2.4605130    -0.0000230
  H       -3.1376190     1.0948280     0.8784230
units angstrom
no_reorient  #important for SAPT in psi4, default
symmetry c1  #important for SAPT in psi4, default
}

set PROPERTIES_ORIGIN ["COM"]
properties('MP2/aug-cc-pvtz', properties = ['dipole'])
--------------------------------------------------------------------------

    Molecular point group: c1
  Charge       = 0
  Multiplicity = 1
  Basis Set: AUG-CC-PVTZ
    Blend: AUG-CC-PVTZ
  Basis Set: (AUG-CC-PVTZ AUX)
    Blend: AUG-CC-PVTZ-JKFIT

    Orbital Energies [Eh]
    ---------------------

    Doubly Occupied:

       1A    -20.540434     2A    -20.539542     3A    -15.636856
       4A    -15.625447     5A    -11.412629     6A    -11.377456
       7A    -11.323237     8A    -11.285276     9A    -11.258514
      10A    -11.237625    11A     -1.424552    12A     -1.387668
      13A     -1.307014    14A     -1.243925    15A     -1.109635
      16A     -0.992418    17A     -0.963529    18A     -0.914381
      19A     -0.855014    20A     -0.771545    21A     -0.732171
      22A     -0.692129    23A     -0.682576    24A     -0.649461
      25A     -0.637972    26A     -0.615819    27A     -0.609811
      28A     -0.587590    29A     -0.583524    30A     -0.551957
      31A     -0.548700    32A     -0.543288    33A     -0.488512
      34A     -0.475106    35A     -0.445358    36A     -0.431253
      37A     -0.347636

  @DF-RHF Final Energy:  -490.71169772530607

   => Energetics <=

    Nuclear Repulsion Energy =            530.7289316179441130
    One-Electron Energy =               -1721.2221412169237738
    Two-Electron Energy =                 699.7815118736737077
    Total Energy =                       -490.7116977253060668
  Basis Set: (AUG-CC-PVTZ AUX)
    Blend: AUG-CC-PVTZ-RI
    Molecular point group: c1

    Geometry (in Angstrom), charge = 0, multiplicity = 1:

       Center              X                  Y                   Z               Mass
    ------------   -----------------  -----------------  -----------------  -----------------
         O            2.306840914486    -1.333306113716     0.000059213929    15.994914619570
         O           -2.276201085514    -1.425195113716    -0.000129786071    15.994914619570
         N            1.178289914486     0.690599886284     0.000056213929    14.003074004430
         N            0.016041814486    -1.299988513716    -0.000032286071    14.003074004430
         C           -1.226252985514     0.729595086284    -0.000023286071    12.000000000000
         C           -0.036246085514     1.354842886284     0.000036213929    12.000000000000
         C            1.256263914486    -0.695778113716     0.000032213929    12.000000000000
         C           -1.258614085514    -0.730415113716    -0.000065786071    12.000000000000
         C            2.420020914486     1.459358886284     0.000125213929    12.000000000000
         C           -2.554797085514     1.440894886284    -0.000055786071    12.000000000000
         H            0.047346914486     2.439068886284     0.000070213929     1.007825032230
         H            0.041859914486    -2.328453113716    -0.000059786071     1.007825032230
         H            2.475694914486     2.086087886284     0.893516213929     1.007825032230
         H            2.475550914486     2.086443886284    -0.893076786071     1.007825032230
         H            3.242351914486     0.747398886284    -0.000050786071     1.007825032230
         H           -3.141871085514     1.159967886284    -0.878594786071     1.007825032230
         H           -2.414636085514     2.525606886284    -0.000021786071     1.007825032230
         H           -3.141937085514     1.159921886284     0.878424213929     1.007825032230

  Basis Set: AUG-CC-PVTZ
    Blend: AUG-CC-PVTZ
  Basis Set: (AUG-CC-PVTZ AUX)
    Blend: AUG-CC-PVTZ-JKFIT
	 Reference Energy          =    -490.7116977253060668 [Eh]
	 Singles Energy            =      -0.0000000000000000 [Eh]
	 Same-Spin Energy          =      -0.5023847113482200 [Eh]
	 Opposite-Spin Energy      =      -1.5413820846599817 [Eh]
	 Correlation Energy        =      -2.0437667960082018 [Eh]
	 Total Energy              =    -492.7554645213142521 [Eh]

	 ================> DF-SCS-MP2 Energies <==================
	-----------------------------------------------------------
	 SCS Same-Spin Scale       =       0.3333333333333333 [-]
	 SCS Opposite-Spin Scale   =       1.2000000000000000 [-]
	 SCS Same-Spin Energy      =      -0.1674615704494067 [Eh]
	 SCS Opposite-Spin Energy  =      -1.8496585015919780 [Eh]
	 SCS Correlation Energy    =      -2.0171200720413847 [Eh]
	 SCS Total Energy          =    -492.7288177973474603 [Eh]
	-----------------------------------------------------------

  Dipole Moment: [D]
     X:     1.0057      Y:     4.4910      Z:     0.0002     Total:     4.6022

*** Psi4 exiting successfully. Buy a developer a beer!
