                               Psi4 1.3.2 release

  ==> Input File <==

--------------------------------------------------------------------------
#psi4
#
memory 32 gb

molecule  {
0 1
  O        2.3111590    -1.3984000     0.0000580
  O       -2.2718830    -1.4902890    -0.0001310
  N        1.1826080     0.6255060     0.0000550
  N        0.0153410    -1.3761840    -0.0000340
  C       -1.2346770     0.6647280    -0.0000250
  C       -0.0430193     1.3106447     0.0000351
  C        1.2605820    -0.7608720     0.0000310
  C       -1.2542960    -0.7955090    -0.0000670
  C        2.4243390     1.3942650     0.0001240
  C       -2.5378687     1.3986566    -0.0000560
  H        0.0516650     2.3739750     0.0000690
  H        0.0461780    -2.3935470    -0.0000610
  H        2.4800130     2.0209940     0.8935150
  H        2.4798690     2.0213500    -0.8930780
  H        3.2466700     0.6823050    -0.0000520
  H       -3.1375530     1.0948740    -0.8785960
  H       -2.4103180     2.4605130    -0.0000230
  H       -3.1376190     1.0948280     0.8784230
units angstrom
no_reorient  #important for SAPT in psi4, default
symmetry c1  #important for SAPT in psi4, default
}

set PROPERTIES_ORIGIN ["COM"]
properties('MP2/aug-cc-pvtz', properties = ['dipole'])
--------------------------------------------------------------------------

    Molecular point group: c1
  Charge       = 0
  Multiplicity = 1
  Basis Set: AUG-CC-PVTZ
    Blend: AUG-CC-PVTZ
  Basis Set: (AUG-CC-PVTZ AUX)
    Blend: AUG-CC-PVTZ-JKFIT

    Orbital Energies [Eh]
    ---------------------

    Doubly Occupied:

       1A    -20.540365     2A    -20.539475     3A    -15.636090
       4A    -15.624768     5A    -11.412884     6A    -11.378460
       7A    -11.324274     8A    -11.284251     9A    -11.261855
      10A    -11.237667    11A     -1.422751    12A     -1.388020
      13A     -1.301793    14A     -1.241886    15A     -1.110364
      16A     -0.990421    17A     -0.963411    18A     -0.915862
      19A     -0.850993    20A     -0.769191    21A     -0.735623
      22A     -0.695964    23A     -0.679729    24A     -0.648007
      25A     -0.638714    26A     -0.614716    27A     -0.613489
      28A     -0.588208    29A     -0.579929    30A     -0.560491
      31A     -0.546985    32A     -0.542113    33A     -0.483861
      34A     -0.475646    35A     -0.445737    36A     -0.430756
      37A     -0.346528

  @DF-RHF Final Energy:  -490.71019228079842

   => Energetics <=

    Nuclear Repulsion Energy =            529.9128676797602111
    One-Electron Energy =               -1719.6035709063348804
    Two-Electron Energy =                 698.9805109457762455
    Total Energy =                       -490.7101922807984238
  Basis Set: (AUG-CC-PVTZ AUX)
    Blend: AUG-CC-PVTZ-RI
    Molecular point group: c1

    Geometry (in Angstrom), charge = 0, multiplicity = 1:

       Center              X                  Y                   Z               Mass
    ------------   -----------------  -----------------  -----------------  -----------------
         O            2.308304282398    -1.335964149235     0.000059212512    15.994914619570
         O           -2.274737717602    -1.427853149235    -0.000129787488    15.994914619570
         N            1.179753282398     0.687941850765     0.000056212512    14.003074004430
         N            0.012486282398    -1.313748149235    -0.000032787488    14.003074004430
         C           -1.237531717602     0.727163850765    -0.000023787488    12.000000000000
         C           -0.045874017602     1.373080550765     0.000036312512    12.000000000000
         C            1.257727282398    -0.698436149235     0.000032212512    12.000000000000
         C           -1.257150717602    -0.733073149235    -0.000065787488    12.000000000000
         C            2.421484282398     1.456700850765     0.000125212512    12.000000000000
         C           -2.540723417602     1.461092450765    -0.000054787488    12.000000000000
         H            0.048810282398     2.436410850765     0.000070212512     1.007825032230
         H            0.043323282398    -2.331111149235    -0.000059787488     1.007825032230
         H            2.477158282398     2.083429850765     0.893516212512     1.007825032230
         H            2.477014282398     2.083785850765    -0.893076787488     1.007825032230
         H            3.243815282398     0.744740850765    -0.000050787488     1.007825032230
         H           -3.140407717602     1.157309850765    -0.878594787488     1.007825032230
         H           -2.413172717602     2.522948850765    -0.000021787488     1.007825032230
         H           -3.140473717602     1.157263850765     0.878424212512     1.007825032230

  Basis Set: AUG-CC-PVTZ
    Blend: AUG-CC-PVTZ
  Basis Set: (AUG-CC-PVTZ AUX)
    Blend: AUG-CC-PVTZ-JKFIT
	 Reference Energy          =    -490.7101922807984238 [Eh]
	 Singles Energy            =      -0.0000000000000000 [Eh]
	 Same-Spin Energy          =      -0.5022956434125314 [Eh]
	 Opposite-Spin Energy      =      -1.5416732525985459 [Eh]
	 Correlation Energy        =      -2.0439688960110773 [Eh]
	 Total Energy              =    -492.7541611768094754 [Eh]

	 ================> DF-SCS-MP2 Energies <==================
	-----------------------------------------------------------
	 SCS Same-Spin Scale       =       0.3333333333333333 [-]
	 SCS Opposite-Spin Scale   =       1.2000000000000000 [-]
	 SCS Same-Spin Energy      =      -0.1674318811375105 [Eh]
	 SCS Opposite-Spin Energy  =      -1.8500079031182550 [Eh]
	 SCS Correlation Energy    =      -2.0174397842557656 [Eh]
	 SCS Total Energy          =    -492.7276320650541948 [Eh]
	-----------------------------------------------------------

  Dipole Moment: [D]
     X:     0.9411      Y:     4.5415      Z:     0.0002     Total:     4.6380

*** Psi4 exiting successfully. Buy a developer a beer!
