                               Psi4 1.4a3.dev225

  ==> Input File <==

--------------------------------------------------------------------------
#psi4
#
memory 32 gb

molecule  {
0 1
  O        2.3212770    -1.3580180     0.0000020
  O       -2.2717460    -1.4962290     0.0000010
  N        1.1724310     0.6334210    -0.0000020
  N        0.0162060    -1.3769820    -0.0000020
  C       -1.2398930     0.6613320     0.0000000
  C       -0.0398910     1.2934770    -0.0000010
  C        1.2527440    -0.7526170    -0.0000010
  C       -1.2589250    -0.7964470     0.0000000
  C        2.4622099     1.3618048     0.0000010
  C       -2.5550880     1.3760200     0.0000010
  H        0.0310140     2.3780990    -0.0000010
  H        0.0457120    -2.3937650    -0.0000010
  H        2.2343430     2.4214070    -0.0000200
  H        3.0241620     1.0875710    -0.8862110
  H        3.0241420     1.0876020     0.8862360
  H       -3.1432670     1.0977880    -0.8790540
  H       -2.4120010     2.4600010     0.0000010
  H       -3.1432670     1.0977870     0.8790540
units angstrom
no_reorient  #important for SAPT in psi4, default
symmetry c1  #important for SAPT in psi4, default
}

set PROPERTIES_ORIGIN ["COM"]
properties('MP2/aug-cc-pvtz', properties = ['dipole'])
--------------------------------------------------------------------------

    Molecular point group: c1
  Charge       = 0
  Multiplicity = 1
  Basis Set: AUG-CC-PVTZ
    Blend: AUG-CC-PVTZ
  Basis Set: (AUG-CC-PVTZ AUX)
    Blend: AUG-CC-PVTZ-JKFIT

    Orbital Energies [Eh]
    ---------------------

    Doubly Occupied:

       1A    -20.540442     2A    -20.537497     3A    -15.637898
       4A    -15.624330     5A    -11.410896     6A    -11.375380
       7A    -11.325970     8A    -11.289433     9A    -11.256500
      10A    -11.236057    11A     -1.423835    12A     -1.386688
      13A     -1.304011    14A     -1.241984    15A     -1.107583
      16A     -0.993945    17A     -0.961835    18A     -0.914015
      19A     -0.852981    20A     -0.769718    21A     -0.733947
      22A     -0.693041    23A     -0.682094    24A     -0.647061
      25A     -0.636168    26A     -0.613934    27A     -0.607725
      28A     -0.594323    29A     -0.581414    30A     -0.558108
      31A     -0.547233    32A     -0.540737    33A     -0.492836
      34A     -0.474869    35A     -0.443707    36A     -0.429941
      37A     -0.343406

  @DF-RHF Final Energy:  -490.71228426232102

   => Energetics <=

    Nuclear Repulsion Energy =            530.3287555712502126
    One-Electron Energy =               -1720.4589907578567818
    Two-Electron Energy =                 699.4179509242856057
    Total Energy =                       -490.7122842623209635
  Basis Set: (AUG-CC-PVTZ AUX)
    Blend: AUG-CC-PVTZ-RI
    Molecular point group: c1

    Geometry (in Angstrom), charge = 0, multiplicity = 1:

       Center              X                  Y                   Z               Mass
    ------------   -----------------  -----------------  -----------------  -----------------
         O            2.317358048033    -1.293516607034     0.000002028533    15.994914619570
         O           -2.275664951967    -1.431727607034     0.000001028533    15.994914619570
         N            1.168512048033     0.697922392966    -0.000001971467    14.003074004430
         N            0.012287048033    -1.312480607034    -0.000001971467    14.003074004430
         C           -1.243811951967     0.725833392966     0.000000028533    12.000000000000
         C           -0.043809951967     1.357978392966    -0.000000971467    12.000000000000
         C            1.248825048033    -0.688115607034    -0.000000971467    12.000000000000
         C           -1.262843951967    -0.731945607034     0.000000028533    12.000000000000
         C            2.458290948033     1.426306192966     0.000001028533    12.000000000000
         C           -2.559006951967     1.440521392966     0.000001028533    12.000000000000
         H            0.027095048033     2.442600392966    -0.000000971467     1.007825032230
         H            0.041793048033    -2.329263607034    -0.000000971467     1.007825032230
         H            2.230424048033     2.485908392966    -0.000019971467     1.007825032230
         H            3.020243048033     1.152072392966    -0.886210971467     1.007825032230
         H            3.020223048033     1.152103392966     0.886236028533     1.007825032230
         H           -3.147185951967     1.162289392966    -0.879053971467     1.007825032230
         H           -2.415919951967     2.524502392966     0.000001028533     1.007825032230
         H           -3.147185951967     1.162288392966     0.879054028533     1.007825032230

  Basis Set: AUG-CC-PVTZ
    Blend: AUG-CC-PVTZ
  Basis Set: (AUG-CC-PVTZ AUX)
    Blend: AUG-CC-PVTZ-JKFIT
	 Reference Energy          =    -490.7122842623210204 [Eh]
	 Singles Energy            =      -0.0000000000000000 [Eh]
	 Same-Spin Energy          =      -0.5022420952255758 [Eh]
	 Opposite-Spin Energy      =      -1.5412485637509086 [Eh]
	 Correlation Energy        =      -2.0434906589764843 [Eh]
	 Total Energy              =    -492.7557749212975295 [Eh]

	 ================> DF-SCS-MP2 Energies <==================
	-----------------------------------------------------------
	 SCS Same-Spin Scale       =       0.3333333333333333 [-]
	 SCS Opposite-Spin Scale   =       1.2000000000000000 [-]
	 SCS Same-Spin Energy      =      -0.1674140317418586 [Eh]
	 SCS Opposite-Spin Energy  =      -1.8494982765010901 [Eh]
	 SCS Correlation Energy    =      -2.0169123082429485 [Eh]
	 SCS Total Energy          =    -492.7291965705639427 [Eh]
	-----------------------------------------------------------

  Dipole Moment: [D]
     X:     1.1546      Y:     4.5463      Z:    -0.0000     Total:     4.6906

*** Psi4 exiting successfully. Buy a developer a beer!
