                               Psi4 1.3.2 release

  ==> Input File <==

--------------------------------------------------------------------------
#psi4
#
memory 32 gb

molecule  {
0 1
  O        2.3111590    -1.3984000     0.0000580
  O       -2.2718830    -1.4902890    -0.0001310
  N        1.1826080     0.6255060     0.0000550
  N        0.0153410    -1.3761840    -0.0000340
  C       -1.2285006     0.6766372     0.0223675
  C       -0.0319280     1.2897490     0.0000350
  C        1.2605820    -0.7608720     0.0000310
  C       -1.2542960    -0.7955090    -0.0000670
  C        2.4243390     1.3942650     0.0001240
  C       -2.5504790     1.3758010    -0.0000570
  H        0.0516650     2.3739750     0.0000690
  H        0.0461780    -2.3935470    -0.0000610
  H        2.4800130     2.0209940     0.8935150
  H        2.4798690     2.0213500    -0.8930780
  H        3.2466700     0.6823050    -0.0000520
  H       -3.1515546     1.1064355    -0.8727293
  H       -2.4103180     2.4605130    -0.0000230
  H       -3.1376190     1.0948280     0.8784230
units angstrom
no_reorient  #important for SAPT in psi4, default
symmetry c1  #important for SAPT in psi4, default
}

set PROPERTIES_ORIGIN ["COM"]
properties('MP2/aug-cc-pvtz', properties = ['dipole'])
--------------------------------------------------------------------------

    Molecular point group: c1
  Charge       = 0
  Multiplicity = 1
  Basis Set: AUG-CC-PVTZ
    Blend: AUG-CC-PVTZ
  Basis Set: (AUG-CC-PVTZ AUX)
    Blend: AUG-CC-PVTZ-JKFIT

    Orbital Energies [Eh]
    ---------------------

    Doubly Occupied:

       1A    -20.540463     2A    -20.539853     3A    -15.637390
       4A    -15.624729     5A    -11.413615     6A    -11.377607
       7A    -11.322654     8A    -11.285604     9A    -11.259773
      10A    -11.237287    11A     -1.424005    12A     -1.387419
      13A     -1.306570    14A     -1.242926    15A     -1.109874
      16A     -0.992866    17A     -0.963988    18A     -0.912331
      19A     -0.853761    20A     -0.770920    21A     -0.734353
      22A     -0.692063    23A     -0.681948    24A     -0.649743
      25A     -0.637810    26A     -0.615239    27A     -0.609591
      28A     -0.589433    29A     -0.583205    30A     -0.556074
      31A     -0.547871    32A     -0.542999    33A     -0.488384
      34A     -0.474960    35A     -0.444310    36A     -0.430815
      37A     -0.347498

  @DF-RHF Final Energy:  -490.71210253337398

   => Energetics <=

    Nuclear Repulsion Energy =            530.3028736645505887
    One-Electron Energy =               -1720.3700907094523700
    Two-Electron Energy =                 699.3551145115277450
    Total Energy =                       -490.7121025333740363
  Basis Set: (AUG-CC-PVTZ AUX)
    Blend: AUG-CC-PVTZ-RI
    Molecular point group: c1

    Geometry (in Angstrom), charge = 0, multiplicity = 1:

       Center              X                  Y                   Z               Mass
    ------------   -----------------  -----------------  -----------------  -----------------
         O            2.308005995512    -1.333319161420    -0.001901462886    15.994914619570
         O           -2.275036004488    -1.425208161420    -0.002090462886    15.994914619570
         N            1.179454995512     0.690586838580    -0.001904462886    14.003074004430
         N            0.012187995512    -1.311103161420    -0.001993462886    14.003074004430
         C           -1.231653604488     0.741718038580     0.020408037114    12.000000000000
         C           -0.035081004488     1.354829838580    -0.001924462886    12.000000000000
         C            1.257428995512    -0.695791161420    -0.001928462886    12.000000000000
         C           -1.257449004488    -0.730428161420    -0.002026462886    12.000000000000
         C            2.421185995512     1.459345838580    -0.001835462886    12.000000000000
         C           -2.553632004488     1.440881838580    -0.002016462886    12.000000000000
         H            0.048511995512     2.439055838580    -0.001890462886     1.007825032230
         H            0.043024995512    -2.328466161420    -0.002020462886     1.007825032230
         H            2.476859995512     2.086074838580     0.891555537114     1.007825032230
         H            2.476715995512     2.086430838580    -0.895037462886     1.007825032230
         H            3.243516995512     0.747385838580    -0.002011462886     1.007825032230
         H           -3.154707604488     1.171516338580    -0.874688762886     1.007825032230
         H           -2.413471004488     2.525593838580    -0.001982462886     1.007825032230
         H           -3.140772004488     1.159908838580     0.876463537114     1.007825032230

  Basis Set: AUG-CC-PVTZ
    Blend: AUG-CC-PVTZ
  Basis Set: (AUG-CC-PVTZ AUX)
    Blend: AUG-CC-PVTZ-JKFIT
	 Reference Energy          =    -490.7121025333739794 [Eh]
	 Singles Energy            =      -0.0000000000000000 [Eh]
	 Same-Spin Energy          =      -0.5021350202357489 [Eh]
	 Opposite-Spin Energy      =      -1.5411265682513817 [Eh]
	 Correlation Energy        =      -2.0432615884871304 [Eh]
	 Total Energy              =    -492.7553641218611347 [Eh]

	 ================> DF-SCS-MP2 Energies <==================
	-----------------------------------------------------------
	 SCS Same-Spin Scale       =       0.3333333333333333 [-]
	 SCS Opposite-Spin Scale   =       1.2000000000000000 [-]
	 SCS Same-Spin Energy      =      -0.1673783400785829 [Eh]
	 SCS Opposite-Spin Energy  =      -1.8493518819016579 [Eh]
	 SCS Correlation Energy    =      -2.0167302219802408 [Eh]
	 SCS Total Energy          =    -492.7288327553542331 [Eh]
	-----------------------------------------------------------

  Dipole Moment: [D]
     X:     1.0158      Y:     4.4859      Z:    -0.0129     Total:     4.5995

*** Psi4 exiting successfully. Buy a developer a beer!
