                               Psi4 1.3.2 release

  ==> Input File <==

--------------------------------------------------------------------------
#psi4
#
memory 32 gb

molecule  {
0 1
  O        2.3111590    -1.3984000     0.0000580
  O       -2.2718830    -1.4902890    -0.0001310
  N        1.1826080     0.6255060     0.0000550
  N        0.0153410    -1.3761840    -0.0000340
  C       -1.2346770     0.6647280    -0.0000250
  C       -0.0376783     1.2791250     0.0000346
  C        1.2484808    -0.7614997     0.0000307
  C       -1.2542960    -0.7955090    -0.0000670
  C        2.4243390     1.3942650     0.0001240
  C       -2.5504790     1.3758010    -0.0000570
  H        0.0516650     2.3739750     0.0000690
  H        0.0461780    -2.3935470    -0.0000610
  H        2.4800130     2.0209940     0.8935150
  H        2.4798690     2.0213500    -0.8930780
  H        3.2466700     0.6823050    -0.0000520
  H       -3.1375530     1.0948740    -0.8785960
  H       -2.4103180     2.4605130    -0.0000230
  H       -3.1376190     1.0948280     0.8784230
units angstrom
no_reorient  #important for SAPT in psi4, default
symmetry c1  #important for SAPT in psi4, default
}

set PROPERTIES_ORIGIN ["COM"]
properties('MP2/aug-cc-pvtz', properties = ['dipole'])
--------------------------------------------------------------------------

    Molecular point group: c1
  Charge       = 0
  Multiplicity = 1
  Basis Set: AUG-CC-PVTZ
    Blend: AUG-CC-PVTZ
  Basis Set: (AUG-CC-PVTZ AUX)
    Blend: AUG-CC-PVTZ-JKFIT

    Orbital Energies [Eh]
    ---------------------

    Doubly Occupied:

       1A    -20.539925     2A    -20.537607     3A    -15.638336
       4A    -15.626549     5A    -11.413096     6A    -11.377389
       7A    -11.324537     8A    -11.286140     9A    -11.259028
      10A    -11.237822    11A     -1.421174    12A     -1.386551
      13A     -1.304821    14A     -1.246081    15A     -1.111325
      16A     -0.993868    17A     -0.963793    18A     -0.914689
      19A     -0.855737    20A     -0.771883    21A     -0.736792
      22A     -0.689421    23A     -0.682395    24A     -0.650543
      25A     -0.633904    26A     -0.616594    27A     -0.609337
      28A     -0.589174    29A     -0.584120    30A     -0.555619
      31A     -0.549140    32A     -0.542375    33A     -0.487959
      34A     -0.472603    35A     -0.444988    36A     -0.430990
      37A     -0.347670

  @DF-RHF Final Energy:  -490.71162981227980

   => Energetics <=

    Nuclear Repulsion Energy =            530.6294461266124927
    One-Electron Energy =               -1721.0142063333071292
    Two-Electron Energy =                 699.6731303944148976
    Total Energy =                       -490.7116298122797389
  Basis Set: (AUG-CC-PVTZ AUX)
    Blend: AUG-CC-PVTZ-RI
    Molecular point group: c1

    Geometry (in Angstrom), charge = 0, multiplicity = 1:

       Center              X                  Y                   Z               Mass
    ------------   -----------------  -----------------  -----------------  -----------------
         O            2.309963916561    -1.331251578168     0.000059366733    15.994914619570
         O           -2.273078083439    -1.423140578168    -0.000129633267    15.994914619570
         N            1.181412916561     0.692654421832     0.000056366733    14.003074004430
         N            0.014145916561    -1.309035578168    -0.000032633267    14.003074004430
         C           -1.235872083439     0.731876421832    -0.000023633267    12.000000000000
         C           -0.038873383439     1.346273421832     0.000035966733    12.000000000000
         C            1.247285716561    -0.694351278168     0.000032066733    12.000000000000
         C           -1.255491083439    -0.728360578168    -0.000065633267    12.000000000000
         C            2.423143916561     1.461413421832     0.000125366733    12.000000000000
         C           -2.551674083439     1.442949421832    -0.000055633267    12.000000000000
         H            0.050469916561     2.441123421832     0.000070366733     1.007825032230
         H            0.044982916561    -2.326398578168    -0.000059633267     1.007825032230
         H            2.478817916561     2.088142421832     0.893516366733     1.007825032230
         H            2.478673916561     2.088498421832    -0.893076633267     1.007825032230
         H            3.245474916561     0.749453421832    -0.000050633267     1.007825032230
         H           -3.138748083439     1.162022421832    -0.878594633267     1.007825032230
         H           -2.411513083439     2.527661421832    -0.000021633267     1.007825032230
         H           -3.138814083439     1.161976421832     0.878424366733     1.007825032230

  Basis Set: AUG-CC-PVTZ
    Blend: AUG-CC-PVTZ
  Basis Set: (AUG-CC-PVTZ AUX)
    Blend: AUG-CC-PVTZ-JKFIT
	 Reference Energy          =    -490.7116298122797957 [Eh]
	 Singles Energy            =      -0.0000000000000000 [Eh]
	 Same-Spin Energy          =      -0.5024087798774921 [Eh]
	 Opposite-Spin Energy      =      -1.5414307450670406 [Eh]
	 Correlation Energy        =      -2.0438395249445325 [Eh]
	 Total Energy              =    -492.7554693372243264 [Eh]

	 ================> DF-SCS-MP2 Energies <==================
	-----------------------------------------------------------
	 SCS Same-Spin Scale       =       0.3333333333333333 [-]
	 SCS Opposite-Spin Scale   =       1.2000000000000000 [-]
	 SCS Same-Spin Energy      =      -0.1674695932924974 [Eh]
	 SCS Opposite-Spin Energy  =      -1.8497168940804487 [Eh]
	 SCS Correlation Energy    =      -2.0171864873729461 [Eh]
	 SCS Total Energy          =    -492.7288162996527490 [Eh]
	-----------------------------------------------------------

  Dipole Moment: [D]
     X:     0.9368      Y:     4.5321      Z:     0.0002     Total:     4.6279

*** Psi4 exiting successfully. Buy a developer a beer!
