                               Psi4 1.3.2 release

  ==> Input File <==

--------------------------------------------------------------------------
#psi4
#
memory 32 gb

molecule  {
0 1
  O        2.3111590    -1.3984000     0.0000580
  O       -2.2718830    -1.4902890    -0.0001310
  N        1.1826080     0.6255060     0.0000550
  N        0.0153410    -1.3761840    -0.0000340
  C       -1.2346770     0.6647280    -0.0000250
  C       -0.0319280     1.2897490     0.0000350
  C        1.2605820    -0.7608720     0.0000310
  C       -1.2542960    -0.7955090    -0.0000670
  C        2.3393146     1.3416262     0.0001193
  C       -2.5504790     1.3758010    -0.0000570
  H        0.0516650     2.3739750     0.0000690
  H        0.0461780    -2.3935470    -0.0000610
  H        2.4800130     2.0209940     0.8935150
  H        2.4798690     2.0213500    -0.8930780
  H        3.2466700     0.6823050    -0.0000520
  H       -3.1375530     1.0948740    -0.8785960
  H       -2.4103180     2.4605130    -0.0000230
  H       -3.1376190     1.0948280     0.8784230
units angstrom
no_reorient  #important for SAPT in psi4, default
symmetry c1  #important for SAPT in psi4, default
}

set PROPERTIES_ORIGIN ["COM"]
properties('MP2/aug-cc-pvtz', properties = ['dipole'])
--------------------------------------------------------------------------

    Molecular point group: c1
  Charge       = 0
  Multiplicity = 1
  Basis Set: AUG-CC-PVTZ
    Blend: AUG-CC-PVTZ
  Basis Set: (AUG-CC-PVTZ AUX)
    Blend: AUG-CC-PVTZ-JKFIT

    Orbital Energies [Eh]
    ---------------------

    Doubly Occupied:

       1A    -20.543679     2A    -20.541754     3A    -15.640164
       4A    -15.627347     5A    -11.416880     6A    -11.379208
       7A    -11.327032     8A    -11.284094     9A    -11.263658
      10A    -11.239372    11A     -1.430109    12A     -1.390281
      13A     -1.322614    14A     -1.250969    15A     -1.114975
      16A     -0.994047    17A     -0.967235    18A     -0.918583
      19A     -0.851617    20A     -0.776905    21A     -0.743257
      22A     -0.696341    23A     -0.688664    24A     -0.666246
      25A     -0.640576    26A     -0.616518    27A     -0.611570
      28A     -0.584087    29A     -0.579537    30A     -0.551811
      31A     -0.542205    32A     -0.541213    33A     -0.479295
      34A     -0.478534    35A     -0.447286    36A     -0.432714
      37A     -0.348082

  @DF-RHF Final Energy:  -490.70085447855769

   => Energetics <=

    Nuclear Repulsion Energy =            532.5800197874619926
    One-Electron Energy =               -1724.7048296464181476
    Two-Electron Energy =                 701.4239553803985245
    Total Energy =                       -490.7008544785577442
  Basis Set: (AUG-CC-PVTZ AUX)
    Blend: AUG-CC-PVTZ-RI
    Molecular point group: c1

    Geometry (in Angstrom), charge = 0, multiplicity = 1:

       Center              X                  Y                   Z               Mass
    ------------   -----------------  -----------------  -----------------  -----------------
         O            2.315719185637    -1.327705596131     0.000059709447    15.994914619570
         O           -2.267322814363    -1.419594596131    -0.000129290553    15.994914619570
         N            1.187168185637     0.696200403869     0.000056709447    14.003074004430
         N            0.019901185637    -1.305489596131    -0.000032290553    14.003074004430
         C           -1.230116814363     0.735422403869    -0.000023290553    12.000000000000
         C           -0.027367814363     1.360443403869     0.000036709447    12.000000000000
         C            1.265142185637    -0.690177596131     0.000032709447    12.000000000000
         C           -1.249735814363    -0.724814596131    -0.000065290553    12.000000000000
         C            2.343874785637     1.412320603869     0.000121009447    12.000000000000
         C           -2.545918814363     1.446495403869    -0.000055290553    12.000000000000
         H            0.056225185637     2.444669403869     0.000070709447     1.007825032230
         H            0.050738185637    -2.322852596131    -0.000059290553     1.007825032230
         H            2.484573185637     2.091688403869     0.893516709447     1.007825032230
         H            2.484429185637     2.092044403869    -0.893076290553     1.007825032230
         H            3.251230185637     0.752999403869    -0.000050290553     1.007825032230
         H           -3.132992814363     1.165568403869    -0.878594290553     1.007825032230
         H           -2.405757814363     2.531207403869    -0.000021290553     1.007825032230
         H           -3.133058814363     1.165522403869     0.878424709447     1.007825032230

  Basis Set: AUG-CC-PVTZ
    Blend: AUG-CC-PVTZ
  Basis Set: (AUG-CC-PVTZ AUX)
    Blend: AUG-CC-PVTZ-JKFIT
	 Reference Energy          =    -490.7008544785576873 [Eh]
	 Singles Energy            =      -0.0000000000000000 [Eh]
	 Same-Spin Energy          =      -0.5033855639937532 [Eh]
	 Opposite-Spin Energy      =      -1.5424393310737670 [Eh]
	 Correlation Energy        =      -2.0458248950675202 [Eh]
	 Total Energy              =    -492.7466793736252271 [Eh]

	 ================> DF-SCS-MP2 Energies <==================
	-----------------------------------------------------------
	 SCS Same-Spin Scale       =       0.3333333333333333 [-]
	 SCS Opposite-Spin Scale   =       1.2000000000000000 [-]
	 SCS Same-Spin Energy      =      -0.1677951879979177 [Eh]
	 SCS Opposite-Spin Energy  =      -1.8509271972885202 [Eh]
	 SCS Correlation Energy    =      -2.0187223852864378 [Eh]
	 SCS Total Energy          =    -492.7195768638441109 [Eh]
	-----------------------------------------------------------

  Dipole Moment: [D]
     X:     0.7425      Y:     4.2758      Z:     0.0001     Total:     4.3398

*** Psi4 exiting successfully. Buy a developer a beer!
