                               Psi4 1.4a3.dev225

  ==> Input File <==

--------------------------------------------------------------------------
#psi4
#
memory 32 gb

molecule  {
0 1
  O        2.3212770    -1.3580180     0.0000020
  O       -2.2717460    -1.4962290     0.0000010
  N        1.1724310     0.6334210    -0.0000020
  N        0.0162060    -1.3769820    -0.0000020
  C       -1.2398930     0.6613320     0.0000000
  C       -0.0398910     1.2934770    -0.0000010
  C        1.2527440    -0.7526170    -0.0000010
  C       -1.2589250    -0.7964470     0.0000000
  C        2.4447950     1.3519700     0.0000010
  C       -2.5550880     1.3760200     0.0000010
  H        0.0310140     2.3780990    -0.0000010
  H        0.0442617    -2.3437860    -0.0000010
  H        2.2343430     2.4214070    -0.0000200
  H        3.0241620     1.0875710    -0.8862110
  H        3.0241420     1.0876020     0.8862360
  H       -3.1432670     1.0977880    -0.8790540
  H       -2.4120010     2.4600010     0.0000010
  H       -3.1432670     1.0977870     0.8790540
units angstrom
no_reorient  #important for SAPT in psi4, default
symmetry c1  #important for SAPT in psi4, default
}

set PROPERTIES_ORIGIN ["COM"]
properties('MP2/aug-cc-pvtz', properties = ['dipole'])
--------------------------------------------------------------------------

    Molecular point group: c1
  Charge       = 0
  Multiplicity = 1
  Basis Set: AUG-CC-PVTZ
    Blend: AUG-CC-PVTZ
  Basis Set: (AUG-CC-PVTZ AUX)
    Blend: AUG-CC-PVTZ-JKFIT

    Orbital Energies [Eh]
    ---------------------

    Doubly Occupied:

       1A    -20.541749     2A    -20.538629     3A    -15.638837
       4A    -15.620884     5A    -11.412019     6A    -11.376333
       7A    -11.326772     8A    -11.288941     9A    -11.257357
      10A    -11.236644    11A     -1.426202    12A     -1.388026
      13A     -1.307048    14A     -1.249272    15A     -1.109382
      16A     -0.994418    17A     -0.963163    18A     -0.918611
      19A     -0.854017    20A     -0.773005    21A     -0.744338
      22A     -0.695305    23A     -0.683538    24A     -0.651463
      25A     -0.637228    26A     -0.613239    27A     -0.610328
      28A     -0.591302    29A     -0.581705    30A     -0.558851
      31A     -0.548293    32A     -0.540618    33A     -0.492403
      34A     -0.475905    35A     -0.444769    36A     -0.431488
      37A     -0.344153

  @DF-RHF Final Energy:  -490.71219679450678

   => Energetics <=

    Nuclear Repulsion Energy =            531.0856222315620698
    One-Electron Energy =               -1721.8631685386819754
    Two-Electron Energy =                 700.0653495126130110
    Total Energy =                       -490.7121967945067809
  Basis Set: (AUG-CC-PVTZ AUX)
    Blend: AUG-CC-PVTZ-RI
    Molecular point group: c1

    Geometry (in Angstrom), charge = 0, multiplicity = 1:

       Center              X                  Y                   Z               Mass
    ------------   -----------------  -----------------  -----------------  -----------------
         O            2.318860565425    -1.293033612604     0.000002028533    15.994914619570
         O           -2.274162434575    -1.431244612604     0.000001028533    15.994914619570
         N            1.170014565425     0.698405387396    -0.000001971467    14.003074004430
         N            0.013789565425    -1.311997612604    -0.000001971467    14.003074004430
         C           -1.242309434575     0.726316387396     0.000000028533    12.000000000000
         C           -0.042307434575     1.358461387396    -0.000000971467    12.000000000000
         C            1.250327565425    -0.687632612604    -0.000000971467    12.000000000000
         C           -1.261341434575    -0.731462612604     0.000000028533    12.000000000000
         C            2.442378565425     1.416954387396     0.000001028533    12.000000000000
         C           -2.557504434575     1.441004387396     0.000001028533    12.000000000000
         H            0.028597565425     2.443083387396    -0.000000971467     1.007825032230
         H            0.041845265425    -2.278801612604    -0.000000971467     1.007825032230
         H            2.231926565425     2.486391387396    -0.000019971467     1.007825032230
         H            3.021745565425     1.152555387396    -0.886210971467     1.007825032230
         H            3.021725565425     1.152586387396     0.886236028533     1.007825032230
         H           -3.145683434575     1.162772387396    -0.879053971467     1.007825032230
         H           -2.414417434575     2.524985387396     0.000001028533     1.007825032230
         H           -3.145683434575     1.162771387396     0.879054028533     1.007825032230

  Basis Set: AUG-CC-PVTZ
    Blend: AUG-CC-PVTZ
  Basis Set: (AUG-CC-PVTZ AUX)
    Blend: AUG-CC-PVTZ-JKFIT
	 Reference Energy          =    -490.7121967945067809 [Eh]
	 Singles Energy            =      -0.0000000000000000 [Eh]
	 Same-Spin Energy          =      -0.5019469431558037 [Eh]
	 Opposite-Spin Energy      =      -1.5404788825196909 [Eh]
	 Correlation Energy        =      -2.0424258256754948 [Eh]
	 Total Energy              =    -492.7546226201822606 [Eh]

	 ================> DF-SCS-MP2 Energies <==================
	-----------------------------------------------------------
	 SCS Same-Spin Scale       =       0.3333333333333333 [-]
	 SCS Opposite-Spin Scale   =       1.2000000000000000 [-]
	 SCS Same-Spin Energy      =      -0.1673156477186012 [Eh]
	 SCS Opposite-Spin Energy  =      -1.8485746590236289 [Eh]
	 SCS Correlation Energy    =      -2.0158903067422300 [Eh]
	 SCS Total Energy          =    -492.7280871012490024 [Eh]
	-----------------------------------------------------------

  Dipole Moment: [D]
     X:     1.0954      Y:     4.5738      Z:    -0.0000     Total:     4.7031

*** Psi4 exiting successfully. Buy a developer a beer!
