                               Psi4 1.3.2 release

  ==> Input File <==

--------------------------------------------------------------------------
#psi4
#
memory 32 gb

molecule  {
0 1
  O        2.3111590    -1.3984000     0.0000580
  O       -2.2718830    -1.4902890    -0.0001310
  N        1.1826080     0.6255060     0.0000550
  N        0.0153410    -1.3761840    -0.0000340
  C       -1.2346770     0.6647280    -0.0000250
  C       -0.0319280     1.2897490     0.0000350
  C        1.2605820    -0.7608720     0.0000310
  C       -1.1633559    -0.8371009    -0.0000646
  C        2.4243390     1.3942650     0.0001240
  C       -2.5504790     1.3758010    -0.0000570
  H        0.0516650     2.3739750     0.0000690
  H        0.0461780    -2.3935470    -0.0000610
  H        2.4800130     2.0209940     0.8935150
  H        2.4798690     2.0213500    -0.8930780
  H        3.2466700     0.6823050    -0.0000520
  H       -3.1375530     1.0948740    -0.8785960
  H       -2.4103180     2.4605130    -0.0000230
  H       -3.1376190     1.0948280     0.8784230
units angstrom
no_reorient  #important for SAPT in psi4, default
symmetry c1  #important for SAPT in psi4, default
}

set PROPERTIES_ORIGIN ["COM"]
properties('MP2/aug-cc-pvtz', properties = ['dipole'])
--------------------------------------------------------------------------

    Molecular point group: c1
  Charge       = 0
  Multiplicity = 1
  Basis Set: AUG-CC-PVTZ
    Blend: AUG-CC-PVTZ
  Basis Set: (AUG-CC-PVTZ AUX)
    Blend: AUG-CC-PVTZ-JKFIT

    Orbital Energies [Eh]
    ---------------------

    Doubly Occupied:

       1A    -20.550396     2A    -20.523024     3A    -15.641556
       4A    -15.640189     5A    -11.423770     6A    -11.373622
       7A    -11.318539     8A    -11.288495     9A    -11.263409
      10A    -11.236178    11A     -1.435616    12A     -1.366450
      13A     -1.308064    14A     -1.263088    15A     -1.102986
      16A     -0.997500    17A     -0.968792    18A     -0.918404
      19A     -0.871404    20A     -0.773306    21A     -0.744504
      22A     -0.691780    23A     -0.690056    24A     -0.651670
      25A     -0.634554    26A     -0.622676    27A     -0.596143
      28A     -0.589753    29A     -0.582595    30A     -0.556751
      31A     -0.541587    32A     -0.540099    33A     -0.490485
      34A     -0.478455    35A     -0.433681    36A     -0.427656
      37A     -0.343914

  @DF-RHF Final Energy:  -490.69645970524607

   => Energetics <=

    Nuclear Repulsion Energy =            530.8428530147925812
    One-Electron Energy =               -1721.3163331119096711
    Two-Electron Energy =                 699.7770203918710195
    Total Energy =                       -490.6964597052460704
  Basis Set: (AUG-CC-PVTZ AUX)
    Blend: AUG-CC-PVTZ-RI
    Molecular point group: c1

    Geometry (in Angstrom), charge = 0, multiplicity = 1:

       Center              X                  Y                   Z               Mass
    ------------   -----------------  -----------------  -----------------  -----------------
         O            2.300642822321    -1.328652077256     0.000059101130    15.994914619570
         O           -2.282399177679    -1.420541077256    -0.000129898870    15.994914619570
         N            1.172091822321     0.695253922744     0.000056101130    14.003074004430
         N            0.004824822321    -1.306436077256    -0.000032898870    14.003074004430
         C           -1.245193177679     0.734475922744    -0.000023898870    12.000000000000
         C           -0.042444177679     1.359496922744     0.000036101130    12.000000000000
         C            1.250065822321    -0.691124077256     0.000032101130    12.000000000000
         C           -1.173872077679    -0.767352977256    -0.000063498870    12.000000000000
         C            2.413822822321     1.464012922744     0.000125101130    12.000000000000
         C           -2.560995177679     1.445548922744    -0.000055898870    12.000000000000
         H            0.041148822321     2.443722922744     0.000070101130     1.007825032230
         H            0.035661822321    -2.323799077256    -0.000059898870     1.007825032230
         H            2.469496822321     2.090741922744     0.893516101130     1.007825032230
         H            2.469352822321     2.091097922744    -0.893076898870     1.007825032230
         H            3.236153822321     0.752052922744    -0.000050898870     1.007825032230
         H           -3.148069177679     1.164621922744    -0.878594898870     1.007825032230
         H           -2.420834177679     2.530260922744    -0.000021898870     1.007825032230
         H           -3.148135177679     1.164575922744     0.878424101130     1.007825032230

  Basis Set: AUG-CC-PVTZ
    Blend: AUG-CC-PVTZ
  Basis Set: (AUG-CC-PVTZ AUX)
    Blend: AUG-CC-PVTZ-JKFIT
	 Reference Energy          =    -490.6964597052460704 [Eh]
	 Singles Energy            =      -0.0000000000000000 [Eh]
	 Same-Spin Energy          =      -0.5032237603930390 [Eh]
	 Opposite-Spin Energy      =      -1.5431262898527707 [Eh]
	 Correlation Energy        =      -2.0463500502458096 [Eh]
	 Total Energy              =    -492.7428097554918622 [Eh]

	 ================> DF-SCS-MP2 Energies <==================
	-----------------------------------------------------------
	 SCS Same-Spin Scale       =       0.3333333333333333 [-]
	 SCS Opposite-Spin Scale   =       1.2000000000000000 [-]
	 SCS Same-Spin Energy      =      -0.1677412534643463 [Eh]
	 SCS Opposite-Spin Energy  =      -1.8517515478233246 [Eh]
	 SCS Correlation Energy    =      -2.0194928012876709 [Eh]
	 SCS Total Energy          =    -492.7159525065337675 [Eh]
	-----------------------------------------------------------

  Dipole Moment: [D]
     X:     1.7065      Y:     4.4291      Z:     0.0002     Total:     4.7464

*** Psi4 exiting successfully. Buy a developer a beer!
