                               Psi4 1.3.2 release

  ==> Input File <==

--------------------------------------------------------------------------
#psi4
#
memory 32 gb

molecule  {
0 1
  O        2.3111590    -1.3984000     0.0000580
  O       -2.2718830    -1.4902890    -0.0001310
  N        1.2068155     0.6266557     0.0000561
  N        0.0262693    -1.3978227    -0.0000340
  C       -1.2346770     0.6647280    -0.0000250
  C       -0.0319280     1.2897490     0.0000350
  C        1.2605820    -0.7608720     0.0000310
  C       -1.2542960    -0.7955090    -0.0000670
  C        2.4243390     1.3942650     0.0001240
  C       -2.5504790     1.3758010    -0.0000570
  H        0.0516650     2.3739750     0.0000690
  H        0.0461780    -2.3935470    -0.0000610
  H        2.4800130     2.0209940     0.8935150
  H        2.4798690     2.0213500    -0.8930780
  H        3.2466700     0.6823050    -0.0000520
  H       -3.1375530     1.0948740    -0.8785960
  H       -2.4103180     2.4605130    -0.0000230
  H       -3.1376190     1.0948280     0.8784230
units angstrom
no_reorient  #important for SAPT in psi4, default
symmetry c1  #important for SAPT in psi4, default
}

set PROPERTIES_ORIGIN ["COM"]
properties('MP2/aug-cc-pvtz', properties = ['dipole'])
--------------------------------------------------------------------------

    Molecular point group: c1
  Charge       = 0
  Multiplicity = 1
  Basis Set: AUG-CC-PVTZ
    Blend: AUG-CC-PVTZ
  Basis Set: (AUG-CC-PVTZ AUX)
    Blend: AUG-CC-PVTZ-JKFIT

    Orbital Energies [Eh]
    ---------------------

    Doubly Occupied:

       1A    -20.542081     2A    -20.536708     3A    -15.637562
       4A    -15.623006     5A    -11.411575     6A    -11.379418
       7A    -11.327192     8A    -11.283385     9A    -11.263090
      10A    -11.239137    11A     -1.422283    12A     -1.388172
      13A     -1.302605    14A     -1.242292    15A     -1.111243
      16A     -0.993698    17A     -0.962224    18A     -0.914189
      19A     -0.848593    20A     -0.770984    21A     -0.740019
      22A     -0.691525    23A     -0.681322    24A     -0.652845
      25A     -0.635360    26A     -0.615264    27A     -0.613821
      28A     -0.589504    29A     -0.584855    30A     -0.555483
      31A     -0.549532    32A     -0.542593    33A     -0.483712
      34A     -0.474100    35A     -0.444678    36A     -0.430357
      37A     -0.348392

  @DF-RHF Final Energy:  -490.71119925381555

   => Energetics <=

    Nuclear Repulsion Energy =            529.7292954843660482
    One-Electron Energy =               -1719.2153902929942433
    Two-Electron Energy =                 698.7748955548125878
    Total Energy =                       -490.7111992538156073
  Basis Set: (AUG-CC-PVTZ AUX)
    Blend: AUG-CC-PVTZ-RI
    Molecular point group: c1

    Geometry (in Angstrom), charge = 0, multiplicity = 1:

       Center              X                  Y                   Z               Mass
    ------------   -----------------  -----------------  -----------------  -----------------
         O            2.304921546289    -1.330167113468     0.000059196780    15.994914619570
         O           -2.278120453711    -1.422056113468    -0.000129803220    15.994914619570
         N            1.200578046289     0.694888586532     0.000057296780    14.003074004430
         N            0.020031846289    -1.329589813468    -0.000032803220    14.003074004430
         C           -1.240914453711     0.732960886532    -0.000023803220    12.000000000000
         C           -0.038165453711     1.357981886532     0.000036196780    12.000000000000
         C            1.254344546289    -0.692639113468     0.000032196780    12.000000000000
         C           -1.260533453711    -0.727276113468    -0.000065803220    12.000000000000
         C            2.418101546289     1.462497886532     0.000125196780    12.000000000000
         C           -2.556716453711     1.444033886532    -0.000055803220    12.000000000000
         H            0.045427546289     2.442207886532     0.000070196780     1.007825032230
         H            0.039940546289    -2.325314113468    -0.000059803220     1.007825032230
         H            2.473775546289     2.089226886532     0.893516196780     1.007825032230
         H            2.473631546289     2.089582886532    -0.893076803220     1.007825032230
         H            3.240432546289     0.750537886532    -0.000050803220     1.007825032230
         H           -3.143790453711     1.163106886532    -0.878594803220     1.007825032230
         H           -2.416555453711     2.528745886532    -0.000021803220     1.007825032230
         H           -3.143856453711     1.163060886532     0.878424196780     1.007825032230

  Basis Set: AUG-CC-PVTZ
    Blend: AUG-CC-PVTZ
  Basis Set: (AUG-CC-PVTZ AUX)
    Blend: AUG-CC-PVTZ-JKFIT
	 Reference Energy          =    -490.7111992538155505 [Eh]
	 Singles Energy            =      -0.0000000000000000 [Eh]
	 Same-Spin Energy          =      -0.5018858889091473 [Eh]
	 Opposite-Spin Energy      =      -1.5410516302170376 [Eh]
	 Correlation Energy        =      -2.0429375191261849 [Eh]
	 Total Energy              =    -492.7541367729417630 [Eh]

	 ================> DF-SCS-MP2 Energies <==================
	-----------------------------------------------------------
	 SCS Same-Spin Scale       =       0.3333333333333333 [-]
	 SCS Opposite-Spin Scale   =       1.2000000000000000 [-]
	 SCS Same-Spin Energy      =      -0.1672952963030491 [Eh]
	 SCS Opposite-Spin Energy  =      -1.8492619562604451 [Eh]
	 SCS Correlation Energy    =      -2.0165572525634943 [Eh]
	 SCS Total Energy          =    -492.7277565063790234 [Eh]
	-----------------------------------------------------------

  Dipole Moment: [D]
     X:     0.8201      Y:     4.5361      Z:     0.0002     Total:     4.6097

*** Psi4 exiting successfully. Buy a developer a beer!
