                               Psi4 1.3.2 release

  ==> Input File <==

--------------------------------------------------------------------------
#psi4
#
memory 32 gb

molecule  {
0 1
  O        2.3111590    -1.3984000     0.0000580
  O       -2.2718830    -1.4902890    -0.0001310
  N        1.1826080     0.6255060     0.0000550
  N        0.0153410    -1.3761840    -0.0000340
  C       -1.2346770     0.6647280    -0.0000250
  C       -0.0319280     1.2897490     0.0000350
  C        1.2605820    -0.7608720     0.0000310
  C       -1.2542960    -0.7955090    -0.0000670
  C        2.4243390     1.3942650     0.0001240
  C       -2.5504790     1.3758010    -0.0000570
  H        0.0593521     2.4736791     0.0000721
  H        0.0461780    -2.3935470    -0.0000610
  H        2.4800130     2.0209940     0.8935150
  H        2.4798690     2.0213500    -0.8930780
  H        3.2466700     0.6823050    -0.0000520
  H       -3.1375530     1.0948740    -0.8785960
  H       -2.4103180     2.4605130    -0.0000230
  H       -3.1376190     1.0948280     0.8784230
units angstrom
no_reorient  #important for SAPT in psi4, default
symmetry c1  #important for SAPT in psi4, default
}

set PROPERTIES_ORIGIN ["COM"]
properties('MP2/aug-cc-pvtz', properties = ['dipole'])
--------------------------------------------------------------------------

    Molecular point group: c1
  Charge       = 0
  Multiplicity = 1
  Basis Set: AUG-CC-PVTZ
    Blend: AUG-CC-PVTZ
  Basis Set: (AUG-CC-PVTZ AUX)
    Blend: AUG-CC-PVTZ-JKFIT

    Orbital Energies [Eh]
    ---------------------

    Doubly Occupied:

       1A    -20.540955     2A    -20.538874     3A    -15.639114
       4A    -15.624931     5A    -11.414369     6A    -11.376852
       7A    -11.335325     8A    -11.285883     9A    -11.260119
      10A    -11.236936    11A     -1.424523    12A     -1.387350
      13A     -1.306852    14A     -1.243103    15A     -1.107996
      16A     -0.993105    17A     -0.961360    18A     -0.909639
      19A     -0.853051    20A     -0.770238    21A     -0.734582
      22A     -0.682479    23A     -0.679405    24A     -0.649454
      25A     -0.634409    26A     -0.615742    27A     -0.602390
      28A     -0.588788    29A     -0.583984    30A     -0.555240
      31A     -0.548067    32A     -0.543414    33A     -0.488338
      34A     -0.474656    35A     -0.444505    36A     -0.430922
      37A     -0.346239

  @DF-RHF Final Energy:  -490.70436214793767

   => Energetics <=

    Nuclear Repulsion Energy =            529.8551939752318276
    One-Electron Energy =               -1719.4927340233755331
    Two-Electron Energy =                 698.9331779002061467
    Total Energy =                       -490.7043621479376725
  Basis Set: (AUG-CC-PVTZ AUX)
    Blend: AUG-CC-PVTZ-RI
    Molecular point group: c1

    Geometry (in Angstrom), charge = 0, multiplicity = 1:

       Center              X                  Y                   Z               Mass
    ------------   -----------------  -----------------  -----------------  -----------------
         O            2.308379113575    -1.332933050963     0.000059284451    15.994914619570
         O           -2.274662886425    -1.424822050963    -0.000129715549    15.994914619570
         N            1.179828113575     0.690972949037     0.000056284451    14.003074004430
         N            0.012561113575    -1.310717050963    -0.000032715549    14.003074004430
         C           -1.237456886425     0.730194949037    -0.000023715549    12.000000000000
         C           -0.034707886425     1.355215949037     0.000036284451    12.000000000000
         C            1.257802113575    -0.695405050963     0.000032284451    12.000000000000
         C           -1.257075886425    -0.730042050963    -0.000065715549    12.000000000000
         C            2.421559113575     1.459731949037     0.000125284451    12.000000000000
         C           -2.553258886425     1.441267949037    -0.000055715549    12.000000000000
         H            0.056572213575     2.539146049037     0.000073384451     1.007825032230
         H            0.043398113575    -2.328080050963    -0.000059715549     1.007825032230
         H            2.477233113575     2.086460949037     0.893516284451     1.007825032230
         H            2.477089113575     2.086816949037    -0.893076715549     1.007825032230
         H            3.243890113575     0.747771949037    -0.000050715549     1.007825032230
         H           -3.140332886425     1.160340949037    -0.878594715549     1.007825032230
         H           -2.413097886425     2.525979949037    -0.000021715549     1.007825032230
         H           -3.140398886425     1.160294949037     0.878424284451     1.007825032230

  Basis Set: AUG-CC-PVTZ
    Blend: AUG-CC-PVTZ
  Basis Set: (AUG-CC-PVTZ AUX)
    Blend: AUG-CC-PVTZ-JKFIT
	 Reference Energy          =    -490.7043621479376725 [Eh]
	 Singles Energy            =      -0.0000000000000000 [Eh]
	 Same-Spin Energy          =      -0.5027762483348597 [Eh]
	 Opposite-Spin Energy      =      -1.5424998195995356 [Eh]
	 Correlation Energy        =      -2.0452760679343953 [Eh]
	 Total Energy              =    -492.7496382158720962 [Eh]

	 ================> DF-SCS-MP2 Energies <==================
	-----------------------------------------------------------
	 SCS Same-Spin Scale       =       0.3333333333333333 [-]
	 SCS Opposite-Spin Scale   =       1.2000000000000000 [-]
	 SCS Same-Spin Energy      =      -0.1675920827782865 [Eh]
	 SCS Opposite-Spin Energy  =      -1.8509997835194427 [Eh]
	 SCS Correlation Energy    =      -2.0185918662977294 [Eh]
	 SCS Total Energy          =    -492.7229540142354267 [Eh]
	-----------------------------------------------------------

  Dipole Moment: [D]
     X:     1.0548      Y:     4.5025      Z:     0.0002     Total:     4.6244

*** Psi4 exiting successfully. Buy a developer a beer!
