                               Psi4 1.3.2 release

  ==> Input File <==

--------------------------------------------------------------------------
#psi4
#
memory 32 gb

molecule  {
0 1
  O        2.3111590    -1.3984000     0.0000580
  O       -2.2718830    -1.4902890    -0.0001310
  N        1.2310394     0.6273827     0.0000571
  N        0.0375736    -1.4192675    -0.0000339
  C       -1.2346770     0.6647280    -0.0000250
  C       -0.0319280     1.2897490     0.0000350
  C        1.2605820    -0.7608720     0.0000310
  C       -1.2542960    -0.7955090    -0.0000670
  C        2.4243390     1.3942650     0.0001240
  C       -2.5504790     1.3758010    -0.0000570
  H        0.0516650     2.3739750     0.0000690
  H        0.0461780    -2.3935470    -0.0000610
  H        2.4800130     2.0209940     0.8935150
  H        2.4798690     2.0213500    -0.8930780
  H        3.2466700     0.6823050    -0.0000520
  H       -3.1375530     1.0948740    -0.8785960
  H       -2.4103180     2.4605130    -0.0000230
  H       -3.1376190     1.0948280     0.8784230
units angstrom
no_reorient  #important for SAPT in psi4, default
symmetry c1  #important for SAPT in psi4, default
}

set PROPERTIES_ORIGIN ["COM"]
properties('MP2/aug-cc-pvtz', properties = ['dipole'])
--------------------------------------------------------------------------

    Molecular point group: c1
  Charge       = 0
  Multiplicity = 1
  Basis Set: AUG-CC-PVTZ
    Blend: AUG-CC-PVTZ
  Basis Set: (AUG-CC-PVTZ AUX)
    Blend: AUG-CC-PVTZ-JKFIT

    Orbital Energies [Eh]
    ---------------------

    Doubly Occupied:

       1A    -20.545570     2A    -20.532964     3A    -15.636983
       4A    -15.621372     5A    -11.409685     6A    -11.382543
       7A    -11.329353     8A    -11.280841     9A    -11.266501
      10A    -11.241120    11A     -1.420697    12A     -1.389403
      13A     -1.298925    14A     -1.241873    15A     -1.113549
      16A     -0.994451    17A     -0.961016    18A     -0.914073
      19A     -0.844470    20A     -0.771748    21A     -0.744468
      22A     -0.690665    23A     -0.680788    24A     -0.657039
      25A     -0.632741    26A     -0.617456    27A     -0.614999
      28A     -0.590387    29A     -0.585621    30A     -0.556234
      31A     -0.549227    32A     -0.542152    33A     -0.479541
      34A     -0.473169    35A     -0.444419    36A     -0.430009
      37A     -0.350767

  @DF-RHF Final Energy:  -490.70676676220086

   => Energetics <=

    Nuclear Repulsion Energy =            529.1055361240540833
    One-Electron Energy =               -1717.9509695745477984
    Two-Electron Energy =                 698.1386666882928012
    Total Energy =                       -490.7067667622008003
  Basis Set: (AUG-CC-PVTZ AUX)
    Blend: AUG-CC-PVTZ-RI
    Molecular point group: c1

    Geometry (in Angstrom), charge = 0, multiplicity = 1:

       Center              X                  Y                   Z               Mass
    ------------   -----------------  -----------------  -----------------  -----------------
         O            2.301369432432    -1.328095745246     0.000059086802    15.994914619570
         O           -2.281672567568    -1.419984745246    -0.000129913198    15.994914619570
         N            1.221249832432     0.697686954754     0.000058186802    14.003074004430
         N            0.027784032432    -1.348963245246    -0.000032813198    14.003074004430
         C           -1.244466567568     0.735032254754    -0.000023913198    12.000000000000
         C           -0.041717567568     1.360053254754     0.000036086802    12.000000000000
         C            1.250792432432    -0.690567745246     0.000032086802    12.000000000000
         C           -1.264085567568    -0.725204745246    -0.000065913198    12.000000000000
         C            2.414549432432     1.464569254754     0.000125086802    12.000000000000
         C           -2.560268567568     1.446105254754    -0.000055913198    12.000000000000
         H            0.041875432432     2.444279254754     0.000070086802     1.007825032230
         H            0.036388432432    -2.323242745246    -0.000059913198     1.007825032230
         H            2.470223432432     2.091298254754     0.893516086802     1.007825032230
         H            2.470079432432     2.091654254754    -0.893076913198     1.007825032230
         H            3.236880432432     0.752609254754    -0.000050913198     1.007825032230
         H           -3.147342567568     1.165178254754    -0.878594913198     1.007825032230
         H           -2.420107567568     2.530817254754    -0.000021913198     1.007825032230
         H           -3.147408567568     1.165132254754     0.878424086802     1.007825032230

  Basis Set: AUG-CC-PVTZ
    Blend: AUG-CC-PVTZ
  Basis Set: (AUG-CC-PVTZ AUX)
    Blend: AUG-CC-PVTZ-JKFIT
	 Reference Energy          =    -490.7067667622008571 [Eh]
	 Singles Energy            =      -0.0000000000000000 [Eh]
	 Same-Spin Energy          =      -0.5015118099958511 [Eh]
	 Opposite-Spin Energy      =      -1.5409100470962773 [Eh]
	 Correlation Energy        =      -2.0424218570921284 [Eh]
	 Total Energy              =    -492.7491886192929655 [Eh]

	 ================> DF-SCS-MP2 Energies <==================
	-----------------------------------------------------------
	 SCS Same-Spin Scale       =       0.3333333333333333 [-]
	 SCS Opposite-Spin Scale   =       1.2000000000000000 [-]
	 SCS Same-Spin Energy      =      -0.1671706033319504 [Eh]
	 SCS Opposite-Spin Energy  =      -1.8490920565155327 [Eh]
	 SCS Correlation Energy    =      -2.0162626598474831 [Eh]
	 SCS Total Energy          =    -492.7230294220483415 [Eh]
	-----------------------------------------------------------

  Dipole Moment: [D]
     X:     0.5916      Y:     4.5533      Z:     0.0001     Total:     4.5916

*** Psi4 exiting successfully. Buy a developer a beer!
