                               Psi4 1.4a3.dev225

  ==> Input File <==

--------------------------------------------------------------------------
#psi4
#
memory 32 gb

molecule  {
0 1
  O        2.3212770    -1.3580180     0.0000020
  O       -2.2717460    -1.4962290     0.0000010
  N        1.1724310     0.6334210    -0.0000020
  N        0.0162060    -1.3769820    -0.0000020
  C       -1.2398930     0.6613320     0.0000000
  C       -0.0398910     1.2934770    -0.0000010
  C        1.2527440    -0.7526170    -0.0000010
  C       -1.2589250    -0.7964470     0.0000000
  C        2.4447950     1.3519700     0.0000010
  C       -2.5550880     1.3760200     0.0000010
  H        0.0310140     2.3780990    -0.0000010
  H        0.0457120    -2.3937650    -0.0000010
  H        2.2343430     2.4214070    -0.0000200
  H        3.0241620     1.0875710    -0.8862110
  H        3.0241420     1.0876020     0.8862360
  H       -3.1163768     1.1105082    -0.8388655
  H       -2.4120010     2.4600010     0.0000010
  H       -3.1432670     1.0977870     0.8790540
units angstrom
no_reorient  #important for SAPT in psi4, default
symmetry c1  #important for SAPT in psi4, default
}

set PROPERTIES_ORIGIN ["COM"]
properties('MP2/aug-cc-pvtz', properties = ['dipole'])
--------------------------------------------------------------------------

    Molecular point group: c1
  Charge       = 0
  Multiplicity = 1
  Basis Set: AUG-CC-PVTZ
    Blend: AUG-CC-PVTZ
  Basis Set: (AUG-CC-PVTZ AUX)
    Blend: AUG-CC-PVTZ-JKFIT

    Orbital Energies [Eh]
    ---------------------

    Doubly Occupied:

       1A    -20.541027     2A    -20.538034     3A    -15.638422
       4A    -15.624781     5A    -11.411428     6A    -11.375881
       7A    -11.326206     8A    -11.288613     9A    -11.256820
      10A    -11.230570    11A     -1.424817    12A     -1.387268
      13A     -1.306420    14A     -1.243508    15A     -1.109156
      16A     -0.994636    17A     -0.964678    18A     -0.915439
      19A     -0.853844    20A     -0.770931    21A     -0.735666
      22A     -0.693657    23A     -0.683024    24A     -0.650304
      25A     -0.636715    26A     -0.613986    27A     -0.609438
      28A     -0.591199    29A     -0.585925    30A     -0.558099
      31A     -0.549846    32A     -0.540869    33A     -0.492391
      34A     -0.475453    35A     -0.444217    36A     -0.430326
      37A     -0.344063

  @DF-RHF Final Energy:  -490.71156665371086

   => Energetics <=

    Nuclear Repulsion Energy =            530.9775236412027652
    One-Electron Energy =               -1721.7028682369320904
    Two-Electron Energy =                 700.0137779420185780
    Total Energy =                       -490.7115666537108609
  Basis Set: (AUG-CC-PVTZ AUX)
    Blend: AUG-CC-PVTZ-RI
    Molecular point group: c1

    Geometry (in Angstrom), charge = 0, multiplicity = 1:

       Center              X                  Y                   Z               Mass
    ------------   -----------------  -----------------  -----------------  -----------------
         O            2.318656634571    -1.292765507987    -0.000287157442    15.994914619570
         O           -2.274366365429    -1.430976507987    -0.000288157442    15.994914619570
         N            1.169810634571     0.698673492013    -0.000291157442    14.003074004430
         N            0.013585634571    -1.311729507987    -0.000291157442    14.003074004430
         C           -1.242513365429     0.726584492013    -0.000289157442    12.000000000000
         C           -0.042511365429     1.358729492013    -0.000290157442    12.000000000000
         C            1.250123634571    -0.687364507987    -0.000290157442    12.000000000000
         C           -1.261545365429    -0.731194507987    -0.000289157442    12.000000000000
         C            2.442174634571     1.417222492013    -0.000288157442    12.000000000000
         C           -2.557708365429     1.441272492013    -0.000288157442    12.000000000000
         H            0.028393634571     2.443351492013    -0.000290157442     1.007825032230
         H            0.043091634571    -2.328512507987    -0.000290157442     1.007825032230
         H            2.231722634571     2.486659492013    -0.000309157442     1.007825032230
         H            3.021541634571     1.152823492013    -0.886500157442     1.007825032230
         H            3.021521634571     1.152854492013     0.885946842558     1.007825032230
         H           -3.118997165429     1.175760692013    -0.839154657442     1.007825032230
         H           -2.414621365429     2.525253492013    -0.000288157442     1.007825032230
         H           -3.145887365429     1.163039492013     0.878764842558     1.007825032230

  Basis Set: AUG-CC-PVTZ
    Blend: AUG-CC-PVTZ
  Basis Set: (AUG-CC-PVTZ AUX)
    Blend: AUG-CC-PVTZ-JKFIT
	 Reference Energy          =    -490.7115666537108609 [Eh]
	 Singles Energy            =      -0.0000000000000000 [Eh]
	 Same-Spin Energy          =      -0.5023558226081586 [Eh]
	 Opposite-Spin Energy      =      -1.5410073652013565 [Eh]
	 Correlation Energy        =      -2.0433631878095149 [Eh]
	 Total Energy              =    -492.7549298415203793 [Eh]

	 ================> DF-SCS-MP2 Energies <==================
	-----------------------------------------------------------
	 SCS Same-Spin Scale       =       0.3333333333333333 [-]
	 SCS Opposite-Spin Scale   =       1.2000000000000000 [-]
	 SCS Same-Spin Energy      =      -0.1674519408693862 [Eh]
	 SCS Opposite-Spin Energy  =      -1.8492088382416276 [Eh]
	 SCS Correlation Energy    =      -2.0166607791110138 [Eh]
	 SCS Total Energy          =    -492.7282274328218818 [Eh]
	-----------------------------------------------------------

  Dipole Moment: [D]
     X:     1.0812      Y:     4.5162      Z:    -0.0094     Total:     4.6438

*** Psi4 exiting successfully. Buy a developer a beer!
