                               Psi4 1.3.2 release

  ==> Input File <==

--------------------------------------------------------------------------
#psi4
#
memory 32 gb

molecule  {
0 1
  O        2.3111590    -1.3984000     0.0000580
  O       -2.2718830    -1.4902890    -0.0001310
  N        1.1826080     0.6255060     0.0000550
  N        0.0153410    -1.3761840    -0.0000340
  C       -1.2346770     0.6647280    -0.0000250
  C        0.1455400     1.3819721     0.0000439
  C        1.2605820    -0.7608720     0.0000310
  C       -1.2542960    -0.7955090    -0.0000670
  C        2.4243390     1.3942650     0.0001240
  C       -2.5504790     1.3758010    -0.0000570
  H        0.0516650     2.3739750     0.0000690
  H        0.0461780    -2.3935470    -0.0000610
  H        2.4800130     2.0209940     0.8935150
  H        2.4798690     2.0213500    -0.8930780
  H        3.2466700     0.6823050    -0.0000520
  H       -3.1375530     1.0948740    -0.8785960
  H       -2.4103180     2.4605130    -0.0000230
  H       -3.1376190     1.0948280     0.8784230
units angstrom
no_reorient  #important for SAPT in psi4, default
symmetry c1  #important for SAPT in psi4, default
}

set PROPERTIES_ORIGIN ["COM"]
properties('MP2/aug-cc-pvtz', properties = ['dipole'])
--------------------------------------------------------------------------

    Molecular point group: c1
  Charge       = 0
  Multiplicity = 1
  Basis Set: AUG-CC-PVTZ
    Blend: AUG-CC-PVTZ
  Basis Set: (AUG-CC-PVTZ AUX)
    Blend: AUG-CC-PVTZ-JKFIT

    Orbital Energies [Eh]
    ---------------------

    Doubly Occupied:

       1A    -20.551152     2A    -20.524564     3A    -15.657810
       4A    -15.626410     5A    -11.426234     6A    -11.365452
       7A    -11.343080     8A    -11.294056     9A    -11.263400
      10A    -11.229462    11A     -1.436221    12A     -1.378160
      13A     -1.341540    14A     -1.248612    15A     -1.075355
      16A     -1.003146    17A     -0.983905    18A     -0.915847
      19A     -0.850215    20A     -0.788620    21A     -0.734796
      22A     -0.711252    23A     -0.698320    24A     -0.657375
      25A     -0.637476    26A     -0.618102    27A     -0.601328
      28A     -0.596032    29A     -0.577762    30A     -0.548952
      31A     -0.541066    32A     -0.526327    33A     -0.502998
      34A     -0.481230    35A     -0.434879    36A     -0.429457
      37A     -0.309037

  @DF-RHF Final Energy:  -490.65168533390545

   => Energetics <=

    Nuclear Repulsion Energy =            529.2026544655367388
    One-Electron Energy =               -1717.8894144988744301
    Two-Electron Energy =                 698.0350746994321298
    Total Energy =                       -490.6516853339054478
  Basis Set: (AUG-CC-PVTZ AUX)
    Blend: AUG-CC-PVTZ-RI
    Molecular point group: c1

    Geometry (in Angstrom), charge = 0, multiplicity = 1:

       Center              X                  Y                   Z               Mass
    ------------   -----------------  -----------------  -----------------  -----------------
         O            2.293229247098    -1.340117137294     0.000058544220    15.994914619570
         O           -2.289812752902    -1.432006137294    -0.000130455780    15.994914619570
         N            1.164678247098     0.683788862706     0.000055544220    14.003074004430
         N           -0.002588752902    -1.317901137294    -0.000033455780    14.003074004430
         C           -1.252606752902     0.723010862706    -0.000024455780    12.000000000000
         C            0.127610247098     1.440254962706     0.000044444220    12.000000000000
         C            1.242652247098    -0.702589137294     0.000031544220    12.000000000000
         C           -1.272225752902    -0.737226137294    -0.000066455780    12.000000000000
         C            2.406409247098     1.452547862706     0.000124544220    12.000000000000
         C           -2.568408752902     1.434083862706    -0.000056455780    12.000000000000
         H            0.033735247098     2.432257862706     0.000069544220     1.007825032230
         H            0.028248247098    -2.335264137294    -0.000060455780     1.007825032230
         H            2.462083247098     2.079276862706     0.893515544220     1.007825032230
         H            2.461939247098     2.079632862706    -0.893077455780     1.007825032230
         H            3.228740247098     0.740587862706    -0.000051455780     1.007825032230
         H           -3.155482752902     1.153156862706    -0.878595455780     1.007825032230
         H           -2.428247752902     2.518795862706    -0.000022455780     1.007825032230
         H           -3.155548752902     1.153110862706     0.878423544220     1.007825032230

  Basis Set: AUG-CC-PVTZ
    Blend: AUG-CC-PVTZ
  Basis Set: (AUG-CC-PVTZ AUX)
    Blend: AUG-CC-PVTZ-JKFIT
	 Reference Energy          =    -490.6516853339054478 [Eh]
	 Singles Energy            =      -0.0000000000000000 [Eh]
	 Same-Spin Energy          =      -0.5072370881601280 [Eh]
	 Opposite-Spin Energy      =      -1.5487513502771935 [Eh]
	 Correlation Energy        =      -2.0559884384373213 [Eh]
	 Total Energy              =    -492.7076737723427868 [Eh]

	 ================> DF-SCS-MP2 Energies <==================
	-----------------------------------------------------------
	 SCS Same-Spin Scale       =       0.3333333333333333 [-]
	 SCS Opposite-Spin Scale   =       1.2000000000000000 [-]
	 SCS Same-Spin Energy      =      -0.1690790293867093 [Eh]
	 SCS Opposite-Spin Energy  =      -1.8585016203326321 [Eh]
	 SCS Correlation Energy    =      -2.0275806497193414 [Eh]
	 SCS Total Energy          =    -492.6792659836248163 [Eh]
	-----------------------------------------------------------

  Dipole Moment: [D]
     X:     1.6402      Y:     4.5762      Z:     0.0002     Total:     4.8613

*** Psi4 exiting successfully. Buy a developer a beer!
