                               Psi4 1.3.2 release

  ==> Input File <==

--------------------------------------------------------------------------
#psi4
#
memory 32 gb

molecule  {
0 1
  O        2.3111590    -1.3984000     0.0000580
  O       -2.2718830    -1.4902890    -0.0001310
  N        1.1826080     0.6255060     0.0000550
  N        0.0153410    -1.3761840    -0.0000340
  C       -1.2346770     0.6647280    -0.0000250
  C       -0.0319280     1.2897490     0.0000350
  C        1.2605820    -0.7608720     0.0000310
  C       -1.2737878    -0.8401724    -0.0000690
  C        2.4243390     1.3942650     0.0001240
  C       -2.5504790     1.3758010    -0.0000570
  H        0.0516650     2.3739750     0.0000690
  H        0.0106538    -2.3940034    -0.0000624
  H        2.4800130     2.0209940     0.8935150
  H        2.4798690     2.0213500    -0.8930780
  H        3.2466700     0.6823050    -0.0000520
  H       -3.1375530     1.0948740    -0.8785960
  H       -2.4103180     2.4605130    -0.0000230
  H       -3.1376190     1.0948280     0.8784230
units angstrom
no_reorient  #important for SAPT in psi4, default
symmetry c1  #important for SAPT in psi4, default
}

set PROPERTIES_ORIGIN ["COM"]
properties('MP2/aug-cc-pvtz', properties = ['dipole'])
--------------------------------------------------------------------------

    Molecular point group: c1
  Charge       = 0
  Multiplicity = 1
  Basis Set: AUG-CC-PVTZ
    Blend: AUG-CC-PVTZ
  Basis Set: (AUG-CC-PVTZ AUX)
    Blend: AUG-CC-PVTZ-JKFIT

    Orbital Energies [Eh]
    ---------------------

    Doubly Occupied:

       1A    -20.547075     2A    -20.539087     3A    -15.633971
       4A    -15.622288     5A    -11.413538     6A    -11.376132
       7A    -11.318218     8A    -11.283440     9A    -11.258641
      10A    -11.235570    11A     -1.429622    12A     -1.408553
      13A     -1.304286    14A     -1.244643    15A     -1.101030
      16A     -0.990987    17A     -0.961927    18A     -0.904013
      19A     -0.854035    20A     -0.768453    21A     -0.727988
      22A     -0.691542    23A     -0.679967    24A     -0.657389
      25A     -0.638354    26A     -0.617902    27A     -0.612881
      28A     -0.587101    29A     -0.582485    30A     -0.554538
      31A     -0.552523    32A     -0.547584    33A     -0.484938
      34A     -0.473833    35A     -0.444812    36A     -0.435633
      37A     -0.342256

  @DF-RHF Final Energy:  -490.71169924693453

   => Energetics <=

    Nuclear Repulsion Energy =            530.1883837890813993
    One-Electron Energy =               -1720.1456944311739790
    Two-Electron Energy =                 699.2456113951579937
    Total Energy =                       -490.7116992469345860
  Basis Set: (AUG-CC-PVTZ AUX)
    Blend: AUG-CC-PVTZ-RI
    Molecular point group: c1

    Geometry (in Angstrom), charge = 0, multiplicity = 1:

       Center              X                  Y                   Z               Mass
    ------------   -----------------  -----------------  -----------------  -----------------
         O            2.310360077789    -1.328385631801     0.000059488189    15.994914619570
         O           -2.272681922211    -1.420274631801    -0.000129511811    15.994914619570
         N            1.181809077789     0.695520368199     0.000056488189    14.003074004430
         N            0.014542077789    -1.306169631801    -0.000032511811    14.003074004430
         C           -1.235475922211     0.734742368199    -0.000023511811    12.000000000000
         C           -0.032726922211     1.359763368199     0.000036488189    12.000000000000
         C            1.259783077789    -0.690857631801     0.000032488189    12.000000000000
         C           -1.274586722211    -0.770158031801    -0.000067511811    12.000000000000
         C            2.423540077789     1.464279368199     0.000125488189    12.000000000000
         C           -2.551277922211     1.445815368199    -0.000055511811    12.000000000000
         H            0.050866077789     2.443989368199     0.000070488189     1.007825032230
         H            0.009854877789    -2.323989031801    -0.000060911811     1.007825032230
         H            2.479214077789     2.091008368199     0.893516488189     1.007825032230
         H            2.479070077789     2.091364368199    -0.893076511811     1.007825032230
         H            3.245871077789     0.752319368199    -0.000050511811     1.007825032230
         H           -3.138351922211     1.164888368199    -0.878594511811     1.007825032230
         H           -2.411116922211     2.530527368199    -0.000021511811     1.007825032230
         H           -3.138417922211     1.164842368199     0.878424488189     1.007825032230

  Basis Set: AUG-CC-PVTZ
    Blend: AUG-CC-PVTZ
  Basis Set: (AUG-CC-PVTZ AUX)
    Blend: AUG-CC-PVTZ-JKFIT
	 Reference Energy          =    -490.7116992469345291 [Eh]
	 Singles Energy            =      -0.0000000000000000 [Eh]
	 Same-Spin Energy          =      -0.5012038047384547 [Eh]
	 Opposite-Spin Energy      =      -1.5395300105516334 [Eh]
	 Correlation Energy        =      -2.0407338152900882 [Eh]
	 Total Energy              =    -492.7524330622246111 [Eh]

	 ================> DF-SCS-MP2 Energies <==================
	-----------------------------------------------------------
	 SCS Same-Spin Scale       =       0.3333333333333333 [-]
	 SCS Opposite-Spin Scale   =       1.2000000000000000 [-]
	 SCS Same-Spin Energy      =      -0.1670679349128182 [Eh]
	 SCS Opposite-Spin Energy  =      -1.8474360126619600 [Eh]
	 SCS Correlation Energy    =      -2.0145039475747781 [Eh]
	 SCS Total Energy          =    -492.7262031945093099 [Eh]
	-----------------------------------------------------------

  Dipole Moment: [D]
     X:     0.7694      Y:     4.2339      Z:     0.0001     Total:     4.3033

*** Psi4 exiting successfully. Buy a developer a beer!
