                               Psi4 1.3.2 release

  ==> Input File <==

--------------------------------------------------------------------------
#psi4
#
memory 32 gb

molecule  {
0 1
  O        2.3111590    -1.3984000     0.0000580
  O       -2.2718830    -1.4902890    -0.0001310
  N        1.1826080     0.6255060     0.0000550
  N        0.0153410    -1.3761840    -0.0000340
  C       -1.2346770     0.6647280    -0.0000250
  C       -0.0212031     1.2686629     0.0000348
  C        1.2605820    -0.7608720     0.0000310
  C       -1.2288084    -0.7956290    -0.0000661
  C        2.4243390     1.3942650     0.0001240
  C       -2.5504790     1.3758010    -0.0000570
  H        0.0516650     2.3739750     0.0000690
  H        0.0461780    -2.3935470    -0.0000610
  H        2.4800130     2.0209940     0.8935150
  H        2.4798690     2.0213500    -0.8930780
  H        3.2466700     0.6823050    -0.0000520
  H       -3.1375530     1.0948740    -0.8785960
  H       -2.4103180     2.4605130    -0.0000230
  H       -3.1376190     1.0948280     0.8784230
units angstrom
no_reorient  #important for SAPT in psi4, default
symmetry c1  #important for SAPT in psi4, default
}

set PROPERTIES_ORIGIN ["COM"]
properties('MP2/aug-cc-pvtz', properties = ['dipole'])
--------------------------------------------------------------------------

    Molecular point group: c1
  Charge       = 0
  Multiplicity = 1
  Basis Set: AUG-CC-PVTZ
    Blend: AUG-CC-PVTZ
  Basis Set: (AUG-CC-PVTZ AUX)
    Blend: AUG-CC-PVTZ-JKFIT

    Orbital Energies [Eh]
    ---------------------

    Doubly Occupied:

       1A    -20.544029     2A    -20.531640     3A    -15.641665
       4A    -15.629050     5A    -11.417003     6A    -11.373960
       7A    -11.325083     8A    -11.288698     9A    -11.258569
      10A    -11.236874    11A     -1.427970    12A     -1.374546
      13A     -1.313016    14A     -1.248856    15A     -1.108308
      16A     -0.996900    17A     -0.965530    18A     -0.915890
      19A     -0.858929    20A     -0.773095    21A     -0.738771
      22A     -0.689581    23A     -0.686697    24A     -0.650506
      25A     -0.635203    26A     -0.617080    27A     -0.602454
      28A     -0.590168    29A     -0.583864    30A     -0.558255
      31A     -0.546034    32A     -0.540175    33A     -0.492632
      34A     -0.475597    35A     -0.440927    36A     -0.429328
      37A     -0.344728

  @DF-RHF Final Energy:  -490.70921193205788

   => Energetics <=

    Nuclear Repulsion Energy =            530.9439611344305376
    One-Electron Energy =               -1721.6031204252808493
    Two-Electron Energy =                 699.9499473587924285
    Total Energy =                       -490.7092119320578831
  Basis Set: (AUG-CC-PVTZ AUX)
    Blend: AUG-CC-PVTZ-RI
    Molecular point group: c1

    Geometry (in Angstrom), charge = 0, multiplicity = 1:

       Center              X                  Y                   Z               Mass
    ------------   -----------------  -----------------  -----------------  -----------------
         O            2.305331797547    -1.330398700735     0.000059246783    15.994914619570
         O           -2.277710202453    -1.422287700735    -0.000129753217    15.994914619570
         N            1.176780797547     0.693507299265     0.000056246783    14.003074004430
         N            0.009513797547    -1.308182700735    -0.000032753217    14.003074004430
         C           -1.240504202453     0.732729299265    -0.000023753217    12.000000000000
         C           -0.027030302453     1.336664199265     0.000036046783    12.000000000000
         C            1.254754797547    -0.692870700735     0.000032246783    12.000000000000
         C           -1.234635602453    -0.727627700735    -0.000064853217    12.000000000000
         C            2.418511797547     1.462266299265     0.000125246783    12.000000000000
         C           -2.556306202453     1.443802299265    -0.000055753217    12.000000000000
         H            0.045837797547     2.441976299265     0.000070246783     1.007825032230
         H            0.040350797547    -2.325545700735    -0.000059753217     1.007825032230
         H            2.474185797547     2.088995299265     0.893516246783     1.007825032230
         H            2.474041797547     2.089351299265    -0.893076753217     1.007825032230
         H            3.240842797547     0.750306299265    -0.000050753217     1.007825032230
         H           -3.143380202453     1.162875299265    -0.878594753217     1.007825032230
         H           -2.416145202453     2.528514299265    -0.000021753217     1.007825032230
         H           -3.143446202453     1.162829299265     0.878424246783     1.007825032230

  Basis Set: AUG-CC-PVTZ
    Blend: AUG-CC-PVTZ
  Basis Set: (AUG-CC-PVTZ AUX)
    Blend: AUG-CC-PVTZ-JKFIT
	 Reference Energy          =    -490.7092119320578831 [Eh]
	 Singles Energy            =      -0.0000000000000000 [Eh]
	 Same-Spin Energy          =      -0.5029729992728700 [Eh]
	 Opposite-Spin Energy      =      -1.5421243027521641 [Eh]
	 Correlation Energy        =      -2.0450973020250340 [Eh]
	 Total Energy              =    -492.7543092340829389 [Eh]

	 ================> DF-SCS-MP2 Energies <==================
	-----------------------------------------------------------
	 SCS Same-Spin Scale       =       0.3333333333333333 [-]
	 SCS Opposite-Spin Scale   =       1.2000000000000000 [-]
	 SCS Same-Spin Energy      =      -0.1676576664242900 [Eh]
	 SCS Opposite-Spin Energy  =      -1.8505491633025968 [Eh]
	 SCS Correlation Energy    =      -2.0182068297268869 [Eh]
	 SCS Total Energy          =    -492.7274187617847474 [Eh]
	-----------------------------------------------------------

  Dipole Moment: [D]
     X:     1.3560      Y:     4.5452      Z:     0.0002     Total:     4.7432

*** Psi4 exiting successfully. Buy a developer a beer!
