                               Psi4 1.3.2 release

  ==> Input File <==

--------------------------------------------------------------------------
#psi4
#
memory 32 gb

molecule  {
0 1
  O        2.3111590    -1.3984000     0.0000580
  O       -2.2718830    -1.4902890    -0.0001310
  N        1.1826080     0.6255060     0.0000550
  N        0.0153410    -1.3761840    -0.0000340
  C       -1.2346770     0.6647280    -0.0000250
  C       -0.0319280     1.2897490     0.0000350
  C        1.2605820    -0.7608720     0.0000310
  C       -1.2670381    -0.7952822    -0.0000675
  C        2.4243390     1.3942650     0.0001240
  C       -2.5566341     1.3642915    -0.0000576
  H        0.0516650     2.3739750     0.0000690
  H        0.0461780    -2.3935470    -0.0000610
  H        2.4800130     2.0209940     0.8935150
  H        2.4798690     2.0213500    -0.8930780
  H        3.2466700     0.6823050    -0.0000520
  H       -3.1375530     1.0948740    -0.8785960
  H       -2.4103180     2.4605130    -0.0000230
  H       -3.1376190     1.0948280     0.8784230
units angstrom
no_reorient  #important for SAPT in psi4, default
symmetry c1  #important for SAPT in psi4, default
}

set PROPERTIES_ORIGIN ["COM"]
properties('MP2/aug-cc-pvtz', properties = ['dipole'])
--------------------------------------------------------------------------

    Molecular point group: c1
  Charge       = 0
  Multiplicity = 1
  Basis Set: AUG-CC-PVTZ
    Blend: AUG-CC-PVTZ
  Basis Set: (AUG-CC-PVTZ AUX)
    Blend: AUG-CC-PVTZ-JKFIT

    Orbital Energies [Eh]
    ---------------------

    Doubly Occupied:

       1A    -20.541119     2A    -20.539276     3A    -15.637492
       4A    -15.622253     5A    -11.412457     6A    -11.376236
       7A    -11.325318     8A    -11.285482     9A    -11.259246
      10A    -11.237122    11A     -1.423360    12A     -1.393044
      13A     -1.306083    14A     -1.240087    15A     -1.108821
      16A     -0.992751    17A     -0.963303    18A     -0.912907
      19A     -0.850594    20A     -0.770222    21A     -0.732760
      22A     -0.692393    23A     -0.681233    24A     -0.650534
      25A     -0.637852    26A     -0.615864    27A     -0.611194
      28A     -0.588438    29A     -0.586036    30A     -0.554990
      31A     -0.545601    32A     -0.545535    33A     -0.487778
      34A     -0.475243    35A     -0.444733    36A     -0.430768
      37A     -0.346198

  @DF-RHF Final Energy:  -490.71223191414009

   => Energetics <=

    Nuclear Repulsion Energy =            530.3412466260780320
    One-Electron Energy =               -1720.4583136158323668
    Two-Electron Energy =                 699.4048350756141872
    Total Energy =                       -490.7122319141400340
  Basis Set: (AUG-CC-PVTZ AUX)
    Blend: AUG-CC-PVTZ-RI
    Molecular point group: c1

    Geometry (in Angstrom), charge = 0, multiplicity = 1:

       Center              X                  Y                   Z               Mass
    ------------   -----------------  -----------------  -----------------  -----------------
         O            2.310053510502    -1.331248922136     0.000059401004    15.994914619570
         O           -2.272988489498    -1.423137922136    -0.000129598996    15.994914619570
         N            1.181502510502     0.692657077864     0.000056401004    14.003074004430
         N            0.014235510502    -1.309032922136    -0.000032598996    14.003074004430
         C           -1.235782489498     0.731879077864    -0.000023598996    12.000000000000
         C           -0.033033489498     1.356900077864     0.000036401004    12.000000000000
         C            1.259476510502    -0.693720922136     0.000032401004    12.000000000000
         C           -1.268143589498    -0.728131122136    -0.000066098996    12.000000000000
         C            2.423233510502     1.461416077864     0.000125401004    12.000000000000
         C           -2.557739589498     1.431442577864    -0.000056198996    12.000000000000
         H            0.050559510502     2.441126077864     0.000070401004     1.007825032230
         H            0.045072510502    -2.326395922136    -0.000059598996     1.007825032230
         H            2.478907510502     2.088145077864     0.893516401004     1.007825032230
         H            2.478763510502     2.088501077864    -0.893076598996     1.007825032230
         H            3.245564510502     0.749456077864    -0.000050598996     1.007825032230
         H           -3.138658489498     1.162025077864    -0.878594598996     1.007825032230
         H           -2.411423489498     2.527664077864    -0.000021598996     1.007825032230
         H           -3.138724489498     1.161979077864     0.878424401004     1.007825032230

  Basis Set: AUG-CC-PVTZ
    Blend: AUG-CC-PVTZ
  Basis Set: (AUG-CC-PVTZ AUX)
    Blend: AUG-CC-PVTZ-JKFIT
	 Reference Energy          =    -490.7122319141400908 [Eh]
	 Singles Energy            =      -0.0000000000000000 [Eh]
	 Same-Spin Energy          =      -0.5021828218756443 [Eh]
	 Opposite-Spin Energy      =      -1.5411226067137973 [Eh]
	 Correlation Energy        =      -2.0433054285894414 [Eh]
	 Total Energy              =    -492.7555373427295535 [Eh]

	 ================> DF-SCS-MP2 Energies <==================
	-----------------------------------------------------------
	 SCS Same-Spin Scale       =       0.3333333333333333 [-]
	 SCS Opposite-Spin Scale   =       1.2000000000000000 [-]
	 SCS Same-Spin Energy      =      -0.1673942739585481 [Eh]
	 SCS Opposite-Spin Energy  =      -1.8493471280565568 [Eh]
	 SCS Correlation Energy    =      -2.0167414020151049 [Eh]
	 SCS Total Energy          =    -492.7289733161551908 [Eh]
	-----------------------------------------------------------

  Dipole Moment: [D]
     X:     0.9457      Y:     4.5005      Z:     0.0002     Total:     4.5988

*** Psi4 exiting successfully. Buy a developer a beer!
