                               Psi4 1.3.2 release

  ==> Input File <==

--------------------------------------------------------------------------
#psi4
#
memory 32 gb

molecule  {
0 1
  O        2.3111590    -1.3984000     0.0000580
  O       -2.2718830    -1.4902890    -0.0001310
  N        1.1826080     0.6255060     0.0000550
  N        0.0153410    -1.3761840    -0.0000340
  C       -1.2121314     0.6231334    -0.0000254
  C       -0.0319280     1.2897490     0.0000350
  C        1.2605820    -0.7608720     0.0000310
  C       -1.2542960    -0.7955090    -0.0000670
  C        2.4243390     1.3942650     0.0001240
  C       -2.5504790     1.3758010    -0.0000570
  H        0.0894530     2.3703972     0.0000702
  H        0.0461780    -2.3935470    -0.0000610
  H        2.4800130     2.0209940     0.8935150
  H        2.4798690     2.0213500    -0.8930780
  H        3.2466700     0.6823050    -0.0000520
  H       -3.1375530     1.0948740    -0.8785960
  H       -2.4103180     2.4605130    -0.0000230
  H       -3.1376190     1.0948280     0.8784230
units angstrom
no_reorient  #important for SAPT in psi4, default
symmetry c1  #important for SAPT in psi4, default
}

set PROPERTIES_ORIGIN ["COM"]
properties('MP2/aug-cc-pvtz', properties = ['dipole'])
--------------------------------------------------------------------------

    Molecular point group: c1
  Charge       = 0
  Multiplicity = 1
  Basis Set: AUG-CC-PVTZ
    Blend: AUG-CC-PVTZ
  Basis Set: (AUG-CC-PVTZ AUX)
    Blend: AUG-CC-PVTZ-JKFIT

    Orbital Energies [Eh]
    ---------------------

    Doubly Occupied:

       1A    -20.540077     2A    -20.536671     3A    -15.638544
       4A    -15.623426     5A    -11.413384     6A    -11.373009
       7A    -11.329165     8A    -11.286709     9A    -11.257718
      10A    -11.238432    11A     -1.424286    12A     -1.386550
      13A     -1.308228    14A     -1.243044    15A     -1.108143
      16A     -0.992799    17A     -0.961242    18A     -0.922168
      19A     -0.851768    20A     -0.772349    21A     -0.735329
      22A     -0.695920    23A     -0.683007    24A     -0.648983
      25A     -0.638284    26A     -0.616386    27A     -0.611497
      28A     -0.586607    29A     -0.581238    30A     -0.552142
      31A     -0.542896    32A     -0.541799    33A     -0.489051
      34A     -0.476457    35A     -0.445176    36A     -0.429954
      37A     -0.347310

  @DF-RHF Final Energy:  -490.70865303870062

   => Energetics <=

    Nuclear Repulsion Energy =            530.9482653089281712
    One-Electron Energy =               -1721.6543361899043703
    Two-Electron Energy =                 699.9974178422756950
    Total Energy =                       -490.7086530387006178
  Basis Set: (AUG-CC-PVTZ AUX)
    Blend: AUG-CC-PVTZ-RI
    Molecular point group: c1

    Geometry (in Angstrom), charge = 0, multiplicity = 1:

       Center              X                  Y                   Z               Mass
    ------------   -----------------  -----------------  -----------------  -----------------
         O            2.306230843574    -1.328626101007     0.000059332395    15.994914619570
         O           -2.276811156426    -1.420515101007    -0.000129667605    15.994914619570
         N            1.177679843574     0.695279898993     0.000056332395    14.003074004430
         N            0.010412843574    -1.306410101007    -0.000032667605    14.003074004430
         C           -1.217059556426     0.692907298993    -0.000024067605    12.000000000000
         C           -0.036856156426     1.359522898993     0.000036332395    12.000000000000
         C            1.255653843574    -0.691098101007     0.000032332395    12.000000000000
         C           -1.259224156426    -0.725735101007    -0.000065667605    12.000000000000
         C            2.419410843574     1.464038898993     0.000125332395    12.000000000000
         C           -2.555407156426     1.445574898993    -0.000055667605    12.000000000000
         H            0.084524843574     2.440171098993     0.000071532395     1.007825032230
         H            0.041249843574    -2.323773101007    -0.000059667605     1.007825032230
         H            2.475084843574     2.090767898993     0.893516332395     1.007825032230
         H            2.474940843574     2.091123898993    -0.893076667605     1.007825032230
         H            3.241741843574     0.752078898993    -0.000050667605     1.007825032230
         H           -3.142481156426     1.164647898993    -0.878594667605     1.007825032230
         H           -2.415246156426     2.530286898993    -0.000021667605     1.007825032230
         H           -3.142547156426     1.164601898993     0.878424332395     1.007825032230

  Basis Set: AUG-CC-PVTZ
    Blend: AUG-CC-PVTZ
  Basis Set: (AUG-CC-PVTZ AUX)
    Blend: AUG-CC-PVTZ-JKFIT
	 Reference Energy          =    -490.7086530387006178 [Eh]
	 Singles Energy            =      -0.0000000000000000 [Eh]
	 Same-Spin Energy          =      -0.5027591447455094 [Eh]
	 Opposite-Spin Energy      =      -1.5419436521181040 [Eh]
	 Correlation Energy        =      -2.0447027968636133 [Eh]
	 Total Energy              =    -492.7533558355642072 [Eh]

	 ================> DF-SCS-MP2 Energies <==================
	-----------------------------------------------------------
	 SCS Same-Spin Scale       =       0.3333333333333333 [-]
	 SCS Opposite-Spin Scale   =       1.2000000000000000 [-]
	 SCS Same-Spin Energy      =      -0.1675863815818365 [Eh]
	 SCS Opposite-Spin Energy  =      -1.8503323825417248 [Eh]
	 SCS Correlation Energy    =      -2.0179187641235612 [Eh]
	 SCS Total Energy          =    -492.7265718028241963 [Eh]
	-----------------------------------------------------------

  Dipole Moment: [D]
     X:     1.1529      Y:     4.6123      Z:     0.0002     Total:     4.7543

*** Psi4 exiting successfully. Buy a developer a beer!
