                               Psi4 1.3.2 release

  ==> Input File <==

--------------------------------------------------------------------------
#psi4
#
memory 32 gb

molecule  {
0 1
  O        2.3111590    -1.3984000     0.0000580
  O       -2.2718830    -1.4902890    -0.0001310
  N        1.1826080     0.6255060     0.0000550
  N        0.0153410    -1.3761840    -0.0000340
  C       -1.2346770     0.6647280    -0.0000250
  C       -0.0319280     1.2897490     0.0000350
  C        1.2605820    -0.7608720     0.0000310
  C       -1.2033225    -0.7953042    -0.0000650
  C        2.4243390     1.3942650     0.0001240
  C       -2.5248614     1.4212887    -0.0000547
  H        0.0516650     2.3739750     0.0000690
  H        0.0461780    -2.3935470    -0.0000610
  H        2.4800130     2.0209940     0.8935150
  H        2.4798690     2.0213500    -0.8930780
  H        3.2466700     0.6823050    -0.0000520
  H       -3.1375530     1.0948740    -0.8785960
  H       -2.4103180     2.4605130    -0.0000230
  H       -3.1376190     1.0948280     0.8784230
units angstrom
no_reorient  #important for SAPT in psi4, default
symmetry c1  #important for SAPT in psi4, default
}

set PROPERTIES_ORIGIN ["COM"]
properties('MP2/aug-cc-pvtz', properties = ['dipole'])
--------------------------------------------------------------------------

    Molecular point group: c1
  Charge       = 0
  Multiplicity = 1
  Basis Set: AUG-CC-PVTZ
    Blend: AUG-CC-PVTZ
  Basis Set: (AUG-CC-PVTZ AUX)
    Blend: AUG-CC-PVTZ-JKFIT

    Orbital Energies [Eh]
    ---------------------

    Doubly Occupied:

       1A    -20.545398     2A    -20.528259     3A    -15.641093
       4A    -15.633584     5A    -11.418551     6A    -11.376046
       7A    -11.323716     8A    -11.287994     9A    -11.261881
      10A    -11.237840    11A     -1.429145    12A     -1.366138
      13A     -1.308181    14A     -1.251908    15A     -1.110213
      16A     -0.995286    17A     -0.966373    18A     -0.919987
      19A     -0.861817    20A     -0.772711    21A     -0.744442
      22A     -0.692629    23A     -0.686320    24A     -0.649015
      25A     -0.636026    26A     -0.617454    27A     -0.603361
      28A     -0.592107    29A     -0.574990    30A     -0.564223
      31A     -0.546625    32A     -0.536072    33A     -0.488628
      34A     -0.476393    35A     -0.439671    36A     -0.427548
      37A     -0.344745

  @DF-RHF Final Energy:  -490.70224948915398

   => Energetics <=

    Nuclear Repulsion Energy =            530.5882870030864069
    One-Electron Energy =               -1720.8683328524430181
    Two-Electron Energy =                 699.5777963602026830
    Total Energy =                       -490.7022494891539282
  Basis Set: (AUG-CC-PVTZ AUX)
    Blend: AUG-CC-PVTZ-RI
    Molecular point group: c1

    Geometry (in Angstrom), charge = 0, multiplicity = 1:

       Center              X                  Y                   Z               Mass
    ------------   -----------------  -----------------  -----------------  -----------------
         O            2.301872222213    -1.336130468216     0.000058938341    15.994914619570
         O           -2.281169777787    -1.428019468216    -0.000130061659    15.994914619570
         N            1.173321222213     0.687775531784     0.000055938341    14.003074004430
         N            0.006054222213    -1.313914468216    -0.000033061659    14.003074004430
         C           -1.243963777787     0.726997531784    -0.000024061659    12.000000000000
         C           -0.041214777787     1.352018531784     0.000035938341    12.000000000000
         C            1.251295222213    -0.698602468216     0.000031938341    12.000000000000
         C           -1.212609277787    -0.733034668216    -0.000064061659    12.000000000000
         C            2.415052222213     1.456534531784     0.000124938341    12.000000000000
         C           -2.534148177787     1.483558231784    -0.000053761659    12.000000000000
         H            0.042378222213     2.436244531784     0.000069938341     1.007825032230
         H            0.036891222213    -2.331277468216    -0.000060061659     1.007825032230
         H            2.470726222213     2.083263531784     0.893515938341     1.007825032230
         H            2.470582222213     2.083619531784    -0.893077061659     1.007825032230
         H            3.237383222213     0.744574531784    -0.000051061659     1.007825032230
         H           -3.146839777787     1.157143531784    -0.878595061659     1.007825032230
         H           -2.419604777787     2.522782531784    -0.000022061659     1.007825032230
         H           -3.146905777787     1.157097531784     0.878423938341     1.007825032230

  Basis Set: AUG-CC-PVTZ
    Blend: AUG-CC-PVTZ
  Basis Set: (AUG-CC-PVTZ AUX)
    Blend: AUG-CC-PVTZ-JKFIT
	 Reference Energy          =    -490.7022494891539850 [Eh]
	 Singles Energy            =      -0.0000000000000000 [Eh]
	 Same-Spin Energy          =      -0.5033832153246436 [Eh]
	 Opposite-Spin Energy      =      -1.5431854415482222 [Eh]
	 Correlation Energy        =      -2.0465686568728660 [Eh]
	 Total Energy              =    -492.7488181460268493 [Eh]

	 ================> DF-SCS-MP2 Energies <==================
	-----------------------------------------------------------
	 SCS Same-Spin Scale       =       0.3333333333333333 [-]
	 SCS Opposite-Spin Scale   =       1.2000000000000000 [-]
	 SCS Same-Spin Energy      =      -0.1677944051082145 [Eh]
	 SCS Opposite-Spin Energy  =      -1.8518225298578666 [Eh]
	 SCS Correlation Energy    =      -2.0196169349660811 [Eh]
	 SCS Total Energy          =    -492.7218664241200941 [Eh]
	-----------------------------------------------------------

  Dipole Moment: [D]
     X:     1.4473      Y:     4.6084      Z:     0.0002     Total:     4.8303

*** Psi4 exiting successfully. Buy a developer a beer!
