                               Psi4 1.4a3.dev225

  ==> Input File <==

--------------------------------------------------------------------------
#psi4
#
memory 32 gb

molecule  {
0 1
  O        2.3212770    -1.3580180     0.0000020
  O       -2.2717460    -1.4962290     0.0000010
  N        1.1724310     0.6334210    -0.0000020
  N        0.0162060    -1.3769820    -0.0000020
  C       -1.2398930     0.6613320     0.0000000
  C       -0.0398910     1.2934770    -0.0000010
  C        1.2527440    -0.7526170    -0.0000010
  C       -1.2407227    -0.8047341    -0.0000000
  C        2.4447950     1.3519700     0.0000010
  C       -2.5550880     1.3760200     0.0000010
  H        0.0310140     2.3780990    -0.0000010
  H        0.0457120    -2.3937650    -0.0000010
  H        2.2343430     2.4214070    -0.0000200
  H        3.0241620     1.0875710    -0.8862110
  H        3.0241420     1.0876020     0.8862360
  H       -3.1432670     1.0977880    -0.8790540
  H       -2.4120010     2.4600010     0.0000010
  H       -3.1432670     1.0977870     0.8790540
units angstrom
no_reorient  #important for SAPT in psi4, default
symmetry c1  #important for SAPT in psi4, default
}

set PROPERTIES_ORIGIN ["COM"]
properties('MP2/aug-cc-pvtz', properties = ['dipole'])
--------------------------------------------------------------------------

    Molecular point group: c1
  Charge       = 0
  Multiplicity = 1
  Basis Set: AUG-CC-PVTZ
    Blend: AUG-CC-PVTZ
  Basis Set: (AUG-CC-PVTZ AUX)
    Blend: AUG-CC-PVTZ-JKFIT

    Orbital Energies [Eh]
    ---------------------

    Doubly Occupied:

       1A    -20.543085     2A    -20.535098     3A    -15.639156
       4A    -15.628177     5A    -11.413561     6A    -11.375509
       7A    -11.325124     8A    -11.289166     9A    -11.257824
      10A    -11.236254    11A     -1.426762    12A     -1.381543
      13A     -1.307329    14A     -1.248474    15A     -1.107455
      16A     -0.994150    17A     -0.963400    18A     -0.915099
      19A     -0.856907    20A     -0.771114    21A     -0.737706
      22A     -0.693466    23A     -0.684469    24A     -0.649970
      25A     -0.636564    26A     -0.613367    27A     -0.606350
      28A     -0.591374    29A     -0.581492    30A     -0.558339
      31A     -0.546573    32A     -0.538946    33A     -0.492535
      34A     -0.475812    35A     -0.443170    36A     -0.430647
      37A     -0.343424

  @DF-RHF Final Energy:  -490.71169879250783

   => Energetics <=

    Nuclear Repulsion Energy =            530.8277930324300087
    One-Electron Energy =               -1721.4002016154097419
    Two-Electron Energy =                 699.8607097904719012
    Total Energy =                       -490.7116987925078320
  Basis Set: (AUG-CC-PVTZ AUX)
    Blend: AUG-CC-PVTZ-RI
    Molecular point group: c1

    Geometry (in Angstrom), charge = 0, multiplicity = 1:

       Center              X                  Y                   Z               Mass
    ------------   -----------------  -----------------  -----------------  -----------------
         O            2.317290584832    -1.291963950967     0.000002028533    15.994914619570
         O           -2.275732415168    -1.430174950967     0.000001028533    15.994914619570
         N            1.168444584832     0.699475049033    -0.000001971467    14.003074004430
         N            0.012219584832    -1.310927950967    -0.000001971467    14.003074004430
         C           -1.243879415168     0.727386049033     0.000000028533    12.000000000000
         C           -0.043877415168     1.359531049033    -0.000000971467    12.000000000000
         C            1.248757584832    -0.686562950967    -0.000000971467    12.000000000000
         C           -1.244709115168    -0.738680050967     0.000000028533    12.000000000000
         C            2.440808584832     1.418024049033     0.000001028533    12.000000000000
         C           -2.559074415168     1.442074049033     0.000001028533    12.000000000000
         H            0.027027584832     2.444153049033    -0.000000971467     1.007825032230
         H            0.041725584832    -2.327710950967    -0.000000971467     1.007825032230
         H            2.230356584832     2.487461049033    -0.000019971467     1.007825032230
         H            3.020175584832     1.153625049033    -0.886210971467     1.007825032230
         H            3.020155584832     1.153656049033     0.886236028533     1.007825032230
         H           -3.147253415168     1.163842049033    -0.879053971467     1.007825032230
         H           -2.415987415168     2.526055049033     0.000001028533     1.007825032230
         H           -3.147253415168     1.163841049033     0.879054028533     1.007825032230

  Basis Set: AUG-CC-PVTZ
    Blend: AUG-CC-PVTZ
  Basis Set: (AUG-CC-PVTZ AUX)
    Blend: AUG-CC-PVTZ-JKFIT
	 Reference Energy          =    -490.7116987925078320 [Eh]
	 Singles Energy            =      -0.0000000000000000 [Eh]
	 Same-Spin Energy          =      -0.5024801680642956 [Eh]
	 Opposite-Spin Energy      =      -1.5415335527391791 [Eh]
	 Correlation Energy        =      -2.0440137208034748 [Eh]
	 Total Energy              =    -492.7557125133113232 [Eh]

	 ================> DF-SCS-MP2 Energies <==================
	-----------------------------------------------------------
	 SCS Same-Spin Scale       =       0.3333333333333333 [-]
	 SCS Opposite-Spin Scale   =       1.2000000000000000 [-]
	 SCS Same-Spin Energy      =      -0.1674933893547652 [Eh]
	 SCS Opposite-Spin Energy  =      -1.8498402632870148 [Eh]
	 SCS Correlation Energy    =      -2.0173336526417800 [Eh]
	 SCS Total Energy          =    -492.7290324451495849 [Eh]
	-----------------------------------------------------------

  Dipole Moment: [D]
     X:     1.2260      Y:     4.4886      Z:    -0.0000     Total:     4.6530

*** Psi4 exiting successfully. Buy a developer a beer!
