                               Psi4 1.3.2 release

  ==> Input File <==

--------------------------------------------------------------------------
#psi4
#
memory 32 gb

molecule  {
0 1
  O        2.3111590    -1.3984000     0.0000580
  O       -2.2718830    -1.4902890    -0.0001310
  N        1.1826080     0.6255060     0.0000550
  N        0.0153410    -1.3761840    -0.0000340
  C       -1.2346770     0.6647280    -0.0000250
  C       -0.0319280     1.2897490     0.0000350
  C        1.2605820    -0.7608720     0.0000310
  C       -1.2542960    -0.7955090    -0.0000670
  C        2.4243390     1.3942650     0.0001240
  C       -2.5504790     1.3758010    -0.0000570
  H        0.0670392     2.5733832     0.0000753
  H        0.0461780    -2.3935470    -0.0000610
  H        2.4800130     2.0209940     0.8935150
  H        2.4798690     2.0213500    -0.8930780
  H        3.2466700     0.6823050    -0.0000520
  H       -3.1375530     1.0948740    -0.8785960
  H       -2.4103180     2.4605130    -0.0000230
  H       -3.1376190     1.0948280     0.8784230
units angstrom
no_reorient  #important for SAPT in psi4, default
symmetry c1  #important for SAPT in psi4, default
}

set PROPERTIES_ORIGIN ["COM"]
properties('MP2/aug-cc-pvtz', properties = ['dipole'])
--------------------------------------------------------------------------

    Molecular point group: c1
  Charge       = 0
  Multiplicity = 1
  Basis Set: AUG-CC-PVTZ
    Blend: AUG-CC-PVTZ
  Basis Set: (AUG-CC-PVTZ AUX)
    Blend: AUG-CC-PVTZ-JKFIT

    Orbital Energies [Eh]
    ---------------------

    Doubly Occupied:

       1A    -20.541478     2A    -20.539333     3A    -15.640168
       4A    -15.625356     5A    -11.415131     6A    -11.377642
       7A    -11.344643     8A    -11.285775     9A    -11.260824
      10A    -11.236778    11A     -1.425047    12A     -1.387808
      13A     -1.307160    14A     -1.243442    15A     -1.107525
      16A     -0.993170    17A     -0.959957    18A     -0.906240
      19A     -0.853454    20A     -0.770221    21A     -0.734585
      22A     -0.682856    23A     -0.671287    24A     -0.649543
      25A     -0.631479    26A     -0.615854    27A     -0.591117
      28A     -0.588630    29A     -0.584018    30A     -0.554807
      31A     -0.548037    32A     -0.543721    33A     -0.488794
      34A     -0.473695    35A     -0.444731    36A     -0.431341
      37A     -0.346692

  @DF-RHF Final Energy:  -490.68921085215828

   => Energetics <=

    Nuclear Repulsion Energy =            529.3797574023764128
    One-Electron Energy =               -1718.5332603661936446
    Two-Electron Energy =                 698.4642921116587786
    Total Energy =                       -490.6892108521583395
  Basis Set: (AUG-CC-PVTZ AUX)
    Blend: AUG-CC-PVTZ-RI
    Molecular point group: c1

    Geometry (in Angstrom), charge = 0, multiplicity = 1:

       Center              X                  Y                   Z               Mass
    ------------   -----------------  -----------------  -----------------  -----------------
         O            2.308323799206    -1.333650495689     0.000059261425    15.994914619570
         O           -2.274718200794    -1.425539495689    -0.000129738575    15.994914619570
         N            1.179772799206     0.690255504311     0.000056261425    14.003074004430
         N            0.012505799206    -1.311434495689    -0.000032738575    14.003074004430
         C           -1.237512200794     0.729477504311    -0.000023738575    12.000000000000
         C           -0.034763200794     1.354498504311     0.000036261425    12.000000000000
         C            1.257746799206    -0.696122495689     0.000032261425    12.000000000000
         C           -1.257131200794    -0.730759495689    -0.000065738575    12.000000000000
         C            2.421503799206     1.459014504311     0.000125261425    12.000000000000
         C           -2.553314200794     1.440550504311    -0.000055738575    12.000000000000
         H            0.064203999206     2.638132704311     0.000076561425     1.007825032230
         H            0.043342799206    -2.328797495689    -0.000059738575     1.007825032230
         H            2.477177799206     2.085743504311     0.893516261425     1.007825032230
         H            2.477033799206     2.086099504311    -0.893076738575     1.007825032230
         H            3.243834799206     0.747054504311    -0.000050738575     1.007825032230
         H           -3.140388200794     1.159623504311    -0.878594738575     1.007825032230
         H           -2.413153200794     2.525262504311    -0.000021738575     1.007825032230
         H           -3.140454200794     1.159577504311     0.878424261425     1.007825032230

  Basis Set: AUG-CC-PVTZ
    Blend: AUG-CC-PVTZ
  Basis Set: (AUG-CC-PVTZ AUX)
    Blend: AUG-CC-PVTZ-JKFIT
	 Reference Energy          =    -490.6892108521582827 [Eh]
	 Singles Energy            =      -0.0000000000000000 [Eh]
	 Same-Spin Energy          =      -0.5032393633187682 [Eh]
	 Opposite-Spin Energy      =      -1.5438864420048248 [Eh]
	 Correlation Energy        =      -2.0471258053235930 [Eh]
	 Total Energy              =    -492.7363366574818997 [Eh]

	 ================> DF-SCS-MP2 Energies <==================
	-----------------------------------------------------------
	 SCS Same-Spin Scale       =       0.3333333333333333 [-]
	 SCS Opposite-Spin Scale   =       1.2000000000000000 [-]
	 SCS Same-Spin Energy      =      -0.1677464544395894 [Eh]
	 SCS Opposite-Spin Energy  =      -1.8526637304057898 [Eh]
	 SCS Correlation Energy    =      -2.0204101848453790 [Eh]
	 SCS Total Energy          =    -492.7096210370036715 [Eh]
	-----------------------------------------------------------

  Dipole Moment: [D]
     X:     1.0597      Y:     4.4702      Z:     0.0002     Total:     4.5941

*** Psi4 exiting successfully. Buy a developer a beer!
