                               Psi4 1.4a3.dev225

  ==> Input File <==

--------------------------------------------------------------------------
#psi4
#
memory 32 gb

molecule  {
0 1
  O        2.3212770    -1.3580180     0.0000020
  O       -2.2717460    -1.4962290     0.0000010
  N        1.1724310     0.6334210    -0.0000020
  N        0.0162060    -1.3769820    -0.0000020
  C       -1.2398930     0.6613320     0.0000000
  C       -0.0398910     1.2934770    -0.0000010
  C        1.2527440    -0.7526170    -0.0000010
  C       -1.2582723    -0.7464513     0.0000000
  C        2.4447950     1.3519700     0.0000010
  C       -2.5550880     1.3760200     0.0000010
  H        0.0310140     2.3780990    -0.0000010
  H        0.0457120    -2.3937650    -0.0000010
  H        2.2343430     2.4214070    -0.0000200
  H        3.0241620     1.0875710    -0.8862110
  H        3.0241420     1.0876020     0.8862360
  H       -3.1432670     1.0977880    -0.8790540
  H       -2.4120010     2.4600010     0.0000010
  H       -3.1432670     1.0977870     0.8790540
units angstrom
no_reorient  #important for SAPT in psi4, default
symmetry c1  #important for SAPT in psi4, default
}

set PROPERTIES_ORIGIN ["COM"]
properties('MP2/aug-cc-pvtz', properties = ['dipole'])
--------------------------------------------------------------------------

    Molecular point group: c1
  Charge       = 0
  Multiplicity = 1
  Basis Set: AUG-CC-PVTZ
    Blend: AUG-CC-PVTZ
  Basis Set: (AUG-CC-PVTZ AUX)
    Blend: AUG-CC-PVTZ-JKFIT

    Orbital Energies [Eh]
    ---------------------

    Doubly Occupied:

       1A    -20.540454     2A    -20.532425     3A    -15.642884
       4A    -15.623738     5A    -11.410305     6A    -11.375466
       7A    -11.334594     8A    -11.291072     9A    -11.256400
      10A    -11.238051    11A     -1.423602    12A     -1.369116
      13A     -1.308043    14A     -1.236186    15A     -1.118104
      16A     -0.996031    17A     -0.963700    18A     -0.923908
      19A     -0.848299    20A     -0.773861    21A     -0.738438
      22A     -0.696258    23A     -0.684334    24A     -0.646837
      25A     -0.635086    26A     -0.611473    27A     -0.605878
      28A     -0.592457    29A     -0.582397    30A     -0.558851
      31A     -0.549753    32A     -0.533185    33A     -0.494365
      34A     -0.475821    35A     -0.441022    36A     -0.424886
      37A     -0.347599

  @DF-RHF Final Energy:  -490.70564933819736

   => Energetics <=

    Nuclear Repulsion Energy =            530.8901032055613314
    One-Electron Energy =               -1721.5417443206636108
    Two-Electron Energy =                 699.9459917769050890
    Total Energy =                       -490.7056493381973041
  Basis Set: (AUG-CC-PVTZ AUX)
    Blend: AUG-CC-PVTZ-RI
    Molecular point group: c1

    Geometry (in Angstrom), charge = 0, multiplicity = 1:

       Center              X                  Y                   Z               Mass
    ------------   -----------------  -----------------  -----------------  -----------------
         O            2.318794207128    -1.296957530171     0.000002028533    15.994914619570
         O           -2.274228792872    -1.435168530171     0.000001028533    15.994914619570
         N            1.169948207128     0.694481469829    -0.000001971467    14.003074004430
         N            0.013723207128    -1.315921530171    -0.000001971467    14.003074004430
         C           -1.242375792872     0.722392469829     0.000000028533    12.000000000000
         C           -0.042373792872     1.354537469829    -0.000000971467    12.000000000000
         C            1.250261207128    -0.691556530171    -0.000000971467    12.000000000000
         C           -1.260755092872    -0.685390830171     0.000000028533    12.000000000000
         C            2.442312207128     1.413030469829     0.000001028533    12.000000000000
         C           -2.557570792872     1.437080469829     0.000001028533    12.000000000000
         H            0.028531207128     2.439159469829    -0.000000971467     1.007825032230
         H            0.043229207128    -2.332704530171    -0.000000971467     1.007825032230
         H            2.231860207128     2.482467469829    -0.000019971467     1.007825032230
         H            3.021679207128     1.148631469829    -0.886210971467     1.007825032230
         H            3.021659207128     1.148662469829     0.886236028533     1.007825032230
         H           -3.145749792872     1.158848469829    -0.879053971467     1.007825032230
         H           -2.414483792872     2.521061469829     0.000001028533     1.007825032230
         H           -3.145749792872     1.158847469829     0.879054028533     1.007825032230

  Basis Set: AUG-CC-PVTZ
    Blend: AUG-CC-PVTZ
  Basis Set: (AUG-CC-PVTZ AUX)
    Blend: AUG-CC-PVTZ-JKFIT
	 Reference Energy          =    -490.7056493381973610 [Eh]
	 Singles Energy            =      -0.0000000000000000 [Eh]
	 Same-Spin Energy          =      -0.5036187582952490 [Eh]
	 Opposite-Spin Energy      =      -1.5433283587635613 [Eh]
	 Correlation Energy        =      -2.0469471170588105 [Eh]
	 Total Energy              =    -492.7525964552561959 [Eh]

	 ================> DF-SCS-MP2 Energies <==================
	-----------------------------------------------------------
	 SCS Same-Spin Scale       =       0.3333333333333333 [-]
	 SCS Opposite-Spin Scale   =       1.2000000000000000 [-]
	 SCS Same-Spin Energy      =      -0.1678729194317497 [Eh]
	 SCS Opposite-Spin Energy  =      -1.8519940305162734 [Eh]
	 SCS Correlation Energy    =      -2.0198669499480233 [Eh]
	 SCS Total Energy          =    -492.7255162881453998 [Eh]
	-----------------------------------------------------------

  Dipole Moment: [D]
     X:     1.2197      Y:     4.7993      Z:    -0.0000     Total:     4.9518

*** Psi4 exiting successfully. Buy a developer a beer!
