                               Psi4 1.3.2 release

  ==> Input File <==

--------------------------------------------------------------------------
#psi4
#
memory 32 gb

molecule  {
0 1
  O        2.3111590    -1.3984000     0.0000580
  O       -2.2718830    -1.4902890    -0.0001310
  N        1.1826080     0.6255060     0.0000550
  N        0.0153410    -1.3761840    -0.0000340
  C       -1.2346770     0.6647280    -0.0000250
  C       -0.0319280     1.2897490     0.0000350
  C        1.2605820    -0.7608720     0.0000310
  C       -1.2542960    -0.7955090    -0.0000670
  C        2.4243390     1.3942650     0.0001240
  C       -2.7264299     1.4708867    -0.0000613
  H        0.0516650     2.3739750     0.0000690
  H        0.0461780    -2.3935470    -0.0000610
  H        2.4800130     2.0209940     0.8935150
  H        2.4798690     2.0213500    -0.8930780
  H        3.2466700     0.6823050    -0.0000520
  H       -3.1375530     1.0948740    -0.8785960
  H       -2.4103180     2.4605130    -0.0000230
  H       -3.1376190     1.0948280     0.8784230
units angstrom
no_reorient  #important for SAPT in psi4, default
symmetry c1  #important for SAPT in psi4, default
}

set PROPERTIES_ORIGIN ["COM"]
properties('MP2/aug-cc-pvtz', properties = ['dipole'])
--------------------------------------------------------------------------

    Molecular point group: c1
  Charge       = 0
  Multiplicity = 1
  Basis Set: AUG-CC-PVTZ
    Blend: AUG-CC-PVTZ
  Basis Set: (AUG-CC-PVTZ AUX)
    Blend: AUG-CC-PVTZ-JKFIT

    Orbital Energies [Eh]
    ---------------------

    Doubly Occupied:

       1A    -20.539380     2A    -20.536363     3A    -15.636601
       4A    -15.623296     5A    -11.412487     6A    -11.374989
       7A    -11.323420     8A    -11.284929     9A    -11.262681
      10A    -11.241042    11A     -1.422719    12A     -1.384962
      13A     -1.305154    14A     -1.241461    15A     -1.091405
      16A     -0.989854    17A     -0.965332    18A     -0.915067
      19A     -0.854402    20A     -0.765945    21A     -0.730295
      22A     -0.690769    23A     -0.680512    24A     -0.647184
      25A     -0.635588    26A     -0.618003    27A     -0.616431
      28A     -0.601542    29A     -0.580967    30A     -0.579503
      31A     -0.546935    32A     -0.498707    33A     -0.489659
      34A     -0.472478    35A     -0.440601    36A     -0.429643
      37A     -0.347526

  @DF-RHF Final Energy:  -490.68528835333774

   => Energetics <=

    Nuclear Repulsion Energy =            526.8179012684488498
    One-Electron Energy =               -1713.4507181401013440
    Two-Electron Energy =                 695.9475285183146980
    Total Energy =                       -490.6852883533377963
  Basis Set: (AUG-CC-PVTZ AUX)
    Blend: AUG-CC-PVTZ-RI
    Molecular point group: c1

    Geometry (in Angstrom), charge = 0, multiplicity = 1:

       Center              X                  Y                   Z               Mass
    ------------   -----------------  -----------------  -----------------  -----------------
         O            2.323509626033    -1.340362400388     0.000059675175    15.994914619570
         O           -2.259532373967    -1.432251400388    -0.000129324825    15.994914619570
         N            1.194958626033     0.683543599612     0.000056675175    14.003074004430
         N            0.027691626033    -1.318146400388    -0.000032324825    14.003074004430
         C           -1.222326373967     0.722765599612    -0.000023324825    12.000000000000
         C           -0.019577373967     1.347786599612     0.000036675175    12.000000000000
         C            1.272932626033    -0.702834400388     0.000032675175    12.000000000000
         C           -1.241945373967    -0.737471400388    -0.000065324825    12.000000000000
         C            2.436689626033     1.452302599612     0.000125675175    12.000000000000
         C           -2.714079273967     1.528924299612    -0.000059624825    12.000000000000
         H            0.064015626033     2.432012599612     0.000070675175     1.007825032230
         H            0.058528626033    -2.335509400388    -0.000059324825     1.007825032230
         H            2.492363626033     2.079031599612     0.893516675175     1.007825032230
         H            2.492219626033     2.079387599612    -0.893076324825     1.007825032230
         H            3.259020626033     0.740342599612    -0.000050324825     1.007825032230
         H           -3.125202373967     1.152911599612    -0.878594324825     1.007825032230
         H           -2.397967373967     2.518550599612    -0.000021324825     1.007825032230
         H           -3.125268373967     1.152865599612     0.878424675175     1.007825032230

  Basis Set: AUG-CC-PVTZ
    Blend: AUG-CC-PVTZ
  Basis Set: (AUG-CC-PVTZ AUX)
    Blend: AUG-CC-PVTZ-JKFIT
	 Reference Energy          =    -490.6852883533377394 [Eh]
	 Singles Energy            =      -0.0000000000000000 [Eh]
	 Same-Spin Energy          =      -0.5018711738422710 [Eh]
	 Opposite-Spin Energy      =      -1.5420317495800906 [Eh]
	 Correlation Energy        =      -2.0439029234223618 [Eh]
	 Total Energy              =    -492.7291912767601048 [Eh]

	 ================> DF-SCS-MP2 Energies <==================
	-----------------------------------------------------------
	 SCS Same-Spin Scale       =       0.3333333333333333 [-]
	 SCS Opposite-Spin Scale   =       1.2000000000000000 [-]
	 SCS Same-Spin Energy      =      -0.1672903912807570 [Eh]
	 SCS Opposite-Spin Energy  =      -1.8504380994961087 [Eh]
	 SCS Correlation Energy    =      -2.0177284907768658 [Eh]
	 SCS Total Energy          =    -492.7030168441145861 [Eh]
	-----------------------------------------------------------

  Dipole Moment: [D]
     X:     1.0149      Y:     4.5688      Z:     0.0002     Total:     4.6801

*** Psi4 exiting successfully. Buy a developer a beer!
