                               Psi4 1.3.2 release

  ==> Input File <==

--------------------------------------------------------------------------
#psi4
#
memory 32 gb

molecule  {
0 1
  O        2.3111590    -1.3984000     0.0000580
  O       -2.2718830    -1.4902890    -0.0001310
  N        1.1826080     0.6255060     0.0000550
  N        0.0153410    -1.3761840    -0.0000340
  C       -1.2346770     0.6647280    -0.0000250
  C       -0.0319280     1.2897490     0.0000350
  C        1.2847658    -0.7593000     0.0000321
  C       -1.2542960    -0.7955090    -0.0000670
  C        2.4375666     1.3724767     0.0001241
  C       -2.5504790     1.3758010    -0.0000570
  H        0.0516650     2.3739750     0.0000690
  H        0.0461780    -2.3935470    -0.0000610
  H        2.4800130     2.0209940     0.8935150
  H        2.4798690     2.0213500    -0.8930780
  H        3.2466700     0.6823050    -0.0000520
  H       -3.1375530     1.0948740    -0.8785960
  H       -2.4103180     2.4605130    -0.0000230
  H       -3.1376190     1.0948280     0.8784230
units angstrom
no_reorient  #important for SAPT in psi4, default
symmetry c1  #important for SAPT in psi4, default
}

set PROPERTIES_ORIGIN ["COM"]
properties('MP2/aug-cc-pvtz', properties = ['dipole'])
--------------------------------------------------------------------------

    Molecular point group: c1
  Charge       = 0
  Multiplicity = 1
  Basis Set: AUG-CC-PVTZ
    Blend: AUG-CC-PVTZ
  Basis Set: (AUG-CC-PVTZ AUX)
    Blend: AUG-CC-PVTZ-JKFIT

    Orbital Energies [Eh]
    ---------------------

    Doubly Occupied:

       1A    -20.545938     2A    -20.536206     3A    -15.637429
       4A    -15.620392     5A    -11.413848     6A    -11.373969
       7A    -11.324691     8A    -11.286356     9A    -11.259083
      10A    -11.236467    11A     -1.432587    12A     -1.387036
      13A     -1.309804    14A     -1.236226    15A     -1.108582
      16A     -0.992728    17A     -0.962845    18A     -0.912020
      19A     -0.848679    20A     -0.769934    21A     -0.731014
      22A     -0.693738    23A     -0.680769    24A     -0.649027
      25A     -0.643342    26A     -0.611296    27A     -0.611147
      28A     -0.590957    29A     -0.584149    30A     -0.557630
      31A     -0.547632    32A     -0.544247    33A     -0.487872
      34A     -0.479733    35A     -0.442757    36A     -0.429207
      37A     -0.345394

  @DF-RHF Final Energy:  -490.71119189309582

   => Energetics <=

    Nuclear Repulsion Energy =            530.3286696897816910
    One-Electron Energy =               -1720.4302508549239974
    Two-Electron Energy =                 699.3903892720464910
    Total Energy =                       -490.7111918930958154
  Basis Set: (AUG-CC-PVTZ AUX)
    Blend: AUG-CC-PVTZ-RI
    Molecular point group: c1

    Geometry (in Angstrom), charge = 0, multiplicity = 1:

       Center              X                  Y                   Z               Mass
    ------------   -----------------  -----------------  -----------------  -----------------
         O            2.305229077668    -1.330483505252     0.000059203944    15.994914619570
         O           -2.277812922332    -1.422372505252    -0.000129796056    15.994914619570
         N            1.176678077668     0.693422494748     0.000056203944    14.003074004430
         N            0.009411077668    -1.308267505252    -0.000032796056    14.003074004430
         C           -1.240606922332     0.732644494748    -0.000023796056    12.000000000000
         C           -0.037857922332     1.357665494748     0.000036203944    12.000000000000
         C            1.278835877668    -0.691383505252     0.000033303944    12.000000000000
         C           -1.260225922332    -0.727592505252    -0.000065796056    12.000000000000
         C            2.431636677668     1.440393194748     0.000125303944    12.000000000000
         C           -2.556408922332     1.443717494748    -0.000055796056    12.000000000000
         H            0.045735077668     2.441891494748     0.000070203944     1.007825032230
         H            0.040248077668    -2.325630505252    -0.000059796056     1.007825032230
         H            2.474083077668     2.088910494748     0.893516203944     1.007825032230
         H            2.473939077668     2.089266494748    -0.893076796056     1.007825032230
         H            3.240740077668     0.750221494748    -0.000050796056     1.007825032230
         H           -3.143482922332     1.162790494748    -0.878594796056     1.007825032230
         H           -2.416247922332     2.528429494748    -0.000021796056     1.007825032230
         H           -3.143548922332     1.162744494748     0.878424203944     1.007825032230

  Basis Set: AUG-CC-PVTZ
    Blend: AUG-CC-PVTZ
  Basis Set: (AUG-CC-PVTZ AUX)
    Blend: AUG-CC-PVTZ-JKFIT
	 Reference Energy          =    -490.7111918930958154 [Eh]
	 Singles Energy            =      -0.0000000000000000 [Eh]
	 Same-Spin Energy          =      -0.5020701984978677 [Eh]
	 Opposite-Spin Energy      =      -1.5410188653506927 [Eh]
	 Correlation Energy        =      -2.0430890638485604 [Eh]
	 Total Energy              =    -492.7542809569443989 [Eh]

	 ================> DF-SCS-MP2 Energies <==================
	-----------------------------------------------------------
	 SCS Same-Spin Scale       =       0.3333333333333333 [-]
	 SCS Opposite-Spin Scale   =       1.2000000000000000 [-]
	 SCS Same-Spin Energy      =      -0.1673567328326226 [Eh]
	 SCS Opposite-Spin Energy  =      -1.8492226384208310 [Eh]
	 SCS Correlation Energy    =      -2.0165793712534534 [Eh]
	 SCS Total Energy          =    -492.7277712643492578 [Eh]
	-----------------------------------------------------------

  Dipole Moment: [D]
     X:     1.2531      Y:     4.4811      Z:     0.0002     Total:     4.6530

*** Psi4 exiting successfully. Buy a developer a beer!
