                               Psi4 1.3.2 release

  ==> Input File <==

--------------------------------------------------------------------------
#psi4
#
memory 32 gb

molecule  {
0 1
  O        2.3111590    -1.3984000     0.0000580
  O       -2.2718830    -1.4902890    -0.0001310
  N        1.1826080     0.6255060     0.0000550
  N        0.0153410    -1.3761840    -0.0000340
  C       -1.2346770     0.6647280    -0.0000250
  C       -0.0319280     1.2897490     0.0000350
  C        1.2605820    -0.7608720     0.0000310
  C       -1.2642368    -0.8177557    -0.0000680
  C        2.4243390     1.3942650     0.0001240
  C       -2.5504790     1.3758010    -0.0000570
  H        0.0516650     2.3739750     0.0000690
  H        0.0284179    -2.3939302    -0.0000617
  H        2.4800130     2.0209940     0.8935150
  H        2.4798690     2.0213500    -0.8930780
  H        3.2466700     0.6823050    -0.0000520
  H       -3.1375530     1.0948740    -0.8785960
  H       -2.4103180     2.4605130    -0.0000230
  H       -3.1376190     1.0948280     0.8784230
units angstrom
no_reorient  #important for SAPT in psi4, default
symmetry c1  #important for SAPT in psi4, default
}

set PROPERTIES_ORIGIN ["COM"]
properties('MP2/aug-cc-pvtz', properties = ['dipole'])
--------------------------------------------------------------------------

    Molecular point group: c1
  Charge       = 0
  Multiplicity = 1
  Basis Set: AUG-CC-PVTZ
    Blend: AUG-CC-PVTZ
  Basis Set: (AUG-CC-PVTZ AUX)
    Blend: AUG-CC-PVTZ-JKFIT

    Orbital Energies [Eh]
    ---------------------

    Doubly Occupied:

       1A    -20.542865     2A    -20.539781     3A    -15.636030
       4A    -15.623414     5A    -11.413606     6A    -11.376213
       7A    -11.321553     8A    -11.284685     9A    -11.259270
      10A    -11.236366    11A     -1.425094    12A     -1.399173
      13A     -1.305578    14A     -1.243886    15A     -1.104963
      16A     -0.992040    17A     -0.962874    18A     -0.909132
      19A     -0.853365    20A     -0.769505    21A     -0.731404
      22A     -0.691623    23A     -0.681003    24A     -0.653014
      25A     -0.638300    26A     -0.616498    27A     -0.611708
      28A     -0.587978    29A     -0.583244    30A     -0.554691
      31A     -0.547846    32A     -0.547824    33A     -0.486467
      34A     -0.474729    35A     -0.445091    36A     -0.433226
      37A     -0.344131

  @DF-RHF Final Energy:  -490.71293220432057

   => Energetics <=

    Nuclear Repulsion Energy =            530.2757805054842493
    One-Electron Energy =               -1720.3210898889658438
    Two-Electron Energy =                 699.3323771791610852
    Total Energy =                       -490.7129322043206230
  Basis Set: (AUG-CC-PVTZ AUX)
    Blend: AUG-CC-PVTZ-RI
    Molecular point group: c1

    Geometry (in Angstrom), charge = 0, multiplicity = 1:

       Center              X                  Y                   Z               Mass
    ------------   -----------------  -----------------  -----------------  -----------------
         O            2.309413937202    -1.330306786346     0.000059397474    15.994914619570
         O           -2.273628062798    -1.422195786346    -0.000129602526    15.994914619570
         N            1.180862937202     0.693599213654     0.000056397474    14.003074004430
         N            0.013595937202    -1.308090786346    -0.000032602526    14.003074004430
         C           -1.236422062798     0.732821213654    -0.000023602526    12.000000000000
         C           -0.033673062798     1.357842213654     0.000036397474    12.000000000000
         C            1.258836937202    -0.692778786346     0.000032397474    12.000000000000
         C           -1.265981862798    -0.749662486346    -0.000066602526    12.000000000000
         C            2.422593937202     1.462358213654     0.000125397474    12.000000000000
         C           -2.552224062798     1.443894213654    -0.000055602526    12.000000000000
         H            0.049919937202     2.442068213654     0.000070397474     1.007825032230
         H            0.026672837202    -2.325836986346    -0.000060302526     1.007825032230
         H            2.478267937202     2.089087213654     0.893516397474     1.007825032230
         H            2.478123937202     2.089443213654    -0.893076602526     1.007825032230
         H            3.244924937202     0.750398213654    -0.000050602526     1.007825032230
         H           -3.139298062798     1.162967213654    -0.878594602526     1.007825032230
         H           -2.412063062798     2.528606213654    -0.000021602526     1.007825032230
         H           -3.139364062798     1.162921213654     0.878424397474     1.007825032230

  Basis Set: AUG-CC-PVTZ
    Blend: AUG-CC-PVTZ
  Basis Set: (AUG-CC-PVTZ AUX)
    Blend: AUG-CC-PVTZ-JKFIT
	 Reference Energy          =    -490.7129322043205661 [Eh]
	 Singles Energy            =      -0.0000000000000000 [Eh]
	 Same-Spin Energy          =      -0.5017620571170315 [Eh]
	 Opposite-Spin Energy      =      -1.5404391285941768 [Eh]
	 Correlation Energy        =      -2.0422011857112081 [Eh]
	 Total Energy              =    -492.7551333900318014 [Eh]

	 ================> DF-SCS-MP2 Energies <==================
	-----------------------------------------------------------
	 SCS Same-Spin Scale       =       0.3333333333333333 [-]
	 SCS Opposite-Spin Scale   =       1.2000000000000000 [-]
	 SCS Same-Spin Energy      =      -0.1672540190390105 [Eh]
	 SCS Opposite-Spin Energy  =      -1.8485269543130121 [Eh]
	 SCS Correlation Energy    =      -2.0157809733520224 [Eh]
	 SCS Total Energy          =    -492.7287131776726028 [Eh]
	-----------------------------------------------------------

  Dipole Moment: [D]
     X:     0.9088      Y:     4.3801      Z:     0.0002     Total:     4.4734

*** Psi4 exiting successfully. Buy a developer a beer!
