                               Psi4 1.3.2 release

  ==> Input File <==

--------------------------------------------------------------------------
#psi4
#
memory 32 gb

molecule  {
0 1
  O        2.3430849    -1.3425433     0.0000603
  O       -2.2718830    -1.4902890    -0.0001310
  N        1.2552723     0.6276869     0.0000578
  N        0.0153410    -1.3761840    -0.0000340
  C       -1.2346770     0.6647280    -0.0000250
  C       -0.0319280     1.2897490     0.0000350
  C        1.2605820    -0.7608720     0.0000310
  C       -1.2542960    -0.7955090    -0.0000670
  C        2.4243390     1.3942650     0.0001240
  C       -2.5504790     1.3758010    -0.0000570
  H        0.0516650     2.3739750     0.0000690
  H        0.0461780    -2.3935470    -0.0000610
  H        2.4800130     2.0209940     0.8935150
  H        2.4798690     2.0213500    -0.8930780
  H        3.2466700     0.6823050    -0.0000520
  H       -3.1375530     1.0948740    -0.8785960
  H       -2.4103180     2.4605130    -0.0000230
  H       -3.1376190     1.0948280     0.8784230
units angstrom
no_reorient  #important for SAPT in psi4, default
symmetry c1  #important for SAPT in psi4, default
}

set PROPERTIES_ORIGIN ["COM"]
properties('MP2/aug-cc-pvtz', properties = ['dipole'])
--------------------------------------------------------------------------

    Molecular point group: c1
  Charge       = 0
  Multiplicity = 1
  Basis Set: AUG-CC-PVTZ
    Blend: AUG-CC-PVTZ
  Basis Set: (AUG-CC-PVTZ AUX)
    Blend: AUG-CC-PVTZ-JKFIT

    Orbital Energies [Eh]
    ---------------------

    Doubly Occupied:

       1A    -20.544651     2A    -20.535916     3A    -15.632612
       4A    -15.630477     5A    -11.412329     6A    -11.381690
       7A    -11.327795     8A    -11.275369     9A    -11.266206
      10A    -11.240635    11A     -1.423675    12A     -1.391791
      13A     -1.296173    14A     -1.249316    15A     -1.113079
      16A     -0.993817    17A     -0.961303    18A     -0.913747
      19A     -0.849781    20A     -0.768824    21A     -0.740328
      22A     -0.686596    23A     -0.681954    24A     -0.658115
      25A     -0.636235    26A     -0.617983    27A     -0.617093
      28A     -0.589079    29A     -0.585630    30A     -0.553723
      31A     -0.544299    32A     -0.543949    33A     -0.473217
      34A     -0.471966    35A     -0.448639    36A     -0.434638
      37A     -0.350690

  @DF-RHF Final Energy:  -490.70340485077816

   => Energetics <=

    Nuclear Repulsion Energy =            529.9659630517331834
    One-Electron Energy =               -1719.6520964564836049
    Two-Electron Energy =                 698.9827285539721515
    Total Energy =                       -490.7034048507781563
  Basis Set: (AUG-CC-PVTZ AUX)
    Blend: AUG-CC-PVTZ-RI
    Molecular point group: c1

    Geometry (in Angstrom), charge = 0, multiplicity = 1:

       Center              X                  Y                   Z               Mass
    ------------   -----------------  -----------------  -----------------  -----------------
         O            2.329449353106    -1.282955877790     0.000061064150    15.994914619570
         O           -2.285518546894    -1.430701577790    -0.000130235850    15.994914619570
         N            1.241636753106     0.687274322210     0.000058564150    14.003074004430
         N            0.001705453106    -1.316596577790    -0.000033235850    14.003074004430
         C           -1.248312546894     0.724315422210    -0.000024235850    12.000000000000
         C           -0.045563546894     1.349336422210     0.000035764150    12.000000000000
         C            1.246946453106    -0.701284577790     0.000031764150    12.000000000000
         C           -1.267931546894    -0.735921577790    -0.000066235850    12.000000000000
         C            2.410703453106     1.453852422210     0.000124764150    12.000000000000
         C           -2.564114546894     1.435388422210    -0.000056235850    12.000000000000
         H            0.038029453106     2.433562422210     0.000069764150     1.007825032230
         H            0.032542453106    -2.333959577790    -0.000060235850     1.007825032230
         H            2.466377453106     2.080581422210     0.893515764150     1.007825032230
         H            2.466233453106     2.080937422210    -0.893077235850     1.007825032230
         H            3.233034453106     0.741892422210    -0.000051235850     1.007825032230
         H           -3.151188546894     1.154461422210    -0.878595235850     1.007825032230
         H           -2.423953546894     2.520100422210    -0.000022235850     1.007825032230
         H           -3.151254546894     1.154415422210     0.878423764150     1.007825032230

  Basis Set: AUG-CC-PVTZ
    Blend: AUG-CC-PVTZ
  Basis Set: (AUG-CC-PVTZ AUX)
    Blend: AUG-CC-PVTZ-JKFIT
	 Reference Energy          =    -490.7034048507781563 [Eh]
	 Singles Energy            =      -0.0000000000000000 [Eh]
	 Same-Spin Energy          =      -0.5023346627413223 [Eh]
	 Opposite-Spin Energy      =      -1.5418955822694316 [Eh]
	 Correlation Energy        =      -2.0442302450107537 [Eh]
	 Total Energy              =    -492.7476350957888940 [Eh]

	 ================> DF-SCS-MP2 Energies <==================
	-----------------------------------------------------------
	 SCS Same-Spin Scale       =       0.3333333333333333 [-]
	 SCS Opposite-Spin Scale   =       1.2000000000000000 [-]
	 SCS Same-Spin Energy      =      -0.1674448875804408 [Eh]
	 SCS Opposite-Spin Energy  =      -1.8502746987233178 [Eh]
	 SCS Correlation Energy    =      -2.0177195863037585 [Eh]
	 SCS Total Energy          =    -492.7211244370819259 [Eh]
	-----------------------------------------------------------

  Dipole Moment: [D]
     X:     0.5619      Y:     4.2902      Z:     0.0001     Total:     4.3268

*** Psi4 exiting successfully. Buy a developer a beer!
