                               Psi4 1.3.2 release

  ==> Input File <==

--------------------------------------------------------------------------
#psi4
#
memory 32 gb

molecule  {
0 1
  O        2.3111590    -1.3984000     0.0000580
  O       -2.2718830    -1.4902890    -0.0001310
  N        1.1826080     0.6255060     0.0000550
  N        0.0153410    -1.3761840    -0.0000340
  C       -1.2346770     0.6647280    -0.0000250
  C       -0.0319280     1.2897490     0.0000350
  C        1.2605820    -0.7608720     0.0000310
  C       -1.2542960    -0.7955090    -0.0000670
  C        2.4243390     1.3942650     0.0001240
  C       -2.5504790     1.3758010    -0.0000570
  H        0.0439779     2.2742709     0.0000659
  H        0.0461780    -2.3935470    -0.0000610
  H        2.4800130     2.0209940     0.8935150
  H        2.4798690     2.0213500    -0.8930780
  H        3.2466700     0.6823050    -0.0000520
  H       -3.1375530     1.0948740    -0.8785960
  H       -2.4103180     2.4605130    -0.0000230
  H       -3.1376190     1.0948280     0.8784230
units angstrom
no_reorient  #important for SAPT in psi4, default
symmetry c1  #important for SAPT in psi4, default
}

set PROPERTIES_ORIGIN ["COM"]
properties('MP2/aug-cc-pvtz', properties = ['dipole'])
--------------------------------------------------------------------------

    Molecular point group: c1
  Charge       = 0
  Multiplicity = 1
  Basis Set: AUG-CC-PVTZ
    Blend: AUG-CC-PVTZ
  Basis Set: (AUG-CC-PVTZ AUX)
    Blend: AUG-CC-PVTZ-JKFIT

    Orbital Energies [Eh]
    ---------------------

    Doubly Occupied:

       1A    -20.540159     2A    -20.538394     3A    -15.637412
       4A    -15.624409     5A    -11.413182     6A    -11.375773
       7A    -11.313761     8A    -11.286034     9A    -11.259458
      10A    -11.237365    11A     -1.423778    12A     -1.386808
      13A     -1.307013    14A     -1.242899    15A     -1.110828
      16A     -0.993446    17A     -0.968144    18A     -0.920022
      19A     -0.852553    20A     -0.771933    21A     -0.736130
      22A     -0.708167    23A     -0.681933    24A     -0.649637
      25A     -0.640518    26A     -0.615634    27A     -0.613849
      28A     -0.588724    29A     -0.584080    30A     -0.555471
      31A     -0.548103    32A     -0.543046    33A     -0.487805
      34A     -0.475828    35A     -0.444276    36A     -0.430372
      37A     -0.345721

  @DF-RHF Final Energy:  -490.70631853439227

   => Energetics <=

    Nuclear Repulsion Energy =            530.9600566227159106
    One-Electron Energy =               -1721.6274298428443217
    Two-Electron Energy =                 699.9610546857361442
    Total Energy =                       -490.7063185343922669
  Basis Set: (AUG-CC-PVTZ AUX)
    Blend: AUG-CC-PVTZ-RI
    Molecular point group: c1

    Geometry (in Angstrom), charge = 0, multiplicity = 1:

       Center              X                  Y                   Z               Mass
    ------------   -----------------  -----------------  -----------------  -----------------
         O            2.308489742313    -1.331498161511     0.000059329065    15.994914619570
         O           -2.274552257687    -1.423387161511    -0.000129670935    15.994914619570
         N            1.179938742313     0.692407838489     0.000056329065    14.003074004430
         N            0.012671742313    -1.309282161511    -0.000032670935    14.003074004430
         C           -1.237346257687     0.731629838489    -0.000023670935    12.000000000000
         C           -0.034597257687     1.356650838489     0.000036329065    12.000000000000
         C            1.257912742313    -0.693970161511     0.000032329065    12.000000000000
         C           -1.256965257687    -0.728607161511    -0.000065670935    12.000000000000
         C            2.421669742313     1.461166838489     0.000125329065    12.000000000000
         C           -2.553148257687     1.442702838489    -0.000055670935    12.000000000000
         H            0.041308642313     2.341172738489     0.000067229065     1.007825032230
         H            0.043508742313    -2.326645161511    -0.000059670935     1.007825032230
         H            2.477343742313     2.087895838489     0.893516329065     1.007825032230
         H            2.477199742313     2.088251838489    -0.893076670935     1.007825032230
         H            3.244000742313     0.749206838489    -0.000050670935     1.007825032230
         H           -3.140222257687     1.161775838489    -0.878594670935     1.007825032230
         H           -2.412987257687     2.527414838489    -0.000021670935     1.007825032230
         H           -3.140288257687     1.161729838489     0.878424329065     1.007825032230

  Basis Set: AUG-CC-PVTZ
    Blend: AUG-CC-PVTZ
  Basis Set: (AUG-CC-PVTZ AUX)
    Blend: AUG-CC-PVTZ-JKFIT
	 Reference Energy          =    -490.7063185343922669 [Eh]
	 Singles Energy            =      -0.0000000000000000 [Eh]
	 Same-Spin Energy          =      -0.5020987984747506 [Eh]
	 Opposite-Spin Energy      =      -1.5408407445819337 [Eh]
	 Correlation Energy        =      -2.0429395430566841 [Eh]
	 Total Energy              =    -492.7492580774489284 [Eh]

	 ================> DF-SCS-MP2 Energies <==================
	-----------------------------------------------------------
	 SCS Same-Spin Scale       =       0.3333333333333333 [-]
	 SCS Opposite-Spin Scale   =       1.2000000000000000 [-]
	 SCS Same-Spin Energy      =      -0.1673662661582502 [Eh]
	 SCS Opposite-Spin Energy  =      -1.8490088934983202 [Eh]
	 SCS Correlation Energy    =      -2.0163751596565702 [Eh]
	 SCS Total Energy          =    -492.7226936940488145 [Eh]
	-----------------------------------------------------------

  Dipole Moment: [D]
     X:     1.0394      Y:     4.5299      Z:     0.0002     Total:     4.6476

*** Psi4 exiting successfully. Buy a developer a beer!
