                               Psi4 1.3.2 release

  ==> Input File <==

--------------------------------------------------------------------------
#psi4
#
memory 32 gb

molecule  {
0 1
  O        2.3111590    -1.3984000     0.0000580
  O       -2.2718830    -1.4902890    -0.0001310
  N        1.1826080     0.6255060     0.0000550
  N        0.0153410    -1.3761840    -0.0000340
  C       -1.2346770     0.6647280    -0.0000250
  C       -0.0319280     1.2897490     0.0000350
  C        1.2711310    -0.7826982     0.0000308
  C       -1.2542960    -0.7955090    -0.0000670
  C        2.4243390     1.3942650     0.0001240
  C       -2.5504790     1.3758010    -0.0000570
  H        0.0516650     2.3739750     0.0000690
  H        0.0639287    -2.3928539    -0.0000603
  H        2.4800130     2.0209940     0.8935150
  H        2.4798690     2.0213500    -0.8930780
  H        3.2466700     0.6823050    -0.0000520
  H       -3.1375530     1.0948740    -0.8785960
  H       -2.4103180     2.4605130    -0.0000230
  H       -3.1376190     1.0948280     0.8784230
units angstrom
no_reorient  #important for SAPT in psi4, default
symmetry c1  #important for SAPT in psi4, default
}

set PROPERTIES_ORIGIN ["COM"]
properties('MP2/aug-cc-pvtz', properties = ['dipole'])
--------------------------------------------------------------------------

    Molecular point group: c1
  Charge       = 0
  Multiplicity = 1
  Basis Set: AUG-CC-PVTZ
    Blend: AUG-CC-PVTZ
  Basis Set: (AUG-CC-PVTZ AUX)
    Blend: AUG-CC-PVTZ-JKFIT

    Orbital Energies [Eh]
    ---------------------

    Doubly Occupied:

       1A    -20.546621     2A    -20.537779     3A    -15.634512
       4A    -15.623962     5A    -11.414459     6A    -11.376067
       7A    -11.323531     8A    -11.284219     9A    -11.257000
      10A    -11.235688    11A     -1.433241    12A     -1.388508
      13A     -1.305936    14A     -1.242173    15A     -1.107051
      16A     -0.990005    17A     -0.959658    18A     -0.912961
      19A     -0.852303    20A     -0.767650    21A     -0.733499
      22A     -0.692858    23A     -0.680311    24A     -0.650978
      25A     -0.641915    26A     -0.615176    27A     -0.609342
      28A     -0.586418    29A     -0.585095    30A     -0.553851
      31A     -0.546849    32A     -0.544654    33A     -0.488333
      34A     -0.479207    35A     -0.444950    36A     -0.432310
      37A     -0.343335

  @DF-RHF Final Energy:  -490.71188887082224

   => Energetics <=

    Nuclear Repulsion Energy =            530.2239806790183820
    One-Electron Energy =               -1720.2269208783011436
    Two-Electron Energy =                 699.2910513284606395
    Total Energy =                       -490.7118888708222357
  Basis Set: (AUG-CC-PVTZ AUX)
    Blend: AUG-CC-PVTZ-RI
    Molecular point group: c1

    Geometry (in Angstrom), charge = 0, multiplicity = 1:

       Center              X                  Y                   Z               Mass
    ------------   -----------------  -----------------  -----------------  -----------------
         O            2.307402876700    -1.330350558904     0.000059318857    15.994914619570
         O           -2.275639123300    -1.422239558904    -0.000129681143    15.994914619570
         N            1.178851876700     0.693555441096     0.000056318857    14.003074004430
         N            0.011584876700    -1.308134558904    -0.000032681143    14.003074004430
         C           -1.238433123300     0.732777441096    -0.000023681143    12.000000000000
         C           -0.035684123300     1.357798441096     0.000036318857    12.000000000000
         C            1.267374876700    -0.714648758904     0.000032118857    12.000000000000
         C           -1.258052123300    -0.727459558904    -0.000065681143    12.000000000000
         C            2.420582876700     1.462314441096     0.000125318857    12.000000000000
         C           -2.554235123300     1.443850441096    -0.000055681143    12.000000000000
         H            0.047908876700     2.442024441096     0.000070318857     1.007825032230
         H            0.060172576700    -2.324804458904    -0.000058981143     1.007825032230
         H            2.476256876700     2.089043441096     0.893516318857     1.007825032230
         H            2.476112876700     2.089399441096    -0.893076681143     1.007825032230
         H            3.242913876700     0.750354441096    -0.000050681143     1.007825032230
         H           -3.141309123300     1.162923441096    -0.878594681143     1.007825032230
         H           -2.414074123300     2.528562441096    -0.000021681143     1.007825032230
         H           -3.141375123300     1.162877441096     0.878424318857     1.007825032230

  Basis Set: AUG-CC-PVTZ
    Blend: AUG-CC-PVTZ
  Basis Set: (AUG-CC-PVTZ AUX)
    Blend: AUG-CC-PVTZ-JKFIT
	 Reference Energy          =    -490.7118888708222357 [Eh]
	 Singles Energy            =      -0.0000000000000000 [Eh]
	 Same-Spin Energy          =      -0.5021758335980168 [Eh]
	 Opposite-Spin Energy      =      -1.5410246137268784 [Eh]
	 Correlation Energy        =      -2.0432004473248950 [Eh]
	 Total Energy              =    -492.7550893181471565 [Eh]

	 ================> DF-SCS-MP2 Energies <==================
	-----------------------------------------------------------
	 SCS Same-Spin Scale       =       0.3333333333333333 [-]
	 SCS Opposite-Spin Scale   =       1.2000000000000000 [-]
	 SCS Same-Spin Energy      =      -0.1673919445326723 [Eh]
	 SCS Opposite-Spin Energy  =      -1.8492295364722540 [Eh]
	 SCS Correlation Energy    =      -2.0166214810049263 [Eh]
	 SCS Total Energy          =    -492.7285103518271399 [Eh]
	-----------------------------------------------------------

  Dipole Moment: [D]
     X:     1.2161      Y:     4.3329      Z:     0.0002     Total:     4.5004

*** Psi4 exiting successfully. Buy a developer a beer!
