                               Psi4 1.3.2 release

  ==> Input File <==

--------------------------------------------------------------------------
#psi4
#
memory 32 gb

molecule  {
0 1
  O        2.3111590    -1.3984000     0.0000580
  O       -2.2718830    -1.4902890    -0.0001310
  N        1.1826080     0.6255060     0.0000550
  N        0.0153410    -1.3761840    -0.0000340
  C       -1.2346770     0.6647280    -0.0000250
  C       -0.0319280     1.2897490     0.0000350
  C        1.2605820    -0.7608720     0.0000310
  C       -1.2542960    -0.7955090    -0.0000670
  C        2.4243390     1.3942650     0.0001240
  C       -2.6384544     1.4233438    -0.0000591
  H        0.0516650     2.3739750     0.0000690
  H        0.0461780    -2.3935470    -0.0000610
  H        2.4800130     2.0209940     0.8935150
  H        2.4798690     2.0213500    -0.8930780
  H        3.2466700     0.6823050    -0.0000520
  H       -3.1375530     1.0948740    -0.8785960
  H       -2.4103180     2.4605130    -0.0000230
  H       -3.1376190     1.0948280     0.8784230
units angstrom
no_reorient  #important for SAPT in psi4, default
symmetry c1  #important for SAPT in psi4, default
}

set PROPERTIES_ORIGIN ["COM"]
properties('MP2/aug-cc-pvtz', properties = ['dipole'])
--------------------------------------------------------------------------

    Molecular point group: c1
  Charge       = 0
  Multiplicity = 1
  Basis Set: AUG-CC-PVTZ
    Blend: AUG-CC-PVTZ
  Basis Set: (AUG-CC-PVTZ AUX)
    Blend: AUG-CC-PVTZ-JKFIT

    Orbital Energies [Eh]
    ---------------------

    Doubly Occupied:

       1A    -20.539982     2A    -20.537458     3A    -15.637436
       4A    -15.623987     5A    -11.413146     6A    -11.375640
       7A    -11.324253     8A    -11.285489     9A    -11.261922
      10A    -11.237358    11A     -1.423439    12A     -1.385983
      13A     -1.306001    14A     -1.242226    15A     -1.098867
      16A     -0.991265    17A     -0.964098    18A     -0.914857
      19A     -0.853935    20A     -0.768165    21A     -0.732423
      22A     -0.691557    23A     -0.681356    24A     -0.648228
      25A     -0.636587    26A     -0.615873    27A     -0.611316
      28A     -0.592979    29A     -0.582950    30A     -0.567233
      31A     -0.545803    32A     -0.528089    33A     -0.489390
      34A     -0.474329    35A     -0.442873    36A     -0.430181
      37A     -0.347304

  @DF-RHF Final Energy:  -490.70508105535072

   => Energetics <=

    Nuclear Repulsion Energy =            528.5554391325784991
    One-Electron Energy =               -1716.9130847326853200
    Two-Electron Energy =                 697.6525645447561601
    Total Energy =                       -490.7050810553507745
  Basis Set: (AUG-CC-PVTZ AUX)
    Blend: AUG-CC-PVTZ-RI
    Molecular point group: c1

    Geometry (in Angstrom), charge = 0, multiplicity = 1:

       Center              X                  Y                   Z               Mass
    ------------   -----------------  -----------------  -----------------  -----------------
         O            2.315972022705    -1.336288999028     0.000059486683    15.994914619570
         O           -2.267069977295    -1.428177999028    -0.000129513317    15.994914619570
         N            1.187421022705     0.687617000972     0.000056486683    14.003074004430
         N            0.020154022705    -1.314072999028    -0.000032513317    14.003074004430
         C           -1.229863977295     0.726839000972    -0.000023513317    12.000000000000
         C           -0.027114977295     1.351860000972     0.000036486683    12.000000000000
         C            1.265395022705    -0.698760999028     0.000032486683    12.000000000000
         C           -1.249482977295    -0.733397999028    -0.000065513317    12.000000000000
         C            2.429152022705     1.456376000972     0.000125486683    12.000000000000
         C           -2.633641377295     1.485454800972    -0.000057613317    12.000000000000
         H            0.056478022705     2.436086000972     0.000070486683     1.007825032230
         H            0.050991022705    -2.331435999028    -0.000059513317     1.007825032230
         H            2.484826022705     2.083105000972     0.893516486683     1.007825032230
         H            2.484682022705     2.083461000972    -0.893076513317     1.007825032230
         H            3.251483022705     0.744416000972    -0.000050513317     1.007825032230
         H           -3.132739977295     1.156985000972    -0.878594513317     1.007825032230
         H           -2.405504977295     2.522624000972    -0.000021513317     1.007825032230
         H           -3.132805977295     1.156939000972     0.878424486683     1.007825032230

  Basis Set: AUG-CC-PVTZ
    Blend: AUG-CC-PVTZ
  Basis Set: (AUG-CC-PVTZ AUX)
    Blend: AUG-CC-PVTZ-JKFIT
	 Reference Energy          =    -490.7050810553507176 [Eh]
	 Singles Energy            =      -0.0000000000000000 [Eh]
	 Same-Spin Energy          =      -0.5017893750018568 [Eh]
	 Opposite-Spin Energy      =      -1.5411585339727625 [Eh]
	 Correlation Energy        =      -2.0429479089746194 [Eh]
	 Total Energy              =    -492.7480289643253286 [Eh]

	 ================> DF-SCS-MP2 Energies <==================
	-----------------------------------------------------------
	 SCS Same-Spin Scale       =       0.3333333333333333 [-]
	 SCS Opposite-Spin Scale   =       1.2000000000000000 [-]
	 SCS Same-Spin Energy      =      -0.1672631250006189 [Eh]
	 SCS Opposite-Spin Energy  =      -1.8493902407673148 [Eh]
	 SCS Correlation Energy    =      -2.0166533657679340 [Eh]
	 SCS Total Energy          =    -492.7217344211186401 [Eh]
	-----------------------------------------------------------

  Dipole Moment: [D]
     X:     1.0311      Y:     4.5486      Z:     0.0002     Total:     4.6640

*** Psi4 exiting successfully. Buy a developer a beer!
