                               Psi4 1.3.2 release

  ==> Input File <==

--------------------------------------------------------------------------
#psi4
#
memory 32 gb

molecule  {
0 1
  O        2.2882696    -1.4346762     0.0000562
  O       -2.2718830    -1.4902890    -0.0001310
  N        1.1826080     0.6255060     0.0000550
  N        0.0375736    -1.4192675    -0.0000341
  C       -1.2346770     0.6647280    -0.0000250
  C       -0.0319280     1.2897490     0.0000350
  C        1.2605820    -0.7608720     0.0000310
  C       -1.2542960    -0.7955090    -0.0000670
  C        2.4243390     1.3942650     0.0001240
  C       -2.5504790     1.3758010    -0.0000570
  H        0.0516650     2.3739750     0.0000690
  H        0.0461780    -2.3935470    -0.0000610
  H        2.4800130     2.0209940     0.8935150
  H        2.4798690     2.0213500    -0.8930780
  H        3.2466700     0.6823050    -0.0000520
  H       -3.1375530     1.0948740    -0.8785960
  H       -2.4103180     2.4605130    -0.0000230
  H       -3.1376190     1.0948280     0.8784230
units angstrom
no_reorient  #important for SAPT in psi4, default
symmetry c1  #important for SAPT in psi4, default
}

set PROPERTIES_ORIGIN ["COM"]
properties('MP2/aug-cc-pvtz', properties = ['dipole'])
--------------------------------------------------------------------------

    Molecular point group: c1
  Charge       = 0
  Multiplicity = 1
  Basis Set: AUG-CC-PVTZ
    Blend: AUG-CC-PVTZ
  Basis Set: (AUG-CC-PVTZ AUX)
    Blend: AUG-CC-PVTZ-JKFIT

    Orbital Energies [Eh]
    ---------------------

    Doubly Occupied:

       1A    -20.541387     2A    -20.535957     3A    -15.640593
       4A    -15.617397     5A    -11.410884     6A    -11.378747
       7A    -11.327242     8A    -11.287943     9A    -11.261896
      10A    -11.238646    11A     -1.421372    12A     -1.386175
      13A     -1.306500    14A     -1.237302    15A     -1.110596
      16A     -0.994200    17A     -0.963182    18A     -0.914505
      19A     -0.846007    20A     -0.772580    21A     -0.740919
      22A     -0.694999    23A     -0.681118    24A     -0.650286
      25A     -0.634033    26A     -0.613682    27A     -0.612663
      28A     -0.590726    29A     -0.584626    30A     -0.558201
      31A     -0.549791    32A     -0.541376    33A     -0.489268
      34A     -0.474596    35A     -0.441530    36A     -0.427253
      37A     -0.347333

  @DF-RHF Final Energy:  -490.70921986471183

   => Energetics <=

    Nuclear Repulsion Energy =            529.4415995051996333
    One-Electron Energy =               -1718.6506215892331966
    Two-Electron Energy =                 698.4998022193218503
    Total Energy =                       -490.7092198647118266
  Basis Set: (AUG-CC-PVTZ AUX)
    Blend: AUG-CC-PVTZ-RI
    Molecular point group: c1

    Geometry (in Angstrom), charge = 0, multiplicity = 1:

       Center              X                  Y                   Z               Mass
    ------------   -----------------  -----------------  -----------------  -----------------
         O            2.285936216092    -1.360041512212     0.000057722319    15.994914619570
         O           -2.274216383908    -1.415654312212    -0.000129477681    15.994914619570
         N            1.180274616092     0.700140687788     0.000056522319    14.003074004430
         N            0.035240216092    -1.344632812212    -0.000032577681    14.003074004430
         C           -1.237010383908     0.739362687788    -0.000023477681    12.000000000000
         C           -0.034261383908     1.364383687788     0.000036522319    12.000000000000
         C            1.258248616092    -0.686237312212     0.000032522319    12.000000000000
         C           -1.256629383908    -0.720874312212    -0.000065477681    12.000000000000
         C            2.422005616092     1.468899687788     0.000125522319    12.000000000000
         C           -2.552812383908     1.450435687788    -0.000055477681    12.000000000000
         H            0.049331616092     2.448609687788     0.000070522319     1.007825032230
         H            0.043844616092    -2.318912312212    -0.000059477681     1.007825032230
         H            2.477679616092     2.095628687788     0.893516522319     1.007825032230
         H            2.477535616092     2.095984687788    -0.893076477681     1.007825032230
         H            3.244336616092     0.756939687788    -0.000050477681     1.007825032230
         H           -3.139886383908     1.169508687788    -0.878594477681     1.007825032230
         H           -2.412651383908     2.535147687788    -0.000021477681     1.007825032230
         H           -3.139952383908     1.169462687788     0.878424522319     1.007825032230

  Basis Set: AUG-CC-PVTZ
    Blend: AUG-CC-PVTZ
  Basis Set: (AUG-CC-PVTZ AUX)
    Blend: AUG-CC-PVTZ-JKFIT
	 Reference Energy          =    -490.7092198647118266 [Eh]
	 Singles Energy            =      -0.0000000000000000 [Eh]
	 Same-Spin Energy          =      -0.5016772150574875 [Eh]
	 Opposite-Spin Energy      =      -1.5408683174893119 [Eh]
	 Correlation Energy        =      -2.0425455325467992 [Eh]
	 Total Energy              =    -492.7517653972586231 [Eh]

	 ================> DF-SCS-MP2 Energies <==================
	-----------------------------------------------------------
	 SCS Same-Spin Scale       =       0.3333333333333333 [-]
	 SCS Opposite-Spin Scale   =       1.2000000000000000 [-]
	 SCS Same-Spin Energy      =      -0.1672257383524958 [Eh]
	 SCS Opposite-Spin Energy  =      -1.8490419809871741 [Eh]
	 SCS Correlation Energy    =      -2.0162677193396701 [Eh]
	 SCS Total Energy          =    -492.7254875840515069 [Eh]
	-----------------------------------------------------------

  Dipole Moment: [D]
     X:     0.9284      Y:     4.7008      Z:     0.0002     Total:     4.7916

*** Psi4 exiting successfully. Buy a developer a beer!
