                               Psi4 1.3.2 release

  ==> Input File <==

--------------------------------------------------------------------------
#psi4
#
memory 32 gb

molecule  {
0 1
  O        2.3111590    -1.3984000     0.0000580
  O       -2.2955106    -1.4543525    -0.0001310
  N        1.1826080     0.6255060     0.0000550
  N        0.0153410    -1.3761840    -0.0000340
  C       -1.2856505     0.6645232    -0.0000272
  C       -0.0319280     1.2897490     0.0000350
  C        1.2605820    -0.7608720     0.0000310
  C       -1.2542960    -0.7955090    -0.0000670
  C        2.4243390     1.3942650     0.0001240
  C       -2.5504790     1.3758010    -0.0000570
  H        0.0516650     2.3739750     0.0000690
  H        0.0461780    -2.3935470    -0.0000610
  H        2.4800130     2.0209940     0.8935150
  H        2.4798690     2.0213500    -0.8930780
  H        3.2466700     0.6823050    -0.0000520
  H       -3.1375530     1.0948740    -0.8785960
  H       -2.4103180     2.4605130    -0.0000230
  H       -3.1376190     1.0948280     0.8784230
units angstrom
no_reorient  #important for SAPT in psi4, default
symmetry c1  #important for SAPT in psi4, default
}

set PROPERTIES_ORIGIN ["COM"]
properties('MP2/aug-cc-pvtz', properties = ['dipole'])
--------------------------------------------------------------------------

    Molecular point group: c1
  Charge       = 0
  Multiplicity = 1
  Basis Set: AUG-CC-PVTZ
    Blend: AUG-CC-PVTZ
  Basis Set: (AUG-CC-PVTZ AUX)
    Blend: AUG-CC-PVTZ-JKFIT

    Orbital Energies [Eh]
    ---------------------

    Doubly Occupied:

       1A    -20.542043     2A    -20.535705     3A    -15.640895
       4A    -15.627438     5A    -11.415425     6A    -11.374442
       7A    -11.329397     8A    -11.287006     9A    -11.261573
      10A    -11.233548    11A     -1.424882    12A     -1.385792
      13A     -1.306799    14A     -1.244876    15A     -1.106228
      16A     -0.995057    17A     -0.966169    18A     -0.913222
      19A     -0.850808    20A     -0.766886    21A     -0.737881
      22A     -0.689443    23A     -0.682518    24A     -0.649893
      25A     -0.637480    26A     -0.616668    27A     -0.609609
      28A     -0.592944    29A     -0.586510    30A     -0.565059
      31A     -0.542690    32A     -0.542641    33A     -0.485331
      34A     -0.474967    35A     -0.442595    36A     -0.432011
      37A     -0.337173

  @DF-RHF Final Energy:  -490.70521002167101

   => Energetics <=

    Nuclear Repulsion Energy =            529.9953629396919723
    One-Electron Energy =               -1719.7339326911774151
    Two-Electron Energy =                 699.0333597298144923
    Total Energy =                       -490.7052100216710642
  Basis Set: (AUG-CC-PVTZ AUX)
    Blend: AUG-CC-PVTZ-RI
    Molecular point group: c1

    Geometry (in Angstrom), charge = 0, multiplicity = 1:

       Center              X                  Y                   Z               Mass
    ------------   -----------------  -----------------  -----------------  -----------------
         O            2.315500067638    -1.336302065341     0.000059495251    15.994914619570
         O           -2.291169532362    -1.392254565341    -0.000129504749    15.994914619570
         N            1.186949067638     0.687603934659     0.000056495251    14.003074004430
         N            0.019682067638    -1.314086065341    -0.000032504749    14.003074004430
         C           -1.281309432362     0.726621134659    -0.000025704749    12.000000000000
         C           -0.027586932362     1.351846934659     0.000036495251    12.000000000000
         C            1.264923067638    -0.698774065341     0.000032495251    12.000000000000
         C           -1.249954932362    -0.733411065341    -0.000065504749    12.000000000000
         C            2.428680067638     1.456362934659     0.000125495251    12.000000000000
         C           -2.546137932362     1.437898934659    -0.000055504749    12.000000000000
         H            0.056006067638     2.436072934659     0.000070495251     1.007825032230
         H            0.050519067638    -2.331449065341    -0.000059504749     1.007825032230
         H            2.484354067638     2.083091934659     0.893516495251     1.007825032230
         H            2.484210067638     2.083447934659    -0.893076504749     1.007825032230
         H            3.251011067638     0.744402934659    -0.000050504749     1.007825032230
         H           -3.133211932362     1.156971934659    -0.878594504749     1.007825032230
         H           -2.405976932362     2.522610934659    -0.000021504749     1.007825032230
         H           -3.133277932362     1.156925934659     0.878424495251     1.007825032230

  Basis Set: AUG-CC-PVTZ
    Blend: AUG-CC-PVTZ
  Basis Set: (AUG-CC-PVTZ AUX)
    Blend: AUG-CC-PVTZ-JKFIT
	 Reference Energy          =    -490.7052100216710073 [Eh]
	 Singles Energy            =      -0.0000000000000000 [Eh]
	 Same-Spin Energy          =      -0.5034138454635669 [Eh]
	 Opposite-Spin Energy      =      -1.5430262539878057 [Eh]
	 Correlation Energy        =      -2.0464400994513725 [Eh]
	 Total Energy              =    -492.7516501211223954 [Eh]

	 ================> DF-SCS-MP2 Energies <==================
	-----------------------------------------------------------
	 SCS Same-Spin Scale       =       0.3333333333333333 [-]
	 SCS Opposite-Spin Scale   =       1.2000000000000000 [-]
	 SCS Same-Spin Energy      =      -0.1678046151545223 [Eh]
	 SCS Opposite-Spin Energy  =      -1.8516315047853666 [Eh]
	 SCS Correlation Energy    =      -2.0194361199398889 [Eh]
	 SCS Total Energy          =    -492.7246461416108900 [Eh]
	-----------------------------------------------------------

  Dipole Moment: [D]
     X:     1.1121      Y:     4.4639      Z:     0.0002     Total:     4.6004

*** Psi4 exiting successfully. Buy a developer a beer!
