                               Psi4 1.4a3.dev225

  ==> Input File <==

--------------------------------------------------------------------------
#psi4
#
memory 32 gb

molecule  {
0 1
  O        2.3212770    -1.3580180     0.0000020
  O       -2.2717460    -1.4962290     0.0000010
  N        1.1724310     0.6334210    -0.0000020
  N        0.0162060    -1.3769820    -0.0000020
  C       -1.2398930     0.6613320     0.0000000
  C       -0.0398910     1.2934770    -0.0000010
  C        1.2527440    -0.7526170    -0.0000010
  C       -1.2589250    -0.7964470     0.0000000
  C        2.4447950     1.3519700     0.0000010
  C       -2.5726610     1.3855693     0.0000010
  H        0.0310140     2.3780990    -0.0000010
  H        0.0457120    -2.3937650    -0.0000010
  H        2.2343430     2.4214070    -0.0000200
  H        3.0241620     1.0875710    -0.8862110
  H        3.0241420     1.0876020     0.8862360
  H       -3.1432670     1.0977880    -0.8790540
  H       -2.4120010     2.4600010     0.0000010
  H       -3.1432670     1.0977870     0.8790540
units angstrom
no_reorient  #important for SAPT in psi4, default
symmetry c1  #important for SAPT in psi4, default
}

set PROPERTIES_ORIGIN ["COM"]
properties('MP2/aug-cc-pvtz', properties = ['dipole'])
--------------------------------------------------------------------------

    Molecular point group: c1
  Charge       = 0
  Multiplicity = 1
  Basis Set: AUG-CC-PVTZ
    Blend: AUG-CC-PVTZ
  Basis Set: (AUG-CC-PVTZ AUX)
    Blend: AUG-CC-PVTZ-JKFIT

    Orbital Energies [Eh]
    ---------------------

    Doubly Occupied:

       1A    -20.541024     2A    -20.537819     3A    -15.638449
       4A    -15.624732     5A    -11.411422     6A    -11.375800
       7A    -11.326321     8A    -11.288628     9A    -11.257779
      10A    -11.236244    11A     -1.424783    12A     -1.387059
      13A     -1.306402    14A     -1.243455    15A     -1.106428
      16A     -0.993230    17A     -0.962388    18A     -0.914979
      19A     -0.853273    20A     -0.770327    21A     -0.734851
      22A     -0.693623    23A     -0.682917    24A     -0.649950
      25A     -0.636420    26A     -0.612715    27A     -0.609183
      28A     -0.589863    29A     -0.582975    30A     -0.553260
      31A     -0.551397    32A     -0.540751    33A     -0.492451
      34A     -0.475356    35A     -0.443988    36A     -0.430246
      37A     -0.344289

  @DF-RHF Final Energy:  -490.71248731646142

   => Energetics <=

    Nuclear Repulsion Energy =            530.3763168491071838
    One-Electron Energy =               -1720.5280592227716170
    Two-Electron Energy =                 699.4392550572031269
    Total Energy =                       -490.7124873164614201
  Basis Set: (AUG-CC-PVTZ AUX)
    Blend: AUG-CC-PVTZ-RI
    Molecular point group: c1

    Geometry (in Angstrom), charge = 0, multiplicity = 1:

       Center              X                  Y                   Z               Mass
    ------------   -----------------  -----------------  -----------------  -----------------
         O            2.320355756616    -1.293492145840     0.000002028533    15.994914619570
         O           -2.272667243384    -1.431703145840     0.000001028533    15.994914619570
         N            1.171509756616     0.697946854160    -0.000001971467    14.003074004430
         N            0.015284756616    -1.312456145840    -0.000001971467    14.003074004430
         C           -1.240814243384     0.725857854160     0.000000028533    12.000000000000
         C           -0.040812243384     1.358002854160    -0.000000971467    12.000000000000
         C            1.251822756616    -0.688091145840    -0.000000971467    12.000000000000
         C           -1.259846243384    -0.731921145840     0.000000028533    12.000000000000
         C            2.443873756616     1.416495854160     0.000001028533    12.000000000000
         C           -2.573582243384     1.450095154160     0.000001028533    12.000000000000
         H            0.030092756616     2.442624854160    -0.000000971467     1.007825032230
         H            0.044790756616    -2.329239145840    -0.000000971467     1.007825032230
         H            2.233421756616     2.485932854160    -0.000019971467     1.007825032230
         H            3.023240756616     1.152096854160    -0.886210971467     1.007825032230
         H            3.023220756616     1.152127854160     0.886236028533     1.007825032230
         H           -3.144188243384     1.162313854160    -0.879053971467     1.007825032230
         H           -2.412922243384     2.524526854160     0.000001028533     1.007825032230
         H           -3.144188243384     1.162312854160     0.879054028533     1.007825032230

  Basis Set: AUG-CC-PVTZ
    Blend: AUG-CC-PVTZ
  Basis Set: (AUG-CC-PVTZ AUX)
    Blend: AUG-CC-PVTZ-JKFIT
	 Reference Energy          =    -490.7124873164614201 [Eh]
	 Singles Energy            =      -0.0000000000000000 [Eh]
	 Same-Spin Energy          =      -0.5021852171323163 [Eh]
	 Opposite-Spin Energy      =      -1.5411357736816615 [Eh]
	 Correlation Energy        =      -2.0433209908139780 [Eh]
	 Total Energy              =    -492.7558083072754016 [Eh]

	 ================> DF-SCS-MP2 Energies <==================
	-----------------------------------------------------------
	 SCS Same-Spin Scale       =       0.3333333333333333 [-]
	 SCS Opposite-Spin Scale   =       1.2000000000000000 [-]
	 SCS Same-Spin Energy      =      -0.1673950723774388 [Eh]
	 SCS Opposite-Spin Energy  =      -1.8493629284179938 [Eh]
	 SCS Correlation Energy    =      -2.0167580007954324 [Eh]
	 SCS Total Energy          =    -492.7292453172568685 [Eh]
	-----------------------------------------------------------

  Dipole Moment: [D]
     X:     1.0920      Y:     4.5169      Z:    -0.0000     Total:     4.6470

*** Psi4 exiting successfully. Buy a developer a beer!
