                               Psi4 1.3.2 release

  ==> Input File <==

--------------------------------------------------------------------------
#psi4
#
memory 32 gb

molecule  {
0 1
  O        2.3111590    -1.3984000     0.0000580
  O       -2.2718830    -1.4902890    -0.0001310
  N        1.1826080     0.6255060     0.0000550
  N        0.0153410    -1.3761840    -0.0000340
  C       -1.2346770     0.6647280    -0.0000250
  C       -0.0319280     1.2897490     0.0000350
  C        1.2605820    -0.7608720     0.0000310
  C       -1.4194681    -0.9082839    -0.0000774
  C        2.4243390     1.3942650     0.0001240
  C       -2.5504790     1.3758010    -0.0000570
  H        0.0516650     2.3739750     0.0000690
  H        0.0461780    -2.3935470    -0.0000610
  H        2.4800130     2.0209940     0.8935150
  H        2.4798690     2.0213500    -0.8930780
  H        3.2466700     0.6823050    -0.0000520
  H       -3.1375530     1.0948740    -0.8785960
  H       -2.4103180     2.4605130    -0.0000230
  H       -3.1376190     1.0948280     0.8784230
units angstrom
no_reorient  #important for SAPT in psi4, default
symmetry c1  #important for SAPT in psi4, default
}

set PROPERTIES_ORIGIN ["COM"]
properties('MP2/aug-cc-pvtz', properties = ['dipole'])
--------------------------------------------------------------------------

    Molecular point group: c1
  Charge       = 0
  Multiplicity = 1
  Basis Set: AUG-CC-PVTZ
    Blend: AUG-CC-PVTZ
  Basis Set: (AUG-CC-PVTZ AUX)
    Blend: AUG-CC-PVTZ-JKFIT

    Orbital Energies [Eh]
    ---------------------

    Doubly Occupied:

       1A    -20.584375     2A    -20.523990     3A    -15.619160
       4A    -15.593919     5A    -11.397854     6A    -11.375479
       7A    -11.308718     8A    -11.273802     9A    -11.253639
      10A    -11.233576    11A     -1.562214    12A     -1.400908
      13A     -1.288390    14A     -1.210768    15A     -1.088560
      16A     -0.981616    17A     -0.950247    18A     -0.877277
      19A     -0.835752    20A     -0.769291    21A     -0.735235
      22A     -0.710649    23A     -0.684149    24A     -0.663662
      25A     -0.651957    26A     -0.632353    27A     -0.619223
      28A     -0.581724    29A     -0.578324    30A     -0.573222
      31A     -0.566518    32A     -0.545718    33A     -0.474223
      34A     -0.463648    35A     -0.426570    36A     -0.424532
      37A     -0.333562

  @DF-RHF Final Energy:  -490.63729034344976

   => Energetics <=

    Nuclear Repulsion Energy =            529.9482185012510627
    One-Electron Energy =               -1719.5814130186618058
    Two-Electron Energy =                 698.9959041739608665
    Total Energy =                       -490.6372903434497630
  Basis Set: (AUG-CC-PVTZ AUX)
    Blend: AUG-CC-PVTZ-RI
    Molecular point group: c1

    Geometry (in Angstrom), charge = 0, multiplicity = 1:

       Center              X                  Y                   Z               Mass
    ------------   -----------------  -----------------  -----------------  -----------------
         O            2.322586115297    -1.322553229079     0.000060197814    15.994914619570
         O           -2.260455884703    -1.414442229079    -0.000128802186    15.994914619570
         N            1.194035115297     0.701352770921     0.000057197814    14.003074004430
         N            0.026768115297    -1.300337229079    -0.000031802186    14.003074004430
         C           -1.223249884703     0.740574770921    -0.000022802186    12.000000000000
         C           -0.020500884703     1.365595770921     0.000037197814    12.000000000000
         C            1.272009115297    -0.685025229079     0.000033197814    12.000000000000
         C           -1.408040984703    -0.832437129079    -0.000075202186    12.000000000000
         C            2.435766115297     1.470111770921     0.000126197814    12.000000000000
         C           -2.539051884703     1.451647770921    -0.000054802186    12.000000000000
         H            0.063092115297     2.449821770921     0.000071197814     1.007825032230
         H            0.057605115297    -2.317700229079    -0.000058802186     1.007825032230
         H            2.491440115297     2.096840770921     0.893517197814     1.007825032230
         H            2.491296115297     2.097196770921    -0.893075802186     1.007825032230
         H            3.258097115297     0.758151770921    -0.000049802186     1.007825032230
         H           -3.126125884703     1.170720770921    -0.878593802186     1.007825032230
         H           -2.398890884703     2.536359770921    -0.000020802186     1.007825032230
         H           -3.126191884703     1.170674770921     0.878425197814     1.007825032230

  Basis Set: AUG-CC-PVTZ
    Blend: AUG-CC-PVTZ
  Basis Set: (AUG-CC-PVTZ AUX)
    Blend: AUG-CC-PVTZ-JKFIT
	 Reference Energy          =    -490.6372903434497630 [Eh]
	 Singles Energy            =      -0.0000000000000000 [Eh]
	 Same-Spin Energy          =      -0.4981400401671449 [Eh]
	 Opposite-Spin Energy      =      -1.5341362955126745 [Eh]
	 Correlation Energy        =      -2.0322763356798195 [Eh]
	 Total Energy              =    -492.6695666791295594 [Eh]

	 ================> DF-SCS-MP2 Energies <==================
	-----------------------------------------------------------
	 SCS Same-Spin Scale       =       0.3333333333333333 [-]
	 SCS Opposite-Spin Scale   =       1.2000000000000000 [-]
	 SCS Same-Spin Energy      =      -0.1660466800557149 [Eh]
	 SCS Opposite-Spin Energy  =      -1.8409635546152092 [Eh]
	 SCS Correlation Energy    =      -2.0070102346709242 [Eh]
	 SCS Total Energy          =    -492.6443005781206921 [Eh]
	-----------------------------------------------------------

  Dipole Moment: [D]
     X:    -0.8236      Y:     3.5368      Z:     0.0001     Total:     3.6314

*** Psi4 exiting successfully. Buy a developer a beer!
