                               Psi4 1.3.2 release

  ==> Input File <==

--------------------------------------------------------------------------
#psi4
#
memory 32 gb

molecule  {
0 1
  O        2.3111590    -1.3984000     0.0000580
  O       -2.2596024    -1.5079425    -0.0001311
  N        1.1826080     0.6255060     0.0000550
  N        0.0050135    -1.3982538    -0.0000351
  C       -1.2346770     0.6647280    -0.0000250
  C       -0.0319280     1.2897490     0.0000350
  C        1.2605820    -0.7608720     0.0000310
  C       -1.2542960    -0.7955090    -0.0000670
  C        2.4243390     1.3942650     0.0001240
  C       -2.5504790     1.3758010    -0.0000570
  H        0.0516650     2.3739750     0.0000690
  H        0.0461780    -2.3935470    -0.0000610
  H        2.4800130     2.0209940     0.8935150
  H        2.4798690     2.0213500    -0.8930780
  H        3.2466700     0.6823050    -0.0000520
  H       -3.1375530     1.0948740    -0.8785960
  H       -2.4103180     2.4605130    -0.0000230
  H       -3.1376190     1.0948280     0.8784230
units angstrom
no_reorient  #important for SAPT in psi4, default
symmetry c1  #important for SAPT in psi4, default
}

set PROPERTIES_ORIGIN ["COM"]
properties('MP2/aug-cc-pvtz', properties = ['dipole'])
--------------------------------------------------------------------------

    Molecular point group: c1
  Charge       = 0
  Multiplicity = 1
  Basis Set: AUG-CC-PVTZ
    Blend: AUG-CC-PVTZ
  Basis Set: (AUG-CC-PVTZ AUX)
    Blend: AUG-CC-PVTZ-JKFIT

    Orbital Energies [Eh]
    ---------------------

    Doubly Occupied:

       1A    -20.541647     2A    -20.536259     3A    -15.639387
       4A    -15.621482     5A    -11.414931     6A    -11.374888
       7A    -11.325967     8A    -11.286777     9A    -11.261036
      10A    -11.237951    11A     -1.422928    12A     -1.386461
      13A     -1.306501    14A     -1.239822    15A     -1.109796
      16A     -0.993717    17A     -0.963333    18A     -0.914848
      19A     -0.848936    20A     -0.770673    21A     -0.739222
      22A     -0.693886    23A     -0.681314    24A     -0.649446
      25A     -0.637470    26A     -0.614942    27A     -0.609808
      28A     -0.589393    29A     -0.583837    30A     -0.556955
      31A     -0.548968    32A     -0.543335    33A     -0.488487
      34A     -0.475782    35A     -0.442649    36A     -0.428525
      37A     -0.346640

  @DF-RHF Final Energy:  -490.71161450203937

   => Energetics <=

    Nuclear Repulsion Energy =            529.9072696436993510
    One-Electron Energy =               -1719.5817672083053367
    Two-Electron Energy =                 698.9628830625666751
    Total Energy =                       -490.7116145020394242
  Basis Set: (AUG-CC-PVTZ AUX)
    Blend: AUG-CC-PVTZ-RI
    Molecular point group: c1

    Geometry (in Angstrom), charge = 0, multiplicity = 1:

       Center              X                  Y                   Z               Mass
    ------------   -----------------  -----------------  -----------------  -----------------
         O            2.308064508424    -1.327993006818     0.000059428156    15.994914619570
         O           -2.262696891576    -1.437535506818    -0.000129671844    15.994914619570
         N            1.179513508424     0.695912993182     0.000056428156    14.003074004430
         N            0.001919008424    -1.327846806818    -0.000033671844    14.003074004430
         C           -1.237771491576     0.735134993182    -0.000023571844    12.000000000000
         C           -0.035022491576     1.360155993182     0.000036428156    12.000000000000
         C            1.257487508424    -0.690465006818     0.000032428156    12.000000000000
         C           -1.257390491576    -0.725102006818    -0.000065571844    12.000000000000
         C            2.421244508424     1.464671993182     0.000125428156    12.000000000000
         C           -2.553573491576     1.446207993182    -0.000055571844    12.000000000000
         H            0.048570508424     2.444381993182     0.000070428156     1.007825032230
         H            0.043083508424    -2.323140006818    -0.000059571844     1.007825032230
         H            2.476918508424     2.091400993182     0.893516428156     1.007825032230
         H            2.476774508424     2.091756993182    -0.893076571844     1.007825032230
         H            3.243575508424     0.752711993182    -0.000050571844     1.007825032230
         H           -3.140647491576     1.165280993182    -0.878594571844     1.007825032230
         H           -2.413412491576     2.530919993182    -0.000021571844     1.007825032230
         H           -3.140713491576     1.165234993182     0.878424428156     1.007825032230

  Basis Set: AUG-CC-PVTZ
    Blend: AUG-CC-PVTZ
  Basis Set: (AUG-CC-PVTZ AUX)
    Blend: AUG-CC-PVTZ-JKFIT
	 Reference Energy          =    -490.7116145020393674 [Eh]
	 Singles Energy            =      -0.0000000000000000 [Eh]
	 Same-Spin Energy          =      -0.5020301252579151 [Eh]
	 Opposite-Spin Energy      =      -1.5411286960026658 [Eh]
	 Correlation Energy        =      -2.0431588212605809 [Eh]
	 Total Energy              =    -492.7547733232999576 [Eh]

	 ================> DF-SCS-MP2 Energies <==================
	-----------------------------------------------------------
	 SCS Same-Spin Scale       =       0.3333333333333333 [-]
	 SCS Opposite-Spin Scale   =       1.2000000000000000 [-]
	 SCS Same-Spin Energy      =      -0.1673433750859717 [Eh]
	 SCS Opposite-Spin Energy  =      -1.8493544352031988 [Eh]
	 SCS Correlation Energy    =      -2.0166978102891706 [Eh]
	 SCS Total Energy          =    -492.7283123123285122 [Eh]
	-----------------------------------------------------------

  Dipole Moment: [D]
     X:     1.0904      Y:     4.6133      Z:     0.0002     Total:     4.7404

*** Psi4 exiting successfully. Buy a developer a beer!
