                               Psi4 1.3.2 release

  ==> Input File <==

--------------------------------------------------------------------------
#psi4
#
memory 32 gb

molecule  {
0 1
  O        2.3111590    -1.3984000     0.0000580
  O       -2.2718830    -1.4902890    -0.0001310
  N        1.1826080     0.6255060     0.0000550
  N        0.0153410    -1.3761840    -0.0000340
  C       -1.2454019     0.6858141    -0.0000248
  C       -0.0319280     1.2897490     0.0000350
  C        1.2605820    -0.7608720     0.0000310
  C       -1.2542960    -0.7955090    -0.0000670
  C        2.4243390     1.3942650     0.0001240
  C       -2.5504790     1.3758010    -0.0000570
  H        0.0327299     2.3752688     0.0000684
  H        0.0461780    -2.3935470    -0.0000610
  H        2.4800130     2.0209940     0.8935150
  H        2.4798690     2.0213500    -0.8930780
  H        3.2466700     0.6823050    -0.0000520
  H       -3.1375530     1.0948740    -0.8785960
  H       -2.4103180     2.4605130    -0.0000230
  H       -3.1376190     1.0948280     0.8784230
units angstrom
no_reorient  #important for SAPT in psi4, default
symmetry c1  #important for SAPT in psi4, default
}

set PROPERTIES_ORIGIN ["COM"]
properties('MP2/aug-cc-pvtz', properties = ['dipole'])
--------------------------------------------------------------------------

    Molecular point group: c1
  Charge       = 0
  Multiplicity = 1
  Basis Set: AUG-CC-PVTZ
    Blend: AUG-CC-PVTZ
  Basis Set: (AUG-CC-PVTZ AUX)
    Blend: AUG-CC-PVTZ-JKFIT

    Orbital Energies [Eh]
    ---------------------

    Doubly Occupied:

       1A    -20.540734     2A    -20.539383     3A    -15.638096
       4A    -15.625132     5A    -11.413883     6A    -11.377560
       7A    -11.323053     8A    -11.285645     9A    -11.260672
      10A    -11.236504    11A     -1.424021    12A     -1.387161
      13A     -1.306134    14A     -1.242858    15A     -1.109862
      16A     -0.993626    17A     -0.965108    18A     -0.910315
      19A     -0.853236    20A     -0.770110    21A     -0.734596
      22A     -0.690496    23A     -0.681809    24A     -0.649776
      25A     -0.637545    26A     -0.615385    27A     -0.608934
      28A     -0.590633    29A     -0.585522    30A     -0.559804
      31A     -0.547156    32A     -0.543302    33A     -0.487518
      34A     -0.474638    35A     -0.443501    36A     -0.430865
      37A     -0.345250

  @DF-RHF Final Energy:  -490.71142572577770

   => Energetics <=

    Nuclear Repulsion Energy =            530.1073413402330061
    One-Electron Energy =               -1719.9778908473267620
    Two-Electron Energy =                 699.1591237813159978
    Total Energy =                       -490.7114257257777581
  Basis Set: (AUG-CC-PVTZ AUX)
    Blend: AUG-CC-PVTZ-RI
    Molecular point group: c1

    Geometry (in Angstrom), charge = 0, multiplicity = 1:

       Center              X                  Y                   Z               Mass
    ------------   -----------------  -----------------  -----------------  -----------------
         O            2.309489572658    -1.334031540174     0.000059293940    15.994914619570
         O           -2.273552427342    -1.425920540174    -0.000129706060    15.994914619570
         N            1.180938572658     0.689874459826     0.000056293940    14.003074004430
         N            0.013671572658    -1.311815540174    -0.000032706060    14.003074004430
         C           -1.247071327342     0.750182559826    -0.000023506060    12.000000000000
         C           -0.033597427342     1.354117459826     0.000036293940    12.000000000000
         C            1.258912572658    -0.696503540174     0.000032293940    12.000000000000
         C           -1.255965427342    -0.731140540174    -0.000065706060    12.000000000000
         C            2.422669572658     1.458633459826     0.000125293940    12.000000000000
         C           -2.552148427342     1.440169459826    -0.000055706060    12.000000000000
         H            0.031060472658     2.439637259826     0.000069693940     1.007825032230
         H            0.044508572658    -2.329178540174    -0.000059706060     1.007825032230
         H            2.478343572658     2.085362459826     0.893516293940     1.007825032230
         H            2.478199572658     2.085718459826    -0.893076706060     1.007825032230
         H            3.245000572658     0.746673459826    -0.000050706060     1.007825032230
         H           -3.139222427342     1.159242459826    -0.878594706060     1.007825032230
         H           -2.411987427342     2.524881459826    -0.000021706060     1.007825032230
         H           -3.139288427342     1.159196459826     0.878424293940     1.007825032230

  Basis Set: AUG-CC-PVTZ
    Blend: AUG-CC-PVTZ
  Basis Set: (AUG-CC-PVTZ AUX)
    Blend: AUG-CC-PVTZ-JKFIT
	 Reference Energy          =    -490.7114257257777012 [Eh]
	 Singles Energy            =      -0.0000000000000000 [Eh]
	 Same-Spin Energy          =      -0.5023041937035790 [Eh]
	 Opposite-Spin Energy      =      -1.5413967018077530 [Eh]
	 Correlation Energy        =      -2.0437008955113320 [Eh]
	 Total Energy              =    -492.7551266212890368 [Eh]

	 ================> DF-SCS-MP2 Energies <==================
	-----------------------------------------------------------
	 SCS Same-Spin Scale       =       0.3333333333333333 [-]
	 SCS Opposite-Spin Scale   =       1.2000000000000000 [-]
	 SCS Same-Spin Energy      =      -0.1674347312345263 [Eh]
	 SCS Opposite-Spin Energy  =      -1.8496760421693035 [Eh]
	 SCS Correlation Energy    =      -2.0171107734038296 [Eh]
	 SCS Total Energy          =    -492.7285364991815300 [Eh]
	-----------------------------------------------------------

  Dipole Moment: [D]
     X:     0.9959      Y:     4.4784      Z:     0.0002     Total:     4.5878

*** Psi4 exiting successfully. Buy a developer a beer!
