                               Psi4 1.3.2 release

  ==> Input File <==

--------------------------------------------------------------------------
#psi4
#
memory 32 gb

molecule  {
0 1
  O        2.3111590    -1.3984000     0.0000580
  O       -2.2718830    -1.4902890    -0.0001310
  N        1.1826080     0.6255060     0.0000550
  N        0.0153410    -1.3761840    -0.0000340
  C       -1.2346770     0.6647280    -0.0000250
  C       -0.0319280     1.2897490     0.0000350
  C        1.2605820    -0.7608720     0.0000310
  C       -1.2542960    -0.7955090    -0.0000670
  C        2.4243390     1.3942650     0.0001240
  C       -2.5504790     1.3758010    -0.0000570
  H        0.0516650     2.3739750     0.0000690
  H        0.0461780    -2.3935470    -0.0000610
  H        2.4800130     2.0209940     0.8935150
  H        2.4849506     2.0787353    -0.9748160
  H        3.2466700     0.6823050    -0.0000520
  H       -3.1375530     1.0948740    -0.8785960
  H       -2.4103180     2.4605130    -0.0000230
  H       -3.1376190     1.0948280     0.8784230
units angstrom
no_reorient  #important for SAPT in psi4, default
symmetry c1  #important for SAPT in psi4, default
}

set PROPERTIES_ORIGIN ["COM"]
properties('MP2/aug-cc-pvtz', properties = ['dipole'])
--------------------------------------------------------------------------

    Molecular point group: c1
  Charge       = 0
  Multiplicity = 1
  Basis Set: AUG-CC-PVTZ
    Blend: AUG-CC-PVTZ
  Basis Set: (AUG-CC-PVTZ AUX)
    Blend: AUG-CC-PVTZ-JKFIT

    Orbital Energies [Eh]
    ---------------------

    Doubly Occupied:

       1A    -20.541181     2A    -20.539055     3A    -15.639424
       4A    -15.625131     5A    -11.414474     6A    -11.376672
       7A    -11.325116     8A    -11.297437     9A    -11.260158
      10A    -11.237398    11A     -1.424738    12A     -1.387501
      13A     -1.307293    14A     -1.243309    15A     -1.109189
      16A     -0.988016    17A     -0.963199    18A     -0.914690
      19A     -0.851262    20A     -0.771003    21A     -0.734297
      22A     -0.692437    23A     -0.679451    24A     -0.648916
      25A     -0.638266    26A     -0.610583    27A     -0.610167
      28A     -0.586462    29A     -0.580794    30A     -0.555262
      31A     -0.548411    32A     -0.541471    33A     -0.485271
      34A     -0.475930    35A     -0.444834    36A     -0.431016
      37A     -0.346198

  @DF-RHF Final Energy:  -490.70545615942615

   => Energetics <=

    Nuclear Repulsion Energy =            529.9352202487399381
    One-Electron Energy =               -1719.6293284486844186
    Two-Electron Energy =                 698.9886520405182182
    Total Energy =                       -490.7054561594261486
  Basis Set: (AUG-CC-PVTZ AUX)
    Blend: AUG-CC-PVTZ-RI
    Molecular point group: c1

    Geometry (in Angstrom), charge = 0, multiplicity = 1:

       Center              X                  Y                   Z               Mass
    ------------   -----------------  -----------------  -----------------  -----------------
         O            2.308397862074    -1.332628535904     0.000647472110    15.994914619570
         O           -2.274644137926    -1.424517535904     0.000458472110    15.994914619570
         N            1.179846862074     0.691277464096     0.000644472110    14.003074004430
         N            0.012579862074    -1.310412535904     0.000555472110    14.003074004430
         C           -1.237438137926     0.730499464096     0.000564472110    12.000000000000
         C           -0.034689137926     1.355520464096     0.000624472110    12.000000000000
         C            1.257820862074    -0.695100535904     0.000620472110    12.000000000000
         C           -1.257057137926    -0.729737535904     0.000522472110    12.000000000000
         C            2.421577862074     1.460036464096     0.000713472110    12.000000000000
         C           -2.553240137926     1.441572464096     0.000532472110    12.000000000000
         H            0.048903862074     2.439746464096     0.000658472110     1.007825032230
         H            0.043416862074    -2.327775535904     0.000528472110     1.007825032230
         H            2.477251862074     2.086765464096     0.894104472110     1.007825032230
         H            2.482189462074     2.144506764096    -0.974226527890     1.007825032230
         H            3.243908862074     0.748076464096     0.000537472110     1.007825032230
         H           -3.140314137926     1.160645464096    -0.878006527890     1.007825032230
         H           -2.413079137926     2.526284464096     0.000566472110     1.007825032230
         H           -3.140380137926     1.160599464096     0.879012472110     1.007825032230

  Basis Set: AUG-CC-PVTZ
    Blend: AUG-CC-PVTZ
  Basis Set: (AUG-CC-PVTZ AUX)
    Blend: AUG-CC-PVTZ-JKFIT
	 Reference Energy          =    -490.7054561594261486 [Eh]
	 Singles Energy            =      -0.0000000000000000 [Eh]
	 Same-Spin Energy          =      -0.5023975782684522 [Eh]
	 Opposite-Spin Energy      =      -1.5421687815412866 [Eh]
	 Correlation Energy        =      -2.0445663598097390 [Eh]
	 Total Energy              =    -492.7500225192358698 [Eh]

	 ================> DF-SCS-MP2 Energies <==================
	-----------------------------------------------------------
	 SCS Same-Spin Scale       =       0.3333333333333333 [-]
	 SCS Opposite-Spin Scale   =       1.2000000000000000 [-]
	 SCS Same-Spin Energy      =      -0.1674658594228174 [Eh]
	 SCS Opposite-Spin Energy  =      -1.8506025378495439 [Eh]
	 SCS Correlation Energy    =      -2.0180683972723612 [Eh]
	 SCS Total Energy          =    -492.7235245566985213 [Eh]
	-----------------------------------------------------------

  Dipole Moment: [D]
     X:     1.0030      Y:     4.4710      Z:     0.0365     Total:     4.5823

*** Psi4 exiting successfully. Buy a developer a beer!
