                               Psi4 1.4a3.dev225

  ==> Input File <==

--------------------------------------------------------------------------
#psi4
#
memory 32 gb

molecule  {
0 1
  O        2.3212770    -1.3580180     0.0000020
  O       -2.2717460    -1.4962290     0.0000010
  N        1.1724310     0.6334210    -0.0000020
  N        0.0162060    -1.3769820    -0.0000020
  C       -1.2398930     0.6613320     0.0000000
  C       -0.0398910     1.2934770    -0.0000010
  C        1.2527440    -0.7526170    -0.0000010
  C       -1.2589250    -0.7964470     0.0000000
  C        2.4447950     1.3519700     0.0000010
  C       -2.5550880     1.3760200     0.0000010
  H        0.0310140     2.3780990    -0.0000010
  H        0.0457120    -2.3937650    -0.0000010
  H        2.2343430     2.4214070    -0.0000200
  H        3.0241620     1.0875710    -0.8862110
  H        3.0241420     1.0876020     0.8862360
  H       -3.1701572     1.0850678    -0.9192425
  H       -2.4120010     2.4600010     0.0000010
  H       -3.1432670     1.0977870     0.8790540
units angstrom
no_reorient  #important for SAPT in psi4, default
symmetry c1  #important for SAPT in psi4, default
}

set PROPERTIES_ORIGIN ["COM"]
properties('MP2/aug-cc-pvtz', properties = ['dipole'])
--------------------------------------------------------------------------

    Molecular point group: c1
  Charge       = 0
  Multiplicity = 1
  Basis Set: AUG-CC-PVTZ
    Blend: AUG-CC-PVTZ
  Basis Set: (AUG-CC-PVTZ AUX)
    Blend: AUG-CC-PVTZ-JKFIT

    Orbital Energies [Eh]
    ---------------------

    Doubly Occupied:

       1A    -20.541264     2A    -20.538073     3A    -15.638823
       4A    -15.624951     5A    -11.411670     6A    -11.375971
       7A    -11.326774     8A    -11.288867     9A    -11.257600
      10A    -11.242202    11A     -1.425041    12A     -1.387290
      13A     -1.306738    14A     -1.243698    15A     -1.108435
      16A     -0.993086    17A     -0.960530    18A     -0.914284
      19A     -0.852224    20A     -0.770862    21A     -0.735192
      22A     -0.693908    23A     -0.683182    24A     -0.650246
      25A     -0.636767    26A     -0.612187    27A     -0.608780
      28A     -0.590996    29A     -0.577222    30A     -0.558027
      31A     -0.545827    32A     -0.538233    33A     -0.491572
      34A     -0.475671    35A     -0.444283    36A     -0.430317
      37A     -0.343719

  @DF-RHF Final Energy:  -490.71041309210540

   => Energetics <=

    Nuclear Repulsion Energy =            530.5337585724425935
    One-Electron Energy =               -1720.8393219005424726
    Two-Electron Energy =                 699.5951502359945380
    Total Energy =                       -490.7104130921053411
  Basis Set: (AUG-CC-PVTZ AUX)
    Blend: AUG-CC-PVTZ-RI
    Molecular point group: c1

    Geometry (in Angstrom), charge = 0, multiplicity = 1:

       Center              X                  Y                   Z               Mass
    ------------   -----------------  -----------------  -----------------  -----------------
         O            2.319043624317    -1.292582445497     0.000291214508    15.994914619570
         O           -2.273979375683    -1.430793445497     0.000290214508    15.994914619570
         N            1.170197624317     0.698856554503     0.000287214508    14.003074004430
         N            0.013972624317    -1.311546445497     0.000287214508    14.003074004430
         C           -1.242126375683     0.726767554503     0.000289214508    12.000000000000
         C           -0.042124375683     1.358912554503     0.000288214508    12.000000000000
         C            1.250510624317    -0.687181445497     0.000288214508    12.000000000000
         C           -1.261158375683    -0.731011445497     0.000289214508    12.000000000000
         C            2.442561624317     1.417405554503     0.000290214508    12.000000000000
         C           -2.557321375683     1.441455554503     0.000290214508    12.000000000000
         H            0.028780624317     2.443534554503     0.000288214508     1.007825032230
         H            0.043478624317    -2.328329445497     0.000288214508     1.007825032230
         H            2.232109624317     2.486842554503     0.000269214508     1.007825032230
         H            3.021928624317     1.153006554503    -0.885921785492     1.007825032230
         H            3.021908624317     1.153037554503     0.886525214508     1.007825032230
         H           -3.172390575683     1.150503354503    -0.918953285492     1.007825032230
         H           -2.414234375683     2.525436554503     0.000290214508     1.007825032230
         H           -3.145500375683     1.163222554503     0.879343214508     1.007825032230

  Basis Set: AUG-CC-PVTZ
    Blend: AUG-CC-PVTZ
  Basis Set: (AUG-CC-PVTZ AUX)
    Blend: AUG-CC-PVTZ-JKFIT
	 Reference Energy          =    -490.7104130921053979 [Eh]
	 Singles Energy            =      -0.0000000000000000 [Eh]
	 Same-Spin Energy          =      -0.5023802240544251 [Eh]
	 Opposite-Spin Energy      =      -1.5416429836642185 [Eh]
	 Correlation Energy        =      -2.0440232077186433 [Eh]
	 Total Energy              =    -492.7544362998240217 [Eh]

	 ================> DF-SCS-MP2 Energies <==================
	-----------------------------------------------------------
	 SCS Same-Spin Scale       =       0.3333333333333333 [-]
	 SCS Opposite-Spin Scale   =       1.2000000000000000 [-]
	 SCS Same-Spin Energy      =      -0.1674600746848083 [Eh]
	 SCS Opposite-Spin Energy  =      -1.8499715803970620 [Eh]
	 SCS Correlation Energy    =      -2.0174316550818703 [Eh]
	 SCS Total Energy          =    -492.7278447471872482 [Eh]
	-----------------------------------------------------------

  Dipole Moment: [D]
     X:     1.1150      Y:     4.5055      Z:     0.0120     Total:     4.6414

*** Psi4 exiting successfully. Buy a developer a beer!
