                               Psi4 1.4a3.dev225

  ==> Input File <==

--------------------------------------------------------------------------
#psi4
#
memory 32 gb

molecule  {
0 1
  O        2.3212770    -1.3580180     0.0000020
  O       -2.2717460    -1.4962290     0.0000010
  N        1.1724310     0.6334210    -0.0000020
  N        0.0162060    -1.3769820    -0.0000020
  C       -1.2398930     0.6613320     0.0000000
  C       -0.0398910     1.2934770    -0.0000010
  C        1.2527440    -0.7526170    -0.0000010
  C       -1.2424705    -0.7850782    -0.0000000
  C        2.4447950     1.3519700     0.0000010
  C       -2.5550880     1.3760200     0.0000010
  H        0.0310140     2.3780990    -0.0000010
  H        0.0457120    -2.3937650    -0.0000010
  H        2.2343430     2.4214070    -0.0000200
  H        3.0241620     1.0875710    -0.8862110
  H        3.0241420     1.0876020     0.8862360
  H       -3.1432670     1.0977880    -0.8790540
  H       -2.4120010     2.4600010     0.0000010
  H       -3.1432670     1.0977870     0.8790540
units angstrom
no_reorient  #important for SAPT in psi4, default
symmetry c1  #important for SAPT in psi4, default
}

set PROPERTIES_ORIGIN ["COM"]
properties('MP2/aug-cc-pvtz', properties = ['dipole'])
--------------------------------------------------------------------------

    Molecular point group: c1
  Charge       = 0
  Multiplicity = 1
  Basis Set: AUG-CC-PVTZ
    Blend: AUG-CC-PVTZ
  Basis Set: (AUG-CC-PVTZ AUX)
    Blend: AUG-CC-PVTZ-JKFIT

    Orbital Energies [Eh]
    ---------------------

    Doubly Occupied:

       1A    -20.542578     2A    -20.533449     3A    -15.640578
       4A    -15.627419     5A    -11.412842     6A    -11.375427
       7A    -11.328199     8A    -11.289940     9A    -11.257603
      10A    -11.236866    11A     -1.426009    12A     -1.375718
      13A     -1.307639    14A     -1.245075    15A     -1.110941
      16A     -0.994810    17A     -0.963682    18A     -0.918171
      19A     -0.854772    20A     -0.772218    21A     -0.738838
      22A     -0.694387    23A     -0.684679    24A     -0.648790
      25A     -0.635835    26A     -0.612646    27A     -0.605536
      28A     -0.591894    29A     -0.581944    30A     -0.558801
      31A     -0.547357    32A     -0.536569    33A     -0.493354
      34A     -0.475913    35A     -0.442505    36A     -0.428542
      37A     -0.344855

  @DF-RHF Final Energy:  -490.71035458033958

   => Energetics <=

    Nuclear Repulsion Energy =            530.8701941198111172
    One-Electron Energy =               -1721.4883379023908674
    Two-Electron Energy =                 699.9077892022402239
    Total Energy =                       -490.7103545803396401
  Basis Set: (AUG-CC-PVTZ AUX)
    Blend: AUG-CC-PVTZ-RI
    Molecular point group: c1

    Geometry (in Angstrom), charge = 0, multiplicity = 1:

       Center              X                  Y                   Z               Mass
    ------------   -----------------  -----------------  -----------------  -----------------
         O            2.317440333604    -1.293648037756     0.000002028533    15.994914619570
         O           -2.275582666396    -1.431859037756     0.000001028533    15.994914619570
         N            1.168594333604     0.697790962244    -0.000001971467    14.003074004430
         N            0.012369333604    -1.312612037756    -0.000001971467    14.003074004430
         C           -1.243729666396     0.725701962244     0.000000028533    12.000000000000
         C           -0.043727666396     1.357846962244    -0.000000971467    12.000000000000
         C            1.248907333604    -0.688247037756    -0.000000971467    12.000000000000
         C           -1.246307166396    -0.720708237756     0.000000028533    12.000000000000
         C            2.440958333604     1.416339962244     0.000001028533    12.000000000000
         C           -2.558924666396     1.440389962244     0.000001028533    12.000000000000
         H            0.027177333604     2.442468962244    -0.000000971467     1.007825032230
         H            0.041875333604    -2.329395037756    -0.000000971467     1.007825032230
         H            2.230506333604     2.485776962244    -0.000019971467     1.007825032230
         H            3.020325333604     1.151940962244    -0.886210971467     1.007825032230
         H            3.020305333604     1.151971962244     0.886236028533     1.007825032230
         H           -3.147103666396     1.162157962244    -0.879053971467     1.007825032230
         H           -2.415837666396     2.524370962244     0.000001028533     1.007825032230
         H           -3.147103666396     1.162156962244     0.879054028533     1.007825032230

  Basis Set: AUG-CC-PVTZ
    Blend: AUG-CC-PVTZ
  Basis Set: (AUG-CC-PVTZ AUX)
    Blend: AUG-CC-PVTZ-JKFIT
	 Reference Energy          =    -490.7103545803395832 [Eh]
	 Singles Energy            =      -0.0000000000000000 [Eh]
	 Same-Spin Energy          =      -0.5028839733006936 [Eh]
	 Opposite-Spin Energy      =      -1.5421674008196444 [Eh]
	 Correlation Energy        =      -2.0450513741203382 [Eh]
	 Total Energy              =    -492.7554059544599454 [Eh]

	 ================> DF-SCS-MP2 Energies <==================
	-----------------------------------------------------------
	 SCS Same-Spin Scale       =       0.3333333333333333 [-]
	 SCS Opposite-Spin Scale   =       1.2000000000000000 [-]
	 SCS Same-Spin Energy      =      -0.1676279911002312 [Eh]
	 SCS Opposite-Spin Energy  =      -1.8506008809835732 [Eh]
	 SCS Correlation Energy    =      -2.0182288720838044 [Eh]
	 SCS Total Energy          =    -492.7285834524233792 [Eh]
	-----------------------------------------------------------

  Dipole Moment: [D]
     X:     1.2542      Y:     4.5974      Z:    -0.0000     Total:     4.7655

*** Psi4 exiting successfully. Buy a developer a beer!
