                               Psi4 1.3.2 release

  ==> Input File <==

--------------------------------------------------------------------------
#psi4
#
memory 32 gb

molecule  {
0 1
  O        2.3111590    -1.3984000     0.0000580
  O       -2.2718830    -1.4902890    -0.0001310
  N        1.1826080     0.6255060     0.0000550
  N        0.0153410    -1.3761840    -0.0000340
  C       -1.2173577     0.7010908     0.0671252
  C       -0.0319280     1.2897490     0.0000350
  C        1.2605820    -0.7608720     0.0000310
  C       -1.2542960    -0.7955090    -0.0000670
  C        2.4243390     1.3942650     0.0001240
  C       -2.5504790     1.3758010    -0.0000570
  H        0.0516650     2.3739750     0.0000690
  H        0.0461780    -2.3935470    -0.0000610
  H        2.4800130     2.0209940     0.8935150
  H        2.4798690     2.0213500    -0.8930780
  H        3.2466700     0.6823050    -0.0000520
  H       -3.1790044     1.1298011    -0.8602003
  H       -2.4103180     2.4605130    -0.0000230
  H       -3.1376190     1.0948280     0.8784230
units angstrom
no_reorient  #important for SAPT in psi4, default
symmetry c1  #important for SAPT in psi4, default
}

set PROPERTIES_ORIGIN ["COM"]
properties('MP2/aug-cc-pvtz', properties = ['dipole'])
--------------------------------------------------------------------------

    Molecular point group: c1
  Charge       = 0
  Multiplicity = 1
  Basis Set: AUG-CC-PVTZ
    Blend: AUG-CC-PVTZ
  Basis Set: (AUG-CC-PVTZ AUX)
    Blend: AUG-CC-PVTZ-JKFIT

    Orbital Energies [Eh]
    ---------------------

    Doubly Occupied:

       1A    -20.542209     2A    -20.540501     3A    -15.636101
       4A    -15.624929     5A    -11.413522     6A    -11.380165
       7A    -11.318568     8A    -11.285002     9A    -11.260267
      10A    -11.237565    11A     -1.423891    12A     -1.388119
      13A     -1.306261    14A     -1.242933    15A     -1.111519
      16A     -0.992421    17A     -0.964369    18A     -0.908306
      19A     -0.855725    20A     -0.771041    21A     -0.733076
      22A     -0.691743    23A     -0.681531    24A     -0.650343
      25A     -0.637938    26A     -0.614588    27A     -0.608816
      28A     -0.592061    29A     -0.581243    30A     -0.559027
      31A     -0.546670    32A     -0.540440    33A     -0.488975
      34A     -0.474092    35A     -0.443753    36A     -0.431216
      37A     -0.350534

  @DF-RHF Final Energy:  -490.70934649661621

   => Energetics <=

    Nuclear Repulsion Energy =            530.1046323387449775
    One-Electron Energy =               -1719.9690437686208497
    Two-Electron Energy =                 699.1550649332596095
    Total Energy =                       -490.7093464966162628
  Basis Set: (AUG-CC-PVTZ AUX)
    Blend: AUG-CC-PVTZ-RI
    Molecular point group: c1

    Geometry (in Angstrom), charge = 0, multiplicity = 1:

       Center              X                  Y                   Z               Mass
    ------------   -----------------  -----------------  -----------------  -----------------
         O            2.307248810866    -1.335582440415    -0.005826388082    15.994914619570
         O           -2.275793189134    -1.427471440415    -0.006015388082    15.994914619570
         N            1.178697810866     0.688323559585    -0.005829388082    14.003074004430
         N            0.011430810866    -1.313366440415    -0.005918388082    14.003074004430
         C           -1.221267889134     0.763908359585     0.061240811918    12.000000000000
         C           -0.035838189134     1.352566559585    -0.005849388082    12.000000000000
         C            1.256671810866    -0.698054440415    -0.005853388082    12.000000000000
         C           -1.258206189134    -0.732691440415    -0.005951388082    12.000000000000
         C            2.420428810866     1.457082559585    -0.005760388082    12.000000000000
         C           -2.554389189134     1.438618559585    -0.005941388082    12.000000000000
         H            0.047754810866     2.436792559585    -0.005815388082     1.007825032230
         H            0.042267810866    -2.330729440415    -0.005945388082     1.007825032230
         H            2.476102810866     2.083811559585     0.887630611918     1.007825032230
         H            2.475958810866     2.084167559585    -0.898962388082     1.007825032230
         H            3.242759810866     0.745122559585    -0.005936388082     1.007825032230
         H           -3.182914589134     1.192618659585    -0.866084688082     1.007825032230
         H           -2.414228189134     2.523330559585    -0.005907388082     1.007825032230
         H           -3.141529189134     1.157645559585     0.872538611918     1.007825032230

  Basis Set: AUG-CC-PVTZ
    Blend: AUG-CC-PVTZ
  Basis Set: (AUG-CC-PVTZ AUX)
    Blend: AUG-CC-PVTZ-JKFIT
	 Reference Energy          =    -490.7093464966162060 [Eh]
	 Singles Energy            =      -0.0000000000000000 [Eh]
	 Same-Spin Energy          =      -0.5017640619516569 [Eh]
	 Opposite-Spin Energy      =      -1.5407107700553082 [Eh]
	 Correlation Energy        =      -2.0424748320069650 [Eh]
	 Total Energy              =    -492.7518213286231799 [Eh]

	 ================> DF-SCS-MP2 Energies <==================
	-----------------------------------------------------------
	 SCS Same-Spin Scale       =       0.3333333333333333 [-]
	 SCS Opposite-Spin Scale   =       1.2000000000000000 [-]
	 SCS Same-Spin Energy      =      -0.1672546873172190 [Eh]
	 SCS Opposite-Spin Energy  =      -1.8488529240663698 [Eh]
	 SCS Correlation Energy    =      -2.0161076113835890 [Eh]
	 SCS Total Energy          =    -492.7254541079997807 [Eh]
	-----------------------------------------------------------

  Dipole Moment: [D]
     X:     0.9583      Y:     4.4106      Z:    -0.0394     Total:     4.5137

*** Psi4 exiting successfully. Buy a developer a beer!
