                               Psi4 1.4a3.dev225

  ==> Input File <==

--------------------------------------------------------------------------
#psi4
#
memory 32 gb

molecule  {
0 1
  O        2.3212770    -1.3580180     0.0000020
  O       -2.2717460    -1.4962290     0.0000010
  N        1.1724310     0.6334210    -0.0000020
  N        0.0162060    -1.3769820    -0.0000020
  C       -1.2398930     0.6613320     0.0000000
  C       -0.0574563     1.3030405    -0.0000010
  C        1.2527440    -0.7526170    -0.0000010
  C       -1.2589250    -0.7964470     0.0000000
  C        2.4447950     1.3519700     0.0000010
  C       -2.5550880     1.3760200     0.0000010
  H        0.0310140     2.3780990    -0.0000010
  H        0.0457120    -2.3937650    -0.0000010
  H        2.2343430     2.4214070    -0.0000200
  H        3.0241620     1.0875710    -0.8862110
  H        3.0241420     1.0876020     0.8862360
  H       -3.1432670     1.0977880    -0.8790540
  H       -2.4120010     2.4600010     0.0000010
  H       -3.1432670     1.0977870     0.8790540
units angstrom
no_reorient  #important for SAPT in psi4, default
symmetry c1  #important for SAPT in psi4, default
}

set PROPERTIES_ORIGIN ["COM"]
properties('MP2/aug-cc-pvtz', properties = ['dipole'])
--------------------------------------------------------------------------

    Molecular point group: c1
  Charge       = 0
  Multiplicity = 1
  Basis Set: AUG-CC-PVTZ
    Blend: AUG-CC-PVTZ
  Basis Set: (AUG-CC-PVTZ AUX)
    Blend: AUG-CC-PVTZ-JKFIT

    Orbital Energies [Eh]
    ---------------------

    Doubly Occupied:

       1A    -20.539946     2A    -20.539922     3A    -15.636274
       4A    -15.624713     5A    -11.410296     6A    -11.377667
       7A    -11.325417     8A    -11.287203     9A    -11.258081
      10A    -11.237147    11A     -1.423440    12A     -1.388354
      13A     -1.301624    14A     -1.242293    15A     -1.111850
      16A     -0.991355    17A     -0.961879    18A     -0.914927
      19A     -0.852104    20A     -0.769926    21A     -0.735498
      22A     -0.694570    23A     -0.680790    24A     -0.648854
      25A     -0.636914    26A     -0.612640    27A     -0.611723
      28A     -0.589869    29A     -0.581773    30A     -0.556886
      31A     -0.548728    32A     -0.540320    33A     -0.489094
      34A     -0.475081    35A     -0.445482    36A     -0.430401
      37A     -0.346997

  @DF-RHF Final Energy:  -490.71230909111955

   => Energetics <=

    Nuclear Repulsion Energy =            530.5408127886139482
    One-Electron Energy =               -1720.8661691583167794
    Two-Electron Energy =                 699.6130472785832808
    Total Energy =                       -490.7123090911195504
  Basis Set: (AUG-CC-PVTZ AUX)
    Blend: AUG-CC-PVTZ-RI
    Molecular point group: c1

    Geometry (in Angstrom), charge = 0, multiplicity = 1:

       Center              X                  Y                   Z               Mass
    ------------   -----------------  -----------------  -----------------  -----------------
         O            2.320355096892    -1.293493362474     0.000002028533    15.994914619570
         O           -2.272667903108    -1.431704362474     0.000001028533    15.994914619570
         N            1.171509096892     0.697945637526    -0.000001971467    14.003074004430
         N            0.015284096892    -1.312457362474    -0.000001971467    14.003074004430
         C           -1.240814903108     0.725856637526     0.000000028533    12.000000000000
         C           -0.058378203108     1.367565137526    -0.000000971467    12.000000000000
         C            1.251822096892    -0.688092362474    -0.000000971467    12.000000000000
         C           -1.259846903108    -0.731922362474     0.000000028533    12.000000000000
         C            2.443873096892     1.416494637526     0.000001028533    12.000000000000
         C           -2.556009903108     1.440544637526     0.000001028533    12.000000000000
         H            0.030092096892     2.442623637526    -0.000000971467     1.007825032230
         H            0.044790096892    -2.329240362474    -0.000000971467     1.007825032230
         H            2.233421096892     2.485931637526    -0.000019971467     1.007825032230
         H            3.023240096892     1.152095637526    -0.886210971467     1.007825032230
         H            3.023220096892     1.152126637526     0.886236028533     1.007825032230
         H           -3.144188903108     1.162312637526    -0.879053971467     1.007825032230
         H           -2.412922903108     2.524525637526     0.000001028533     1.007825032230
         H           -3.144188903108     1.162311637526     0.879054028533     1.007825032230

  Basis Set: AUG-CC-PVTZ
    Blend: AUG-CC-PVTZ
  Basis Set: (AUG-CC-PVTZ AUX)
    Blend: AUG-CC-PVTZ-JKFIT
	 Reference Energy          =    -490.7123090911195504 [Eh]
	 Singles Energy            =      -0.0000000000000000 [Eh]
	 Same-Spin Energy          =      -0.5020894886817646 [Eh]
	 Opposite-Spin Energy      =      -1.5411613394368087 [Eh]
	 Correlation Energy        =      -2.0432508281185733 [Eh]
	 Total Energy              =    -492.7555599192381237 [Eh]

	 ================> DF-SCS-MP2 Energies <==================
	-----------------------------------------------------------
	 SCS Same-Spin Scale       =       0.3333333333333333 [-]
	 SCS Opposite-Spin Scale   =       1.2000000000000000 [-]
	 SCS Same-Spin Energy      =      -0.1673631628939215 [Eh]
	 SCS Opposite-Spin Energy  =      -1.8493936073241704 [Eh]
	 SCS Correlation Energy    =      -2.0167567702180920 [Eh]
	 SCS Total Energy          =    -492.7290658613376308 [Eh]
	-----------------------------------------------------------

  Dipole Moment: [D]
     X:     0.9779      Y:     4.5094      Z:    -0.0000     Total:     4.6142

*** Psi4 exiting successfully. Buy a developer a beer!
