                               Psi4 1.3.2 release

  ==> Input File <==

--------------------------------------------------------------------------
#psi4
#
memory 32 gb

molecule  {
0 1
  O        2.3111590    -1.3984000     0.0000580
  O       -2.2718830    -1.4902890    -0.0001310
  N        1.1767652     0.6149326     0.0000545
  N        0.0153410    -1.3761840    -0.0000340
  C       -1.2346770     0.6647280    -0.0000250
  C       -0.0319280     1.2897490     0.0000350
  C        1.2605820    -0.7608720     0.0000310
  C       -1.2542960    -0.7955090    -0.0000670
  C        2.4243390     1.3942650     0.0001240
  C       -2.5504790     1.3758010    -0.0000570
  H        0.0422003     2.3746632     0.0000687
  H        0.0461780    -2.3935470    -0.0000610
  H        2.4800130     2.0209940     0.8935150
  H        2.4798690     2.0213500    -0.8930780
  H        3.2466700     0.6823050    -0.0000520
  H       -3.1375530     1.0948740    -0.8785960
  H       -2.4103180     2.4605130    -0.0000230
  H       -3.1376190     1.0948280     0.8784230
units angstrom
no_reorient  #important for SAPT in psi4, default
symmetry c1  #important for SAPT in psi4, default
}

set PROPERTIES_ORIGIN ["COM"]
properties('MP2/aug-cc-pvtz', properties = ['dipole'])
--------------------------------------------------------------------------

    Molecular point group: c1
  Charge       = 0
  Multiplicity = 1
  Basis Set: AUG-CC-PVTZ
    Blend: AUG-CC-PVTZ
  Basis Set: (AUG-CC-PVTZ AUX)
    Blend: AUG-CC-PVTZ-JKFIT

    Orbital Energies [Eh]
    ---------------------

    Doubly Occupied:

       1A    -20.539204     2A    -20.538310     3A    -15.638366
       4A    -15.623736     5A    -11.412331     6A    -11.375987
       7A    -11.324937     8A    -11.287074     9A    -11.259814
      10A    -11.237258    11A     -1.424218    12A     -1.386722
      13A     -1.306903    14A     -1.241821    15A     -1.109161
      16A     -0.992624    17A     -0.965625    18A     -0.914390
      19A     -0.852403    20A     -0.771413    21A     -0.734397
      22A     -0.692474    23A     -0.682296    24A     -0.647682
      25A     -0.637648    26A     -0.615213    27A     -0.608598
      28A     -0.589559    29A     -0.584088    30A     -0.555721
      31A     -0.547806    32A     -0.543431    33A     -0.488314
      34A     -0.474948    35A     -0.443946    36A     -0.430136
      37A     -0.346401

  @DF-RHF Final Energy:  -490.71202851247511

   => Energetics <=

    Nuclear Repulsion Energy =            530.5316260486467854
    One-Electron Energy =               -1720.8374007360280302
    Two-Electron Energy =                 699.5937461749060731
    Total Energy =                       -490.7120285124751717
  Basis Set: (AUG-CC-PVTZ AUX)
    Blend: AUG-CC-PVTZ-RI
    Molecular point group: c1

    Geometry (in Angstrom), charge = 0, multiplicity = 1:

       Center              X                  Y                   Z               Mass
    ------------   -----------------  -----------------  -----------------  -----------------
         O            2.309086697330    -1.331163428497     0.000059358907    15.994914619570
         O           -2.273955302670    -1.423052428497    -0.000129641093    15.994914619570
         N            1.174692897330     0.682169171503     0.000055858907    14.003074004430
         N            0.013268697330    -1.308947428497    -0.000032641093    14.003074004430
         C           -1.236749302670     0.731964571503    -0.000023641093    12.000000000000
         C           -0.034000302670     1.356985571503     0.000036358907    12.000000000000
         C            1.258509697330    -0.693635428497     0.000032358907    12.000000000000
         C           -1.256368302670    -0.728272428497    -0.000065641093    12.000000000000
         C            2.422266697330     1.461501571503     0.000125358907    12.000000000000
         C           -2.552551302670     1.443037571503    -0.000055641093    12.000000000000
         H            0.040127997330     2.441899771503     0.000070058907     1.007825032230
         H            0.044105697330    -2.326310428497    -0.000059641093     1.007825032230
         H            2.477940697330     2.088230571503     0.893516358907     1.007825032230
         H            2.477796697330     2.088586571503    -0.893076641093     1.007825032230
         H            3.244597697330     0.749541571503    -0.000050641093     1.007825032230
         H           -3.139625302670     1.162110571503    -0.878594641093     1.007825032230
         H           -2.412390302670     2.527749571503    -0.000021641093     1.007825032230
         H           -3.139691302670     1.162064571503     0.878424358907     1.007825032230

  Basis Set: AUG-CC-PVTZ
    Blend: AUG-CC-PVTZ
  Basis Set: (AUG-CC-PVTZ AUX)
    Blend: AUG-CC-PVTZ-JKFIT
	 Reference Energy          =    -490.7120285124751149 [Eh]
	 Singles Energy            =      -0.0000000000000000 [Eh]
	 Same-Spin Energy          =      -0.5023278135996652 [Eh]
	 Opposite-Spin Energy      =      -1.5413683219913472 [Eh]
	 Correlation Energy        =      -2.0436961355910124 [Eh]
	 Total Energy              =    -492.7557246480661206 [Eh]

	 ================> DF-SCS-MP2 Energies <==================
	-----------------------------------------------------------
	 SCS Same-Spin Scale       =       0.3333333333333333 [-]
	 SCS Opposite-Spin Scale   =       1.2000000000000000 [-]
	 SCS Same-Spin Energy      =      -0.1674426045332217 [Eh]
	 SCS Opposite-Spin Energy  =      -1.8496419863896165 [Eh]
	 SCS Correlation Energy    =      -2.0170845909228383 [Eh]
	 SCS Total Energy          =    -492.7291131033979354 [Eh]
	-----------------------------------------------------------

  Dipole Moment: [D]
     X:     1.0381      Y:     4.5782      Z:     0.0002     Total:     4.6945

*** Psi4 exiting successfully. Buy a developer a beer!
