                               Psi4 1.3.2 release

  ==> Input File <==

--------------------------------------------------------------------------
#psi4
#
memory 32 gb

molecule  {
0 1
  O        2.3111590    -1.3984000     0.0000580
  O       -2.2718830    -1.4902890    -0.0001310
  N        1.1826080     0.6255060     0.0000550
  N        0.0153410    -1.3761840    -0.0000340
  C       -1.2556028     0.6303142    -0.0671752
  C       -0.0319280     1.2897490     0.0000350
  C        1.2605820    -0.7608720     0.0000310
  C       -1.2542960    -0.7955090    -0.0000670
  C        2.4243390     1.3942650     0.0001240
  C       -2.5504790     1.3758010    -0.0000570
  H        0.0516650     2.3739750     0.0000690
  H        0.0461780    -2.3935470    -0.0000610
  H        2.4800130     2.0209940     0.8935150
  H        2.4798690     2.0213500    -0.8930780
  H        3.2466700     0.6823050    -0.0000520
  H       -3.0944924     1.0607169    -0.8945837
  H       -2.4103180     2.4605130    -0.0000230
  H       -3.1376190     1.0948280     0.8784230
units angstrom
no_reorient  #important for SAPT in psi4, default
symmetry c1  #important for SAPT in psi4, default
}

set PROPERTIES_ORIGIN ["COM"]
properties('MP2/aug-cc-pvtz', properties = ['dipole'])
--------------------------------------------------------------------------

    Molecular point group: c1
  Charge       = 0
  Multiplicity = 1
  Basis Set: AUG-CC-PVTZ
    Blend: AUG-CC-PVTZ
  Basis Set: (AUG-CC-PVTZ AUX)
    Blend: AUG-CC-PVTZ-JKFIT

    Orbital Energies [Eh]
    ---------------------

    Doubly Occupied:

       1A    -20.540972     2A    -20.534256     3A    -15.641145
       4A    -15.624216     5A    -11.414245     6A    -11.371761
       7A    -11.332666     8A    -11.287330     9A    -11.259772
      10A    -11.236583    11A     -1.424541    12A     -1.385606
      13A     -1.307662    14A     -1.242833    15A     -1.106380
      16A     -0.994263    17A     -0.963662    18A     -0.919584
      19A     -0.849662    20A     -0.769407    21A     -0.736442
      22A     -0.692936    23A     -0.682900    24A     -0.648934
      25A     -0.637893    26A     -0.617263    27A     -0.609553
      28A     -0.591477    29A     -0.583997    30A     -0.559197
      31A     -0.542988    32A     -0.540327    33A     -0.486628
      34A     -0.476132    35A     -0.443644    36A     -0.429907
      37A     -0.340969

  @DF-RHF Final Energy:  -490.70562135321063

   => Energetics <=

    Nuclear Repulsion Energy =            530.5089378763124159
    One-Electron Energy =               -1720.7736575977580742
    Two-Electron Energy =                 699.5590983682349133
    Total Energy =                       -490.7056213532106312
  Basis Set: (AUG-CC-PVTZ AUX)
    Blend: AUG-CC-PVTZ-RI
    Molecular point group: c1

    Geometry (in Angstrom), charge = 0, multiplicity = 1:

       Center              X                  Y                   Z               Mass
    ------------   -----------------  -----------------  -----------------  -----------------
         O            2.309917464921    -1.329021300052     0.005927674258    15.994914619570
         O           -2.273124535079    -1.420910300052     0.005738674258    15.994914619570
         N            1.181366464921     0.694884699948     0.005924674258    14.003074004430
         N            0.014099464921    -1.306805300052     0.005835674258    14.003074004430
         C           -1.256844335079     0.699692899948    -0.061305525742    12.000000000000
         C           -0.033169535079     1.359127699948     0.005904674258    12.000000000000
         C            1.259340464921    -0.691493300052     0.005900674258    12.000000000000
         C           -1.255537535079    -0.726130300052     0.005802674258    12.000000000000
         C            2.423097464921     1.463643699948     0.005993674258    12.000000000000
         C           -2.551720535079     1.445179699948     0.005812674258    12.000000000000
         H            0.050423464921     2.443353699948     0.005938674258     1.007825032230
         H            0.044936464921    -2.324168300052     0.005808674258     1.007825032230
         H            2.478771464921     2.090372699948     0.899384674258     1.007825032230
         H            2.478627464921     2.090728699948    -0.887208325742     1.007825032230
         H            3.245428464921     0.751683699948     0.005817674258     1.007825032230
         H           -3.095733935079     1.130095599948    -0.888714025742     1.007825032230
         H           -2.411559535079     2.529891699948     0.005846674258     1.007825032230
         H           -3.138860535079     1.164206699948     0.884292674258     1.007825032230

  Basis Set: AUG-CC-PVTZ
    Blend: AUG-CC-PVTZ
  Basis Set: (AUG-CC-PVTZ AUX)
    Blend: AUG-CC-PVTZ-JKFIT
	 Reference Energy          =    -490.7056213532106312 [Eh]
	 Singles Energy            =      -0.0000000000000000 [Eh]
	 Same-Spin Energy          =      -0.5033816719785258 [Eh]
	 Opposite-Spin Energy      =      -1.5429452023354258 [Eh]
	 Correlation Energy        =      -2.0463268743139515 [Eh]
	 Total Energy              =    -492.7519482275245650 [Eh]

	 ================> DF-SCS-MP2 Energies <==================
	-----------------------------------------------------------
	 SCS Same-Spin Scale       =       0.3333333333333333 [-]
	 SCS Opposite-Spin Scale   =       1.2000000000000000 [-]
	 SCS Same-Spin Energy      =      -0.1677938906595086 [Eh]
	 SCS Opposite-Spin Energy  =      -1.8515342428025108 [Eh]
	 SCS Correlation Energy    =      -2.0193281334620194 [Eh]
	 SCS Total Energy          =    -492.7249494866726423 [Eh]
	-----------------------------------------------------------

  Dipole Moment: [D]
     X:     1.1551      Y:     4.6220      Z:     0.0380     Total:     4.7643

*** Psi4 exiting successfully. Buy a developer a beer!
