                               Psi4 1.4a3.dev225

  ==> Input File <==

--------------------------------------------------------------------------
#psi4
#
memory 32 gb

molecule  {
0 1
  O        2.3212770    -1.3580180     0.0000020
  O       -2.2717460    -1.4962290     0.0000010
  N        1.1724310     0.6334210    -0.0000020
  N        0.0162060    -1.3769820    -0.0000020
  C       -1.2398930     0.6613320     0.0000000
  C       -0.0398910     1.2934770    -0.0000010
  C        1.2527440    -0.7526170    -0.0000010
  C       -1.2177888    -0.7680250    -0.0000000
  C        2.4447950     1.3519700     0.0000010
  C       -2.5550880     1.3760200     0.0000010
  H        0.0310140     2.3780990    -0.0000010
  H        0.0457120    -2.3937650    -0.0000010
  H        2.2343430     2.4214070    -0.0000200
  H        3.0241620     1.0875710    -0.8862110
  H        3.0241420     1.0876020     0.8862360
  H       -3.1432670     1.0977880    -0.8790540
  H       -2.4120010     2.4600010     0.0000010
  H       -3.1432670     1.0977870     0.8790540
units angstrom
no_reorient  #important for SAPT in psi4, default
symmetry c1  #important for SAPT in psi4, default
}

set PROPERTIES_ORIGIN ["COM"]
properties('MP2/aug-cc-pvtz', properties = ['dipole'])
--------------------------------------------------------------------------

    Molecular point group: c1
  Charge       = 0
  Multiplicity = 1
  Basis Set: AUG-CC-PVTZ
    Blend: AUG-CC-PVTZ
  Basis Set: (AUG-CC-PVTZ AUX)
    Blend: AUG-CC-PVTZ-JKFIT

    Orbital Energies [Eh]
    ---------------------

    Doubly Occupied:

       1A    -20.544684     2A    -20.526516     3A    -15.643558
       4A    -15.631126     5A    -11.414717     6A    -11.374450
       7A    -11.330850     8A    -11.291759     9A    -11.258177
      10A    -11.237460    11A     -1.428261    12A     -1.360942
      13A     -1.308334    14A     -1.245950    15A     -1.114320
      16A     -0.996458    17A     -0.965515    18A     -0.923037
      19A     -0.857485    20A     -0.774339    21A     -0.744279
      22A     -0.695680    23A     -0.687129    24A     -0.648622
      25A     -0.634498    26A     -0.613184    27A     -0.599137
      28A     -0.592452    29A     -0.582783    30A     -0.560588
      31A     -0.546380    32A     -0.532133    33A     -0.495293
      34A     -0.476436    35A     -0.438566    36A     -0.425146
      37A     -0.346150

  @DF-RHF Final Energy:  -490.70490164416049

   => Energetics <=

    Nuclear Repulsion Energy =            531.0726396622982293
    One-Electron Energy =               -1721.8622918348271469
    Two-Electron Energy =                 700.0847505283683176
    Total Energy =                       -490.7049016441604863
  Basis Set: (AUG-CC-PVTZ AUX)
    Blend: AUG-CC-PVTZ-RI
    Molecular point group: c1

    Geometry (in Angstrom), charge = 0, multiplicity = 1:

       Center              X                  Y                   Z               Mass
    ------------   -----------------  -----------------  -----------------  -----------------
         O            2.315325644127    -1.295109129277     0.000002028533    15.994914619570
         O           -2.277697355873    -1.433320129277     0.000001028533    15.994914619570
         N            1.166479644127     0.696329870723    -0.000001971467    14.003074004430
         N            0.010254644127    -1.314073129277    -0.000001971467    14.003074004430
         C           -1.245844355873     0.724240870723     0.000000028533    12.000000000000
         C           -0.045842355873     1.356385870723    -0.000000971467    12.000000000000
         C            1.246792644127    -0.689708129277    -0.000000971467    12.000000000000
         C           -1.223740155873    -0.705116129277     0.000000028533    12.000000000000
         C            2.438843644127     1.414878870723     0.000001028533    12.000000000000
         C           -2.561039355873     1.438928870723     0.000001028533    12.000000000000
         H            0.025062644127     2.441007870723    -0.000000971467     1.007825032230
         H            0.039760644127    -2.330856129277    -0.000000971467     1.007825032230
         H            2.228391644127     2.484315870723    -0.000019971467     1.007825032230
         H            3.018210644127     1.150479870723    -0.886210971467     1.007825032230
         H            3.018190644127     1.150510870723     0.886236028533     1.007825032230
         H           -3.149218355873     1.160696870723    -0.879053971467     1.007825032230
         H           -2.417952355873     2.522909870723     0.000001028533     1.007825032230
         H           -3.149218355873     1.160695870723     0.879054028533     1.007825032230

  Basis Set: AUG-CC-PVTZ
    Blend: AUG-CC-PVTZ
  Basis Set: (AUG-CC-PVTZ AUX)
    Blend: AUG-CC-PVTZ-JKFIT
	 Reference Energy          =    -490.7049016441604863 [Eh]
	 Singles Energy            =      -0.0000000000000000 [Eh]
	 Same-Spin Energy          =      -0.5036806040902124 [Eh]
	 Opposite-Spin Energy      =      -1.5434919714494173 [Eh]
	 Correlation Energy        =      -2.0471725755396299 [Eh]
	 Total Energy              =    -492.7520742197000914 [Eh]

	 ================> DF-SCS-MP2 Energies <==================
	-----------------------------------------------------------
	 SCS Same-Spin Scale       =       0.3333333333333333 [-]
	 SCS Opposite-Spin Scale   =       1.2000000000000000 [-]
	 SCS Same-Spin Energy      =      -0.1678935346967375 [Eh]
	 SCS Opposite-Spin Energy  =      -1.8521903657393006 [Eh]
	 SCS Correlation Energy    =      -2.0200839004360382 [Eh]
	 SCS Total Energy          =    -492.7249855445965068 [Eh]
	-----------------------------------------------------------

  Dipole Moment: [D]
     X:     1.4815      Y:     4.7218      Z:    -0.0000     Total:     4.9488

*** Psi4 exiting successfully. Buy a developer a beer!
