                               Psi4 1.4a3.dev225

  ==> Input File <==

--------------------------------------------------------------------------
#psi4
#
memory 32 gb

molecule  {
0 1
  O        2.3212770    -1.3580180     0.0000020
  O       -2.2717460    -1.4962290     0.0000010
  N        1.1724310     0.6334210    -0.0000020
  N        0.0162060    -1.3769820    -0.0000020
  C       -1.2398930     0.6613320     0.0000000
  C       -0.0398910     1.2934770    -0.0000010
  C        1.2962469    -0.7772645    -0.0000009
  C       -1.2589250    -0.7964470     0.0000000
  C        2.4447950     1.3519700     0.0000010
  C       -2.5550880     1.3760200     0.0000010
  H        0.0310140     2.3780990    -0.0000010
  H        0.0457120    -2.3937650    -0.0000010
  H        2.2343430     2.4214070    -0.0000200
  H        3.0241620     1.0875710    -0.8862110
  H        3.0241420     1.0876020     0.8862360
  H       -3.1432670     1.0977880    -0.8790540
  H       -2.4120010     2.4600010     0.0000010
  H       -3.1432670     1.0977870     0.8790540
units angstrom
no_reorient  #important for SAPT in psi4, default
symmetry c1  #important for SAPT in psi4, default
}

set PROPERTIES_ORIGIN ["COM"]
properties('MP2/aug-cc-pvtz', properties = ['dipole'])
--------------------------------------------------------------------------

    Molecular point group: c1
  Charge       = 0
  Multiplicity = 1
  Basis Set: AUG-CC-PVTZ
    Blend: AUG-CC-PVTZ
  Basis Set: (AUG-CC-PVTZ AUX)
    Blend: AUG-CC-PVTZ-JKFIT

    Orbital Energies [Eh]
    ---------------------

    Doubly Occupied:

       1A    -20.555233     2A    -20.534138     3A    -15.633054
       4A    -15.618891     5A    -11.413074     6A    -11.372477
       7A    -11.323572     8A    -11.286657     9A    -11.252469
      10A    -11.233489    11A     -1.451467    12A     -1.387342
      13A     -1.307363    14A     -1.234040    15A     -1.105047
      16A     -0.989249    17A     -0.956149    18A     -0.909543
      19A     -0.847479    20A     -0.766445    21A     -0.728336
      22A     -0.697424    23A     -0.681961    24A     -0.657015
      25A     -0.641600    26A     -0.610081    27A     -0.608367
      28A     -0.588078    29A     -0.584417    30A     -0.555518
      31A     -0.545189    32A     -0.545045    33A     -0.493442
      34A     -0.484461    35A     -0.442206    36A     -0.430308
      37A     -0.339947

  @DF-RHF Final Energy:  -490.71024664213758

   => Energetics <=

    Nuclear Repulsion Energy =            530.4556832104949535
    One-Electron Energy =               -1720.7107171457200820
    Two-Electron Energy =                 699.5447872930875519
    Total Energy =                       -490.7102466421375766
  Basis Set: (AUG-CC-PVTZ AUX)
    Blend: AUG-CC-PVTZ-RI
    Molecular point group: c1

    Geometry (in Angstrom), charge = 0, multiplicity = 1:

       Center              X                  Y                   Z               Mass
    ------------   -----------------  -----------------  -----------------  -----------------
         O            2.315122868970    -1.290562217468     0.000002019965    15.994914619570
         O           -2.277900131030    -1.428773217468     0.000001019965    15.994914619570
         N            1.166276868970     0.700876782532    -0.000001980035    14.003074004430
         N            0.010051868970    -1.309526217468    -0.000001980035    14.003074004430
         C           -1.246047131030     0.728787782532     0.000000019965    12.000000000000
         C           -0.046045131030     1.360932782532    -0.000000980035    12.000000000000
         C            1.290092768970    -0.709808717468    -0.000000880035    12.000000000000
         C           -1.265079131030    -0.728991217468     0.000000019965    12.000000000000
         C            2.438640868970     1.419425782532     0.000001019965    12.000000000000
         C           -2.561242131030     1.443475782532     0.000001019965    12.000000000000
         H            0.024859868970     2.445554782532    -0.000000980035     1.007825032230
         H            0.039557868970    -2.326309217468    -0.000000980035     1.007825032230
         H            2.228188868970     2.488862782532    -0.000019980035     1.007825032230
         H            3.018007868970     1.155026782532    -0.886210980035     1.007825032230
         H            3.017987868970     1.155057782532     0.886236019965     1.007825032230
         H           -3.149421131030     1.165243782532    -0.879053980035     1.007825032230
         H           -2.418155131030     2.527456782532     0.000001019965     1.007825032230
         H           -3.149421131030     1.165242782532     0.879054019965     1.007825032230

  Basis Set: AUG-CC-PVTZ
    Blend: AUG-CC-PVTZ
  Basis Set: (AUG-CC-PVTZ AUX)
    Blend: AUG-CC-PVTZ-JKFIT
	 Reference Energy          =    -490.7102466421375766 [Eh]
	 Singles Energy            =      -0.0000000000000000 [Eh]
	 Same-Spin Energy          =      -0.5016840387156372 [Eh]
	 Opposite-Spin Energy      =      -1.5401004529519349 [Eh]
	 Correlation Energy        =      -2.0417844916675723 [Eh]
	 Total Energy              =    -492.7520311338051329 [Eh]

	 ================> DF-SCS-MP2 Energies <==================
	-----------------------------------------------------------
	 SCS Same-Spin Scale       =       0.3333333333333333 [-]
	 SCS Opposite-Spin Scale   =       1.2000000000000000 [-]
	 SCS Same-Spin Energy      =      -0.1672280129052124 [Eh]
	 SCS Opposite-Spin Energy  =      -1.8481205435423218 [Eh]
	 SCS Correlation Energy    =      -2.0153485564475342 [Eh]
	 SCS Total Energy          =    -492.7255951985850970 [Eh]
	-----------------------------------------------------------

  Dipole Moment: [D]
     X:     1.5683      Y:     4.2415      Z:    -0.0000     Total:     4.5221

*** Psi4 exiting successfully. Buy a developer a beer!
