                               Psi4 1.3.2 release

  ==> Input File <==

--------------------------------------------------------------------------
#psi4
#
memory 32 gb

molecule  {
0 1
  O        2.3111590    -1.3984000     0.0000580
  O       -2.2718830    -1.4902890    -0.0001310
  N        1.1826080     0.6255060     0.0000550
  N        0.0153410    -1.3761840    -0.0000340
  C       -1.2346770     0.6647280    -0.0000250
  C       -0.0080064     1.3317311     0.0000372
  C        1.2605820    -0.7608720     0.0000310
  C       -1.2542960    -0.7955090    -0.0000670
  C        2.3967533     1.4371325     0.0001245
  C       -2.5504790     1.3758010    -0.0000570
  H        0.0516650     2.3739750     0.0000690
  H        0.0461780    -2.3935470    -0.0000610
  H        2.4800130     2.0209940     0.8935150
  H        2.4798690     2.0213500    -0.8930780
  H        3.2466700     0.6823050    -0.0000520
  H       -3.1375530     1.0948740    -0.8785960
  H       -2.4103180     2.4605130    -0.0000230
  H       -3.1376190     1.0948280     0.8784230
units angstrom
no_reorient  #important for SAPT in psi4, default
symmetry c1  #important for SAPT in psi4, default
}

set PROPERTIES_ORIGIN ["COM"]
properties('MP2/aug-cc-pvtz', properties = ['dipole'])
--------------------------------------------------------------------------

    Molecular point group: c1
  Charge       = 0
  Multiplicity = 1
  Basis Set: AUG-CC-PVTZ
    Blend: AUG-CC-PVTZ
  Basis Set: (AUG-CC-PVTZ AUX)
    Blend: AUG-CC-PVTZ-JKFIT

    Orbital Energies [Eh]
    ---------------------

    Doubly Occupied:

       1A    -20.541449     2A    -20.537867     3A    -15.639655
       4A    -15.625220     5A    -11.416014     6A    -11.376090
       7A    -11.327472     8A    -11.285306     9A    -11.263465
      10A    -11.235836    11A     -1.424178    12A     -1.386601
      13A     -1.307260    14A     -1.243640    15A     -1.101231
      16A     -0.991942    17A     -0.966858    18A     -0.916867
      19A     -0.849799    20A     -0.768472    21A     -0.736042
      22A     -0.701974    23A     -0.685616    24A     -0.650212
      25A     -0.639081    26A     -0.621437    27A     -0.610936
      28A     -0.583867    29A     -0.580306    30A     -0.551014
      31A     -0.544457    32A     -0.539762    33A     -0.488565
      34A     -0.476674    35A     -0.444247    36A     -0.430721
      37A     -0.339874

  @DF-RHF Final Energy:  -490.70259241852955

   => Energetics <=

    Nuclear Repulsion Energy =            529.5417996621571319
    One-Electron Energy =               -1718.8287695970091136
    Two-Electron Energy =                 698.5843775163225473
    Total Energy =                       -490.7025924185295480
  Basis Set: (AUG-CC-PVTZ AUX)
    Blend: AUG-CC-PVTZ-RI
    Molecular point group: c1

    Geometry (in Angstrom), charge = 0, multiplicity = 1:

       Center              X                  Y                   Z               Mass
    ------------   -----------------  -----------------  -----------------  -----------------
         O            2.308748362305    -1.339485387339     0.000059075426    15.994914619570
         O           -2.274293637695    -1.431374387339    -0.000129924574    15.994914619570
         N            1.180197362305     0.684420612661     0.000056075426    14.003074004430
         N            0.012930362305    -1.317269387339    -0.000032924574    14.003074004430
         C           -1.237087637695     0.723642612661    -0.000023924574    12.000000000000
         C           -0.010417037695     1.390645712661     0.000038275426    12.000000000000
         C            1.258171362305    -0.701957387339     0.000032075426    12.000000000000
         C           -1.256706637695    -0.736594387339    -0.000065924574    12.000000000000
         C            2.394342662305     1.496047112661     0.000125575426    12.000000000000
         C           -2.552889637695     1.434715612661    -0.000055924574    12.000000000000
         H            0.049254362305     2.432889612661     0.000070075426     1.007825032230
         H            0.043767362305    -2.334632387339    -0.000059924574     1.007825032230
         H            2.477602362305     2.079908612661     0.893516075426     1.007825032230
         H            2.477458362305     2.080264612661    -0.893076924574     1.007825032230
         H            3.244259362305     0.741219612661    -0.000050924574     1.007825032230
         H           -3.139963637695     1.153788612661    -0.878594924574     1.007825032230
         H           -2.412728637695     2.519427612661    -0.000021924574     1.007825032230
         H           -3.140029637695     1.153742612661     0.878424075426     1.007825032230

  Basis Set: AUG-CC-PVTZ
    Blend: AUG-CC-PVTZ
  Basis Set: (AUG-CC-PVTZ AUX)
    Blend: AUG-CC-PVTZ-JKFIT
	 Reference Energy          =    -490.7025924185295480 [Eh]
	 Singles Energy            =      -0.0000000000000000 [Eh]
	 Same-Spin Energy          =      -0.5032356467184449 [Eh]
	 Opposite-Spin Energy      =      -1.5432068494301463 [Eh]
	 Correlation Energy        =      -2.0464424961485914 [Eh]
	 Total Energy              =    -492.7490349146781341 [Eh]

	 ================> DF-SCS-MP2 Energies <==================
	-----------------------------------------------------------
	 SCS Same-Spin Scale       =       0.3333333333333333 [-]
	 SCS Opposite-Spin Scale   =       1.2000000000000000 [-]
	 SCS Same-Spin Energy      =      -0.1677452155728150 [Eh]
	 SCS Opposite-Spin Energy  =      -1.8518482193161754 [Eh]
	 SCS Correlation Energy    =      -2.0195934348889901 [Eh]
	 SCS Total Energy          =    -492.7221858534185230 [Eh]
	-----------------------------------------------------------

  Dipole Moment: [D]
     X:     1.0738      Y:     4.5521      Z:     0.0002     Total:     4.6770

*** Psi4 exiting successfully. Buy a developer a beer!
