                               Psi4 1.3.2 release

  ==> Input File <==

--------------------------------------------------------------------------
#psi4
#
memory 32 gb

molecule  {
0 1
  O        2.3111590    -1.3984000     0.0000580
  O       -2.2718830    -1.4902890    -0.0001310
  N        1.1826080     0.6255060     0.0000550
  N        0.0153410    -1.3761840    -0.0000340
  C       -1.2346770     0.6647280    -0.0000250
  C        0.0568060     1.3358606     0.0000394
  C        1.2605820    -0.7608720     0.0000310
  C       -1.2542960    -0.7955090    -0.0000670
  C        2.4243390     1.3942650     0.0001240
  C       -2.5504790     1.3758010    -0.0000570
  H        0.0516650     2.3739750     0.0000690
  H        0.0461780    -2.3935470    -0.0000610
  H        2.4800130     2.0209940     0.8935150
  H        2.4798690     2.0213500    -0.8930780
  H        3.2466700     0.6823050    -0.0000520
  H       -3.1375530     1.0948740    -0.8785960
  H       -2.4103180     2.4605130    -0.0000230
  H       -3.1376190     1.0948280     0.8784230
units angstrom
no_reorient  #important for SAPT in psi4, default
symmetry c1  #important for SAPT in psi4, default
}

set PROPERTIES_ORIGIN ["COM"]
properties('MP2/aug-cc-pvtz', properties = ['dipole'])
--------------------------------------------------------------------------

    Molecular point group: c1
  Charge       = 0
  Multiplicity = 1
  Basis Set: AUG-CC-PVTZ
    Blend: AUG-CC-PVTZ
  Basis Set: (AUG-CC-PVTZ AUX)
    Blend: AUG-CC-PVTZ-JKFIT

    Orbital Energies [Eh]
    ---------------------

    Doubly Occupied:

       1A    -20.545556     2A    -20.531891     3A    -15.647278
       4A    -15.625461     5A    -11.419795     6A    -11.371083
       7A    -11.333871     8A    -11.289627     9A    -11.263259
      10A    -11.233479    11A     -1.429345    12A     -1.382991
      13A     -1.322898    14A     -1.246400    15A     -1.089964
      16A     -0.998036    17A     -0.971686    18A     -0.917155
      19A     -0.850000    20A     -0.774060    21A     -0.735189
      22A     -0.705605    23A     -0.689335    24A     -0.652913
      25A     -0.639345    26A     -0.616391    27A     -0.606416
      28A     -0.591165    29A     -0.580972    30A     -0.554181
      31A     -0.542238    32A     -0.539321    33A     -0.494448
      34A     -0.479243    35A     -0.440324    36A     -0.430118
      37A     -0.326686

  @DF-RHF Final Energy:  -490.69350173401597

   => Energetics <=

    Nuclear Repulsion Energy =            529.7231334172394099
    One-Electron Energy =               -1719.0978168595911484
    Two-Electron Energy =                 698.6811817083358847
    Total Energy =                       -490.6935017340159675
  Basis Set: (AUG-CC-PVTZ AUX)
    Blend: AUG-CC-PVTZ-RI
    Molecular point group: c1

    Geometry (in Angstrom), charge = 0, multiplicity = 1:

       Center              X                  Y                   Z               Mass
    ------------   -----------------  -----------------  -----------------  -----------------
         O            2.300831837521    -1.336166376049     0.000058929773    15.994914619570
         O           -2.282210162479    -1.428055376049    -0.000130070227    15.994914619570
         N            1.172280837521     0.687739623951     0.000055929773    14.003074004430
         N            0.005013837521    -1.313950376049    -0.000033070227    14.003074004430
         C           -1.245004162479     0.726961623951    -0.000024070227    12.000000000000
         C            0.046478837521     1.398094223951     0.000040329773    12.000000000000
         C            1.250254837521    -0.698638376049     0.000031929773    12.000000000000
         C           -1.264623162479    -0.733275376049    -0.000066070227    12.000000000000
         C            2.414011837521     1.456498623951     0.000124929773    12.000000000000
         C           -2.560806162479     1.438034623951    -0.000056070227    12.000000000000
         H            0.041337837521     2.436208623951     0.000069929773     1.007825032230
         H            0.035850837521    -2.331313376049    -0.000060070227     1.007825032230
         H            2.469685837521     2.083227623951     0.893515929773     1.007825032230
         H            2.469541837521     2.083583623951    -0.893077070227     1.007825032230
         H            3.236342837521     0.744538623951    -0.000051070227     1.007825032230
         H           -3.147880162479     1.157107623951    -0.878595070227     1.007825032230
         H           -2.420645162479     2.522746623951    -0.000022070227     1.007825032230
         H           -3.147946162479     1.157061623951     0.878423929773     1.007825032230

  Basis Set: AUG-CC-PVTZ
    Blend: AUG-CC-PVTZ
  Basis Set: (AUG-CC-PVTZ AUX)
    Blend: AUG-CC-PVTZ-JKFIT
	 Reference Energy          =    -490.6935017340159675 [Eh]
	 Singles Energy            =      -0.0000000000000000 [Eh]
	 Same-Spin Energy          =      -0.5045128462732816 [Eh]
	 Opposite-Spin Energy      =      -1.5445244745666808 [Eh]
	 Correlation Energy        =      -2.0490373208399624 [Eh]
	 Total Energy              =    -492.7425390548559108 [Eh]

	 ================> DF-SCS-MP2 Energies <==================
	-----------------------------------------------------------
	 SCS Same-Spin Scale       =       0.3333333333333333 [-]
	 SCS Opposite-Spin Scale   =       1.2000000000000000 [-]
	 SCS Same-Spin Energy      =      -0.1681709487577605 [Eh]
	 SCS Opposite-Spin Energy  =      -1.8534293694800170 [Eh]
	 SCS Correlation Energy    =      -2.0216003182377777 [Eh]
	 SCS Total Energy          =    -492.7151020522537692 [Eh]
	-----------------------------------------------------------

  Dipole Moment: [D]
     X:     1.3820      Y:     4.5670      Z:     0.0002     Total:     4.7715

*** Psi4 exiting successfully. Buy a developer a beer!
