                               Psi4 1.4a3.dev225

  ==> Input File <==

--------------------------------------------------------------------------
#psi4
#
memory 32 gb

molecule  {
0 1
  O        2.3212770    -1.3580180     0.0000020
  O       -2.2717460    -1.4962290     0.0000010
  N        1.1724310     0.6334210    -0.0000020
  N        0.0162060    -1.3769820    -0.0000020
  C       -1.2398930     0.6613320     0.0000000
  C       -0.0398910     1.2934770    -0.0000010
  C        1.2527440    -0.7526170    -0.0000010
  C       -1.2589250    -0.7964470     0.0000000
  C        2.4273801     1.3421352     0.0000010
  C       -2.5550880     1.3760200     0.0000010
  H        0.0310140     2.3780990    -0.0000010
  H        0.0457120    -2.3937650    -0.0000010
  H        2.2343430     2.4214070    -0.0000200
  H        3.0241620     1.0875710    -0.8862110
  H        3.0241420     1.0876020     0.8862360
  H       -3.1432670     1.0977880    -0.8790540
  H       -2.4120010     2.4600010     0.0000010
  H       -3.1432670     1.0977870     0.8790540
units angstrom
no_reorient  #important for SAPT in psi4, default
symmetry c1  #important for SAPT in psi4, default
}

set PROPERTIES_ORIGIN ["COM"]
properties('MP2/aug-cc-pvtz', properties = ['dipole'])
--------------------------------------------------------------------------

    Molecular point group: c1
  Charge       = 0
  Multiplicity = 1
  Basis Set: AUG-CC-PVTZ
    Blend: AUG-CC-PVTZ
  Basis Set: (AUG-CC-PVTZ AUX)
    Blend: AUG-CC-PVTZ-JKFIT

    Orbital Energies [Eh]
    ---------------------

    Doubly Occupied:

       1A    -20.541827     2A    -20.538602     3A    -15.639220
       4A    -15.625380     5A    -11.412165     6A    -11.376452
       7A    -11.326929     8A    -11.288166     9A    -11.257874
      10A    -11.236884    11A     -1.426048    12A     -1.387863
      13A     -1.309288    14A     -1.245198    15A     -1.109852
      16A     -0.993592    17A     -0.963022    18A     -0.915624
      19A     -0.852894    20A     -0.772038    21A     -0.736898
      22A     -0.694509    23A     -0.684195    24A     -0.653560
      25A     -0.637262    26A     -0.611721    27A     -0.610621
      28A     -0.587457    29A     -0.581253    30A     -0.557437
      31A     -0.548449    32A     -0.539578    33A     -0.491009
      34A     -0.476231    35A     -0.444783    36A     -0.430683
      37A     -0.344327

  @DF-RHF Final Energy:  -490.71203503911454

   => Energetics <=

    Nuclear Repulsion Energy =            531.1757042246221090
    One-Electron Energy =               -1722.0776921968911211
    Two-Electron Energy =                 700.1899529331545864
    Total Energy =                       -490.7120350391145394
  Basis Set: (AUG-CC-PVTZ AUX)
    Blend: AUG-CC-PVTZ-RI
    Molecular point group: c1

    Geometry (in Angstrom), charge = 0, multiplicity = 1:

       Center              X                  Y                   Z               Mass
    ------------   -----------------  -----------------  -----------------  -----------------
         O            2.320342210856    -1.291831346450     0.000002028533    15.994914619570
         O           -2.272680789144    -1.430042346450     0.000001028533    15.994914619570
         N            1.171496210856     0.699607653550    -0.000001971467    14.003074004430
         N            0.015271210856    -1.310795346450    -0.000001971467    14.003074004430
         C           -1.240827789144     0.727518653550     0.000000028533    12.000000000000
         C           -0.040825789144     1.359663653550    -0.000000971467    12.000000000000
         C            1.251809210856    -0.686430346450    -0.000000971467    12.000000000000
         C           -1.259859789144    -0.730260346450     0.000000028533    12.000000000000
         C            2.426445310856     1.408321853550     0.000001028533    12.000000000000
         C           -2.556022789144     1.442206653550     0.000001028533    12.000000000000
         H            0.030079210856     2.444285653550    -0.000000971467     1.007825032230
         H            0.044777210856    -2.327578346450    -0.000000971467     1.007825032230
         H            2.233408210856     2.487593653550    -0.000019971467     1.007825032230
         H            3.023227210856     1.153757653550    -0.886210971467     1.007825032230
         H            3.023207210856     1.153788653550     0.886236028533     1.007825032230
         H           -3.144201789144     1.163974653550    -0.879053971467     1.007825032230
         H           -2.412935789144     2.526187653550     0.000001028533     1.007825032230
         H           -3.144201789144     1.163973653550     0.879054028533     1.007825032230

  Basis Set: AUG-CC-PVTZ
    Blend: AUG-CC-PVTZ
  Basis Set: (AUG-CC-PVTZ AUX)
    Blend: AUG-CC-PVTZ-JKFIT
	 Reference Energy          =    -490.7120350391145394 [Eh]
	 Singles Energy            =      -0.0000000000000000 [Eh]
	 Same-Spin Energy          =      -0.5025140326974620 [Eh]
	 Opposite-Spin Energy      =      -1.5413922699631304 [Eh]
	 Correlation Energy        =      -2.0439063026605924 [Eh]
	 Total Energy              =    -492.7559413417751557 [Eh]

	 ================> DF-SCS-MP2 Energies <==================
	-----------------------------------------------------------
	 SCS Same-Spin Scale       =       0.3333333333333333 [-]
	 SCS Opposite-Spin Scale   =       1.2000000000000000 [-]
	 SCS Same-Spin Energy      =      -0.1675046775658207 [Eh]
	 SCS Opposite-Spin Energy  =      -1.8496707239557564 [Eh]
	 SCS Correlation Energy    =      -2.0171754015215768 [Eh]
	 SCS Total Energy          =    -492.7292104406361091 [Eh]
	-----------------------------------------------------------

  Dipole Moment: [D]
     X:     1.0367      Y:     4.4755      Z:    -0.0000     Total:     4.5940

*** Psi4 exiting successfully. Buy a developer a beer!
