                               Psi4 1.3.2 release

  ==> Input File <==

--------------------------------------------------------------------------
#psi4
#
memory 32 gb

molecule  {
0 1
  O        2.3111590    -1.3984000     0.0000580
  O       -2.2718830    -1.4902890    -0.0001310
  N        1.1826080     0.6255060     0.0000550
  N        0.0153410    -1.3761840    -0.0000340
  C       -1.2346770     0.6647280    -0.0000250
  C       -0.0650273     1.2252748     0.0000329
  C        1.1879177    -0.7630529     0.0000290
  C       -1.2542960    -0.7955090    -0.0000670
  C        2.4243390     1.3942650     0.0001240
  C       -2.5504790     1.3758010    -0.0000570
  H        0.0516650     2.3739750     0.0000690
  H        0.0461780    -2.3935470    -0.0000610
  H        2.4800130     2.0209940     0.8935150
  H        2.4798690     2.0213500    -0.8930780
  H        3.2466700     0.6823050    -0.0000520
  H       -3.1375530     1.0948740    -0.8785960
  H       -2.4103180     2.4605130    -0.0000230
  H       -3.1376190     1.0948280     0.8784230
units angstrom
no_reorient  #important for SAPT in psi4, default
symmetry c1  #important for SAPT in psi4, default
}

set PROPERTIES_ORIGIN ["COM"]
properties('MP2/aug-cc-pvtz', properties = ['dipole'])
--------------------------------------------------------------------------

    Molecular point group: c1
  Charge       = 0
  Multiplicity = 1
  Basis Set: AUG-CC-PVTZ
    Blend: AUG-CC-PVTZ
  Basis Set: (AUG-CC-PVTZ AUX)
    Blend: AUG-CC-PVTZ-JKFIT

    Orbital Energies [Eh]
    ---------------------

    Doubly Occupied:

       1A    -20.546941     2A    -20.523101     3A    -15.639568
       4A    -15.635887     5A    -11.409775     6A    -11.383204
       7A    -11.322694     8A    -11.287125     9A    -11.256293
      10A    -11.241397    11A     -1.419299    12A     -1.380671
      13A     -1.290126    14A     -1.260959    15A     -1.123480
      16A     -0.997701    17A     -0.965549    18A     -0.915983
      19A     -0.870864    20A     -0.779005    21A     -0.746066
      22A     -0.685404    23A     -0.678124    24A     -0.657293
      25A     -0.621400    26A     -0.615408    27A     -0.604853
      28A     -0.591255    29A     -0.586732    30A     -0.554553
      31A     -0.552476    32A     -0.539001    33A     -0.489726
      34A     -0.460669    35A     -0.444217    36A     -0.429689
      37A     -0.356039

  @DF-RHF Final Energy:  -490.69547936725598

   => Energetics <=

    Nuclear Repulsion Energy =            531.9858929010875954
    One-Electron Energy =               -1723.6376927745450303
    Two-Electron Energy =                 700.9563205062015641
    Total Energy =                       -490.6954793672559845
  Basis Set: (AUG-CC-PVTZ AUX)
    Blend: AUG-CC-PVTZ-RI
    Molecular point group: c1

    Geometry (in Angstrom), charge = 0, multiplicity = 1:

       Center              X                  Y                   Z               Mass
    ------------   -----------------  -----------------  -----------------  -----------------
         O            2.317496087877    -1.326504701455     0.000059658040    15.994914619570
         O           -2.265545912123    -1.418393701455    -0.000129341960    15.994914619570
         N            1.188945087877     0.697401298545     0.000056658040    14.003074004430
         N            0.021678087877    -1.304288701455    -0.000032341960    14.003074004430
         C           -1.228339912123     0.736623298545    -0.000023341960    12.000000000000
         C           -0.058690212123     1.297170098545     0.000034558040    12.000000000000
         C            1.194254787877    -0.691157601455     0.000030658040    12.000000000000
         C           -1.247958912123    -0.723613701455    -0.000065341960    12.000000000000
         C            2.430676087877     1.466160298545     0.000125658040    12.000000000000
         C           -2.544141912123     1.447696298545    -0.000055341960    12.000000000000
         H            0.058002087877     2.445870298545     0.000070658040     1.007825032230
         H            0.052515087877    -2.321651701455    -0.000059341960     1.007825032230
         H            2.486350087877     2.092889298545     0.893516658040     1.007825032230
         H            2.486206087877     2.093245298545    -0.893076341960     1.007825032230
         H            3.253007087877     0.754200298545    -0.000050341960     1.007825032230
         H           -3.131215912123     1.166769298545    -0.878594341960     1.007825032230
         H           -2.403980912123     2.532408298545    -0.000021341960     1.007825032230
         H           -3.131281912123     1.166723298545     0.878424658040     1.007825032230

  Basis Set: AUG-CC-PVTZ
    Blend: AUG-CC-PVTZ
  Basis Set: (AUG-CC-PVTZ AUX)
    Blend: AUG-CC-PVTZ-JKFIT
	 Reference Energy          =    -490.6954793672559845 [Eh]
	 Singles Energy            =      -0.0000000000000000 [Eh]
	 Same-Spin Energy          =      -0.5028073574475972 [Eh]
	 Opposite-Spin Energy      =      -1.5419873975371028 [Eh]
	 Correlation Energy        =      -2.0447947549847001 [Eh]
	 Total Energy              =    -492.7402741222406917 [Eh]

	 ================> DF-SCS-MP2 Energies <==================
	-----------------------------------------------------------
	 SCS Same-Spin Scale       =       0.3333333333333333 [-]
	 SCS Opposite-Spin Scale   =       1.2000000000000000 [-]
	 SCS Same-Spin Energy      =      -0.1676024524825324 [Eh]
	 SCS Opposite-Spin Energy  =      -1.8503848770445233 [Eh]
	 SCS Correlation Energy    =      -2.0179873295270556 [Eh]
	 SCS Total Energy          =    -492.7134666967830299 [Eh]
	-----------------------------------------------------------

  Dipole Moment: [D]
     X:     0.3766      Y:     4.5675      Z:     0.0001     Total:     4.5830

*** Psi4 exiting successfully. Buy a developer a beer!
