                               Psi4 1.3.2 release

  ==> Input File <==

--------------------------------------------------------------------------
#psi4
#
memory 32 gb

molecule  {
0 1
  O        2.3111590    -1.3984000     0.0000580
  O       -2.2718830    -1.4902890    -0.0001310
  N        1.1826080     0.6255060     0.0000550
  N        0.0153410    -1.3761840    -0.0000340
  C       -1.2346770     0.6647280    -0.0000250
  C       -0.0319280     1.2897490     0.0000350
  C        1.2605820    -0.7608720     0.0000310
  C       -1.2542960    -0.7955090    -0.0000670
  C        2.2542902     1.2889873     0.0001146
  C       -2.5504790     1.3758010    -0.0000570
  H        0.0516650     2.3739750     0.0000690
  H        0.0461780    -2.3935470    -0.0000610
  H        2.4800130     2.0209940     0.8935150
  H        2.4798690     2.0213500    -0.8930780
  H        3.2466700     0.6823050    -0.0000520
  H       -3.1375530     1.0948740    -0.8785960
  H       -2.4103180     2.4605130    -0.0000230
  H       -3.1376190     1.0948280     0.8784230
units angstrom
no_reorient  #important for SAPT in psi4, default
symmetry c1  #important for SAPT in psi4, default
}

set PROPERTIES_ORIGIN ["COM"]
properties('MP2/aug-cc-pvtz', properties = ['dipole'])
--------------------------------------------------------------------------

    Molecular point group: c1
  Charge       = 0
  Multiplicity = 1
  Basis Set: AUG-CC-PVTZ
    Blend: AUG-CC-PVTZ
  Basis Set: (AUG-CC-PVTZ AUX)
    Blend: AUG-CC-PVTZ-JKFIT

    Orbital Energies [Eh]
    ---------------------

    Doubly Occupied:

       1A    -20.547644     2A    -20.545495     3A    -15.640675
       4A    -15.630476     5A    -11.420393     6A    -11.382633
       7A    -11.329056     8A    -11.285186     9A    -11.268324
      10A    -11.241932    11A     -1.439412    12A     -1.394319
      13A     -1.344341    14A     -1.258816    15A     -1.121862
      16A     -0.998941    17A     -0.972077    18A     -0.923618
      19A     -0.848729    20A     -0.784327    21A     -0.752744
      22A     -0.701528    23A     -0.699084    24A     -0.680051
      25A     -0.643917    26A     -0.621689    27A     -0.612747
      28A     -0.585367    29A     -0.579609    30A     -0.554612
      31A     -0.540472    32A     -0.517710    33A     -0.482064
      34A     -0.464358    35A     -0.450712    36A     -0.434699
      37A     -0.348674

  @DF-RHF Final Energy:  -490.66193016262031

   => Energetics <=

    Nuclear Repulsion Energy =            534.9852727353295450
    One-Electron Energy =               -1729.1978174113210116
    Two-Electron Energy =                 703.5506145133712153
    Total Energy =                       -490.6619301626202514
  Basis Set: (AUG-CC-PVTZ AUX)
    Blend: AUG-CC-PVTZ-RI
    Molecular point group: c1

    Geometry (in Angstrom), charge = 0, multiplicity = 1:

       Center              X                  Y                   Z               Mass
    ------------   -----------------  -----------------  -----------------  -----------------
         O            2.323003943331    -1.323195577457     0.000060112135    15.994914619570
         O           -2.260038056669    -1.415084577457    -0.000128887865    15.994914619570
         N            1.194452943331     0.700710422543     0.000057112135    14.003074004430
         N            0.027185943331    -1.300979577457    -0.000031887865    14.003074004430
         C           -1.222832056669     0.739932422543    -0.000022887865    12.000000000000
         C           -0.020083056669     1.364953422543     0.000037112135    12.000000000000
         C            1.272426943331    -0.685667577457     0.000033112135    12.000000000000
         C           -1.242451056669    -0.720304577457    -0.000064887865    12.000000000000
         C            2.266135143331     1.364191722543     0.000116712135    12.000000000000
         C           -2.538634056669     1.451005422543    -0.000054887865    12.000000000000
         H            0.063509943331     2.449179422543     0.000071112135     1.007825032230
         H            0.058022943331    -2.318342577457    -0.000058887865     1.007825032230
         H            2.491857943331     2.096198422543     0.893517112135     1.007825032230
         H            2.491713943331     2.096554422543    -0.893075887865     1.007825032230
         H            3.258514943331     0.757509422543    -0.000049887865     1.007825032230
         H           -3.125708056669     1.170078422543    -0.878593887865     1.007825032230
         H           -2.398473056669     2.535717422543    -0.000020887865     1.007825032230
         H           -3.125774056669     1.170032422543     0.878425112135     1.007825032230

  Basis Set: AUG-CC-PVTZ
    Blend: AUG-CC-PVTZ
  Basis Set: (AUG-CC-PVTZ AUX)
    Blend: AUG-CC-PVTZ-JKFIT
	 Reference Energy          =    -490.6619301626203082 [Eh]
	 Singles Energy            =      -0.0000000000000000 [Eh]
	 Same-Spin Energy          =      -0.5052042963046766 [Eh]
	 Opposite-Spin Energy      =      -1.5448817830966659 [Eh]
	 Correlation Energy        =      -2.0500860794013427 [Eh]
	 Total Energy              =    -492.7120162420216616 [Eh]

	 ================> DF-SCS-MP2 Energies <==================
	-----------------------------------------------------------
	 SCS Same-Spin Scale       =       0.3333333333333333 [-]
	 SCS Opposite-Spin Scale   =       1.2000000000000000 [-]
	 SCS Same-Spin Energy      =      -0.1684014321015588 [Eh]
	 SCS Opposite-Spin Energy  =      -1.8538581397159990 [Eh]
	 SCS Correlation Energy    =      -2.0222595718175578 [Eh]
	 SCS Total Energy          =    -492.6841897344378935 [Eh]
	-----------------------------------------------------------

  Dipole Moment: [D]
     X:     0.3872      Y:     3.9732      Z:     0.0001     Total:     3.9920

*** Psi4 exiting successfully. Buy a developer a beer!
