                               Psi4 1.3.2 release

  ==> Input File <==

--------------------------------------------------------------------------
#psi4
#
memory 32 gb

molecule  {
0 1
  O        2.3111590    -1.3984000     0.0000580
  O       -2.2718830    -1.4902890    -0.0001310
  N        1.1826080     0.6255060     0.0000550
  N        0.0153410    -1.3761840    -0.0000340
  C       -1.2346770     0.6647280    -0.0000250
  C       -0.0319280     1.2897490     0.0000350
  C        1.3330326    -0.7548912     0.0000343
  C       -1.2542960    -0.7955090    -0.0000670
  C        2.4628710     1.3282243     0.0001244
  C       -2.5504790     1.3758010    -0.0000570
  H        0.0516650     2.3739750     0.0000690
  H        0.0461780    -2.3935470    -0.0000610
  H        2.4800130     2.0209940     0.8935150
  H        2.4798690     2.0213500    -0.8930780
  H        3.2466700     0.6823050    -0.0000520
  H       -3.1375530     1.0948740    -0.8785960
  H       -2.4103180     2.4605130    -0.0000230
  H       -3.1376190     1.0948280     0.8784230
units angstrom
no_reorient  #important for SAPT in psi4, default
symmetry c1  #important for SAPT in psi4, default
}

set PROPERTIES_ORIGIN ["COM"]
properties('MP2/aug-cc-pvtz', properties = ['dipole'])
--------------------------------------------------------------------------

    Molecular point group: c1
  Charge       = 0
  Multiplicity = 1
  Basis Set: AUG-CC-PVTZ
    Blend: AUG-CC-PVTZ
  Basis Set: (AUG-CC-PVTZ AUX)
    Blend: AUG-CC-PVTZ-JKFIT

    Orbital Energies [Eh]
    ---------------------

    Doubly Occupied:

       1A    -20.556893     2A    -20.531450     3A    -15.636492
       4A    -15.611422     5A    -11.414183     6A    -11.369279
       7A    -11.324288     8A    -11.287877     9A    -11.258109
      10A    -11.235221    11A     -1.456799    12A     -1.384186
      13A     -1.313656    14A     -1.222858    15A     -1.107830
      16A     -0.993007    17A     -0.960648    18A     -0.908024
      19A     -0.841567    20A     -0.768559    21A     -0.724431
      22A     -0.699684    23A     -0.680023    24A     -0.656510
      25A     -0.646213    26A     -0.617204    27A     -0.602991
      28A     -0.591301    29A     -0.585870    30A     -0.560014
      31A     -0.546604    32A     -0.546510    33A     -0.486622
      34A     -0.486505    35A     -0.438654    36A     -0.424505
      37A     -0.344377

  @DF-RHF Final Energy:  -490.69842983562717

   => Energetics <=

    Nuclear Repulsion Energy =            530.3018261358149630
    One-Electron Energy =               -1720.3597802733165736
    Two-Electron Energy =                 699.3595243018744441
    Total Energy =                       -490.6984298356271665
  Basis Set: (AUG-CC-PVTZ AUX)
    Blend: AUG-CC-PVTZ-RI
    Molecular point group: c1

    Geometry (in Angstrom), charge = 0, multiplicity = 1:

       Center              X                  Y                   Z               Mass
    ------------   -----------------  -----------------  -----------------  -----------------
         O            2.298925612249    -1.327069767882     0.000058989748    15.994914619570
         O           -2.284116387751    -1.418958767882    -0.000130010252    15.994914619570
         N            1.170374612249     0.696836232118     0.000055989748    14.003074004430
         N            0.003107612249    -1.304853767882    -0.000033010252    14.003074004430
         C           -1.246910387751     0.736058232118    -0.000024010252    12.000000000000
         C           -0.044161387751     1.361079232118     0.000035989748    12.000000000000
         C            1.320799212249    -0.683560967882     0.000035289748    12.000000000000
         C           -1.266529387751    -0.724178767882    -0.000066010252    12.000000000000
         C            2.450637612249     1.399554532118     0.000125389748    12.000000000000
         C           -2.562712387751     1.447131232118    -0.000056010252    12.000000000000
         H            0.039431612249     2.445305232118     0.000069989748     1.007825032230
         H            0.033944612249    -2.322216767882    -0.000060010252     1.007825032230
         H            2.467779612249     2.092324232118     0.893515989748     1.007825032230
         H            2.467635612249     2.092680232118    -0.893077010252     1.007825032230
         H            3.234436612249     0.753635232118    -0.000051010252     1.007825032230
         H           -3.149786387751     1.166204232118    -0.878595010252     1.007825032230
         H           -2.422551387751     2.531843232118    -0.000022010252     1.007825032230
         H           -3.149852387751     1.166158232118     0.878423989748     1.007825032230

  Basis Set: AUG-CC-PVTZ
    Blend: AUG-CC-PVTZ
  Basis Set: (AUG-CC-PVTZ AUX)
    Blend: AUG-CC-PVTZ-JKFIT
	 Reference Energy          =    -490.6984298356271665 [Eh]
	 Singles Energy            =      -0.0000000000000000 [Eh]
	 Same-Spin Energy          =      -0.5016558083124034 [Eh]
	 Opposite-Spin Energy      =      -1.5406393488651697 [Eh]
	 Correlation Energy        =      -2.0422951571775734 [Eh]
	 Total Energy              =    -492.7407249928047577 [Eh]

	 ================> DF-SCS-MP2 Energies <==================
	-----------------------------------------------------------
	 SCS Same-Spin Scale       =       0.3333333333333333 [-]
	 SCS Opposite-Spin Scale   =       1.2000000000000000 [-]
	 SCS Same-Spin Energy      =      -0.1672186027708011 [Eh]
	 SCS Opposite-Spin Energy  =      -1.8487672186382036 [Eh]
	 SCS Correlation Energy    =      -2.0159858214090045 [Eh]
	 SCS Total Energy          =    -492.7144156570361702 [Eh]
	-----------------------------------------------------------

  Dipole Moment: [D]
     X:     1.6649      Y:     4.4007      Z:     0.0002     Total:     4.7051

*** Psi4 exiting successfully. Buy a developer a beer!
