                               Psi4 1.3.2 release

  ==> Input File <==

--------------------------------------------------------------------------
#psi4
#
memory 32 gb

molecule  {
0 1
  O        2.3111590    -1.3984000     0.0000580
  O       -2.2718830    -1.4902890    -0.0001310
  N        1.1826080     0.6255060     0.0000550
  N        0.0153410    -1.3761840    -0.0000340
  C       -1.2346770     0.6647280    -0.0000250
  C       -0.0319280     1.2897490     0.0000350
  C        1.2605820    -0.7608720     0.0000310
  C       -1.0724157    -0.8786929    -0.0000623
  C        2.4243390     1.3942650     0.0001240
  C       -2.5504790     1.3758010    -0.0000570
  H        0.0516650     2.3739750     0.0000690
  H        0.0461780    -2.3935470    -0.0000610
  H        2.4800130     2.0209940     0.8935150
  H        2.4798690     2.0213500    -0.8930780
  H        3.2466700     0.6823050    -0.0000520
  H       -3.1375530     1.0948740    -0.8785960
  H       -2.4103180     2.4605130    -0.0000230
  H       -3.1376190     1.0948280     0.8784230
units angstrom
no_reorient  #important for SAPT in psi4, default
symmetry c1  #important for SAPT in psi4, default
}

set PROPERTIES_ORIGIN ["COM"]
properties('MP2/aug-cc-pvtz', properties = ['dipole'])
--------------------------------------------------------------------------

    Molecular point group: c1
  Charge       = 0
  Multiplicity = 1
  Basis Set: AUG-CC-PVTZ
    Blend: AUG-CC-PVTZ
  Basis Set: (AUG-CC-PVTZ AUX)
    Blend: AUG-CC-PVTZ-JKFIT

    Orbital Energies [Eh]
    ---------------------

    Doubly Occupied:

       1A    -20.560856     2A    -20.506000     3A    -15.653791
       4A    -15.645621     5A    -11.433516     6A    -11.368328
       7A    -11.312624     8A    -11.291369     9A    -11.268206
      10A    -11.235413    11A     -1.453342    12A     -1.378386
      13A     -1.305773    14A     -1.257139    15A     -1.097623
      16A     -1.006792    17A     -0.974199    18A     -0.929512
      19A     -0.884240    20A     -0.783560    21A     -0.745097
      22A     -0.701975    23A     -0.693339    24A     -0.657507
      25A     -0.634703    26A     -0.628475    27A     -0.595374
      28A     -0.580215    29A     -0.579887    30A     -0.556896
      31A     -0.548875    32A     -0.527046    33A     -0.492886
      34A     -0.482072    35A     -0.416190    36A     -0.414460
      37A     -0.342296

  @DF-RHF Final Energy:  -490.64817644486226

   => Energetics <=

    Nuclear Repulsion Energy =            531.5248541249087566
    One-Electron Energy =               -1722.4588898138795230
    Two-Electron Energy =                 700.2858592441084511
    Total Energy =                       -490.6481764448622016
  Basis Set: (AUG-CC-PVTZ AUX)
    Blend: AUG-CC-PVTZ-RI
    Molecular point group: c1

    Geometry (in Angstrom), charge = 0, multiplicity = 1:

       Center              X                  Y                   Z               Mass
    ------------   -----------------  -----------------  -----------------  -----------------
         O            2.292851208131    -1.325088539707     0.000058904069    15.994914619570
         O           -2.290190791869    -1.416977539707    -0.000130095931    15.994914619570
         N            1.164300208131     0.698817460293     0.000055904069    14.003074004430
         N           -0.002966791869    -1.302872539707    -0.000033095931    14.003074004430
         C           -1.252984791869     0.738039460293    -0.000024095931    12.000000000000
         C           -0.050235791869     1.363060460293     0.000035904069    12.000000000000
         C            1.242274208131    -0.687560539707     0.000031904069    12.000000000000
         C           -1.090723491869    -0.805381439707    -0.000061395931    12.000000000000
         C            2.406031208131     1.467576460293     0.000124904069    12.000000000000
         C           -2.568786791869     1.449112460293    -0.000056095931    12.000000000000
         H            0.033357208131     2.447286460293     0.000069904069     1.007825032230
         H            0.027870208131    -2.320235539707    -0.000060095931     1.007825032230
         H            2.461705208131     2.094305460293     0.893515904069     1.007825032230
         H            2.461561208131     2.094661460293    -0.893077095931     1.007825032230
         H            3.228362208131     0.755616460293    -0.000051095931     1.007825032230
         H           -3.155860791869     1.168185460293    -0.878595095931     1.007825032230
         H           -2.428625791869     2.533824460293    -0.000022095931     1.007825032230
         H           -3.155926791869     1.168139460293     0.878423904069     1.007825032230

  Basis Set: AUG-CC-PVTZ
    Blend: AUG-CC-PVTZ
  Basis Set: (AUG-CC-PVTZ AUX)
    Blend: AUG-CC-PVTZ-JKFIT
	 Reference Energy          =    -490.6481764448622584 [Eh]
	 Singles Energy            =      -0.0000000000000000 [Eh]
	 Same-Spin Energy          =      -0.5043848364911461 [Eh]
	 Opposite-Spin Energy      =      -1.5454760995859615 [Eh]
	 Correlation Energy        =      -2.0498609360771076 [Eh]
	 Total Energy              =    -492.6980373809393541 [Eh]

	 ================> DF-SCS-MP2 Energies <==================
	-----------------------------------------------------------
	 SCS Same-Spin Scale       =       0.3333333333333333 [-]
	 SCS Opposite-Spin Scale   =       1.2000000000000000 [-]
	 SCS Same-Spin Energy      =      -0.1681282788303820 [Eh]
	 SCS Opposite-Spin Energy  =      -1.8545713195031537 [Eh]
	 SCS Correlation Energy    =      -2.0226995983335359 [Eh]
	 SCS Total Energy          =    -492.6708760431957899 [Eh]
	-----------------------------------------------------------

  Dipole Moment: [D]
     X:     2.3985      Y:     4.4001      Z:     0.0002     Total:     5.0114

*** Psi4 exiting successfully. Buy a developer a beer!
