                               Psi4 1.3.2 release

  ==> Input File <==

--------------------------------------------------------------------------
#psi4
#
memory 32 gb

molecule  {
0 1
  O        2.3111590    -1.3984000     0.0000580
  O       -2.2718830    -1.4902890    -0.0001310
  N        1.1826080     0.6255060     0.0000550
  N        0.0153410    -1.3761840    -0.0000340
  C       -1.2346770     0.6647280    -0.0000250
  C       -0.0201504     1.3108444     0.0000357
  C        1.2847658    -0.7593000     0.0000317
  C       -1.2542960    -0.7955090    -0.0000670
  C        2.4243390     1.3942650     0.0001240
  C       -2.5504790     1.3758010    -0.0000570
  H        0.0516650     2.3739750     0.0000690
  H        0.0461780    -2.3935470    -0.0000610
  H        2.4800130     2.0209940     0.8935150
  H        2.4798690     2.0213500    -0.8930780
  H        3.2466700     0.6823050    -0.0000520
  H       -3.1375530     1.0948740    -0.8785960
  H       -2.4103180     2.4605130    -0.0000230
  H       -3.1376190     1.0948280     0.8784230
units angstrom
no_reorient  #important for SAPT in psi4, default
symmetry c1  #important for SAPT in psi4, default
}

set PROPERTIES_ORIGIN ["COM"]
properties('MP2/aug-cc-pvtz', properties = ['dipole'])
--------------------------------------------------------------------------

    Molecular point group: c1
  Charge       = 0
  Multiplicity = 1
  Basis Set: AUG-CC-PVTZ
    Blend: AUG-CC-PVTZ
  Basis Set: (AUG-CC-PVTZ AUX)
    Blend: AUG-CC-PVTZ-JKFIT

    Orbital Energies [Eh]
    ---------------------

    Doubly Occupied:

       1A    -20.546329     2A    -20.535863     3A    -15.637988
       4A    -15.620660     5A    -11.414936     6A    -11.373890
       7A    -11.325815     8A    -11.285670     9A    -11.260982
      10A    -11.235792    11A     -1.432624    12A     -1.386761
      13A     -1.309884    14A     -1.236497    15A     -1.104566
      16A     -0.991779    17A     -0.964355    18A     -0.913198
      19A     -0.846888    20A     -0.768831    21A     -0.731204
      22A     -0.698097    23A     -0.682110    24A     -0.650296
      25A     -0.642931    26A     -0.613948    27A     -0.610263
      28A     -0.588074    29A     -0.584305    30A     -0.554525
      31A     -0.545836    32A     -0.544755    33A     -0.488356
      34A     -0.480552    35A     -0.442708    36A     -0.429225
      37A     -0.342352

  @DF-RHF Final Energy:  -490.70986573348961

   => Energetics <=

    Nuclear Repulsion Energy =            529.8947972819255483
    One-Electron Energy =               -1719.5636354738833234
    Two-Electron Energy =                 698.9589724584682244
    Total Energy =                       -490.7098657334895506
  Basis Set: (AUG-CC-PVTZ AUX)
    Blend: AUG-CC-PVTZ-RI
    Molecular point group: c1

    Geometry (in Angstrom), charge = 0, multiplicity = 1:

       Center              X                  Y                   Z               Mass
    ------------   -----------------  -----------------  -----------------  -----------------
         O            2.305353311402    -1.334157713638     0.000059186808    15.994914619570
         O           -2.277688688598    -1.426046713638    -0.000129813192    15.994914619570
         N            1.176802311402     0.689748286362     0.000056186808    14.003074004430
         N            0.009535311402    -1.311941713638    -0.000032813192    14.003074004430
         C           -1.240482688598     0.728970286362    -0.000023813192    12.000000000000
         C           -0.025956088598     1.375086686362     0.000036886808    12.000000000000
         C            1.278960111402    -0.695057713638     0.000032886808    12.000000000000
         C           -1.260101688598    -0.731266713638    -0.000065813192    12.000000000000
         C            2.418533311402     1.458507286362     0.000125186808    12.000000000000
         C           -2.556284688598     1.440043286362    -0.000055813192    12.000000000000
         H            0.045859311402     2.438217286362     0.000070186808     1.007825032230
         H            0.040372311402    -2.329304713638    -0.000059813192     1.007825032230
         H            2.474207311402     2.085236286362     0.893516186808     1.007825032230
         H            2.474063311402     2.085592286362    -0.893076813192     1.007825032230
         H            3.240864311402     0.746547286362    -0.000050813192     1.007825032230
         H           -3.143358688598     1.159116286362    -0.878594813192     1.007825032230
         H           -2.416123688598     2.524755286362    -0.000021813192     1.007825032230
         H           -3.143424688598     1.159070286362     0.878424186808     1.007825032230

  Basis Set: AUG-CC-PVTZ
    Blend: AUG-CC-PVTZ
  Basis Set: (AUG-CC-PVTZ AUX)
    Blend: AUG-CC-PVTZ-JKFIT
	 Reference Energy          =    -490.7098657334896075 [Eh]
	 Singles Energy            =      -0.0000000000000000 [Eh]
	 Same-Spin Energy          =      -0.5024064272596476 [Eh]
	 Opposite-Spin Energy      =      -1.5416800704231499 [Eh]
	 Correlation Energy        =      -2.0440864976827973 [Eh]
	 Total Energy              =    -492.7539522311723772 [Eh]

	 ================> DF-SCS-MP2 Energies <==================
	-----------------------------------------------------------
	 SCS Same-Spin Scale       =       0.3333333333333333 [-]
	 SCS Opposite-Spin Scale   =       1.2000000000000000 [-]
	 SCS Same-Spin Energy      =      -0.1674688090865492 [Eh]
	 SCS Opposite-Spin Energy  =      -1.8500160845077798 [Eh]
	 SCS Correlation Energy    =      -2.0174848935943288 [Eh]
	 SCS Total Energy          =    -492.7273506270839221 [Eh]
	-----------------------------------------------------------

  Dipole Moment: [D]
     X:     1.2702      Y:     4.5000      Z:     0.0002     Total:     4.6759

*** Psi4 exiting successfully. Buy a developer a beer!
