                               Psi4 1.3.2 release

  ==> Input File <==

--------------------------------------------------------------------------
#psi4
#
memory 32 gb

molecule  {
0 1
  O        2.3111590    -1.3984000     0.0000580
  O       -2.2718830    -1.4902890    -0.0001310
  N        1.1826080     0.6255060     0.0000550
  N        0.0153410    -1.3761840    -0.0000340
  C       -1.2346770     0.6647280    -0.0000250
  C       -0.0319280     1.2897490     0.0000350
  C        1.2605820    -0.7608720     0.0000310
  C       -1.2542960    -0.7955090    -0.0000670
  C        2.4243390     1.3942650     0.0001240
  C       -2.5504790     1.3758010    -0.0000570
  H        0.0516650     2.3739750     0.0000690
  H        0.0461780    -2.3935470    -0.0000610
  H        2.4800130     2.0209940     0.8935150
  H        2.4798690     2.0213500    -0.8930780
  H        3.2466700     0.6823050    -0.0000520
  H       -3.1379909     1.1040469    -0.8811848
  H       -2.4153214     2.4611178    -0.0081285
  H       -3.1376190     1.0948280     0.8784230
units angstrom
no_reorient  #important for SAPT in psi4, default
symmetry c1  #important for SAPT in psi4, default
}

set PROPERTIES_ORIGIN ["COM"]
properties('MP2/aug-cc-pvtz', properties = ['dipole'])
--------------------------------------------------------------------------

    Molecular point group: c1
  Charge       = 0
  Multiplicity = 1
  Basis Set: AUG-CC-PVTZ
    Blend: AUG-CC-PVTZ
  Basis Set: (AUG-CC-PVTZ AUX)
    Blend: AUG-CC-PVTZ-JKFIT

    Orbital Energies [Eh]
    ---------------------

    Doubly Occupied:

       1A    -20.540539     2A    -20.538516     3A    -15.638219
       4A    -15.624620     5A    -11.413738     6A    -11.376228
       7A    -11.325023     8A    -11.285991     9A    -11.259733
      10A    -11.237095    11A     -1.424114    12A     -1.386983
      13A     -1.306808    14A     -1.242921    15A     -1.108971
      16A     -0.993149    17A     -0.963841    18A     -0.914295
      19A     -0.852811    20A     -0.770662    21A     -0.735052
      22A     -0.692269    23A     -0.682192    24A     -0.649503
      25A     -0.637820    26A     -0.615700    27A     -0.609519
      28A     -0.588956    29A     -0.584219    30A     -0.555729
      31A     -0.547154    32A     -0.543211    33A     -0.488062
      34A     -0.475343    35A     -0.444335    36A     -0.430592
      37A     -0.345993

  @DF-RHF Final Energy:  -490.71198674970469

   => Energetics <=

    Nuclear Repulsion Energy =            530.3565713166358364
    One-Electron Energy =               -1720.4773030982576074
    Two-Electron Energy =                 699.4087450319170784
    Total Energy =                       -490.7119867497046926
  Basis Set: (AUG-CC-PVTZ AUX)
    Blend: AUG-CC-PVTZ-RI
    Molecular point group: c1

    Geometry (in Angstrom), charge = 0, multiplicity = 1:

       Center              X                  Y                   Z               Mass
    ------------   -----------------  -----------------  -----------------  -----------------
         O            2.308473582121    -1.332285964018     0.000136260155    15.994914619570
         O           -2.274568417879    -1.424174964018    -0.000052739845    15.994914619570
         N            1.179922582121     0.691620035982     0.000133260155    14.003074004430
         N            0.012655582121    -1.310069964018     0.000044260155    14.003074004430
         C           -1.237362417879     0.730842035982     0.000053260155    12.000000000000
         C           -0.034613417879     1.355863035982     0.000113260155    12.000000000000
         C            1.257896582121    -0.694757964018     0.000109260155    12.000000000000
         C           -1.256981417879    -0.729394964018     0.000011260155    12.000000000000
         C            2.421653582121     1.460379035982     0.000202260155    12.000000000000
         C           -2.553164417879     1.441915035982     0.000021260155    12.000000000000
         H            0.048979582121     2.440089035982     0.000147260155     1.007825032230
         H            0.043492582121    -2.327432964018     0.000017260155     1.007825032230
         H            2.477327582121     2.087108035982     0.893593260155     1.007825032230
         H            2.477183582121     2.087464035982    -0.892999739845     1.007825032230
         H            3.243984582121     0.748419035982     0.000026260155     1.007825032230
         H           -3.140676317879     1.170160935982    -0.881106539845     1.007825032230
         H           -2.418006817879     2.527231835982    -0.008050239845     1.007825032230
         H           -3.140304417879     1.160942035982     0.878501260155     1.007825032230

  Basis Set: AUG-CC-PVTZ
    Blend: AUG-CC-PVTZ
  Basis Set: (AUG-CC-PVTZ AUX)
    Blend: AUG-CC-PVTZ-JKFIT
	 Reference Energy          =    -490.7119867497046926 [Eh]
	 Singles Energy            =      -0.0000000000000000 [Eh]
	 Same-Spin Energy          =      -0.5023764440148653 [Eh]
	 Opposite-Spin Energy      =      -1.5414497677992944 [Eh]
	 Correlation Energy        =      -2.0438262118141597 [Eh]
	 Total Energy              =    -492.7558129615188705 [Eh]

	 ================> DF-SCS-MP2 Energies <==================
	-----------------------------------------------------------
	 SCS Same-Spin Scale       =       0.3333333333333333 [-]
	 SCS Opposite-Spin Scale   =       1.2000000000000000 [-]
	 SCS Same-Spin Energy      =      -0.1674588146716217 [Eh]
	 SCS Opposite-Spin Energy  =      -1.8497397213591533 [Eh]
	 SCS Correlation Energy    =      -2.0171985360307749 [Eh]
	 SCS Total Energy          =    -492.7291852857354684 [Eh]
	-----------------------------------------------------------

  Dipole Moment: [D]
     X:     1.0493      Y:     4.5258      Z:    -0.0046     Total:     4.6459

*** Psi4 exiting successfully. Buy a developer a beer!
