                               Psi4 1.3.2 release

  ==> Input File <==

--------------------------------------------------------------------------
#psi4
#
memory 32 gb

molecule  {
0 1
  O        2.3111590    -1.3984000     0.0000580
  O       -2.2718830    -1.4902890    -0.0001310
  N        1.1461797     0.5628524     0.0000520
  N        0.0153410    -1.3761840    -0.0000340
  C       -1.2346770     0.6647280    -0.0000250
  C       -0.0319280     1.2897490     0.0000350
  C        1.2605820    -0.7608720     0.0000310
  C       -1.2542960    -0.7955090    -0.0000670
  C        2.4243390     1.3942650     0.0001240
  C       -2.5504790     1.3758010    -0.0000570
  H       -0.0051936     2.3768640     0.0000672
  H        0.0461780    -2.3935470    -0.0000610
  H        2.4800130     2.0209940     0.8935150
  H        2.4798690     2.0213500    -0.8930780
  H        3.2466700     0.6823050    -0.0000520
  H       -3.1375530     1.0948740    -0.8785960
  H       -2.4103180     2.4605130    -0.0000230
  H       -3.1376190     1.0948280     0.8784230
units angstrom
no_reorient  #important for SAPT in psi4, default
symmetry c1  #important for SAPT in psi4, default
}

set PROPERTIES_ORIGIN ["COM"]
properties('MP2/aug-cc-pvtz', properties = ['dipole'])
--------------------------------------------------------------------------

    Molecular point group: c1
  Charge       = 0
  Multiplicity = 1
  Basis Set: AUG-CC-PVTZ
    Blend: AUG-CC-PVTZ
  Basis Set: (AUG-CC-PVTZ AUX)
    Blend: AUG-CC-PVTZ-JKFIT

    Orbital Energies [Eh]
    ---------------------

    Doubly Occupied:

       1A    -20.537047     2A    -20.532615     3A    -15.639066
       4A    -15.619161     5A    -11.405005     6A    -11.374778
       7A    -11.325184     8A    -11.292660     9A    -11.260798
      10A    -11.237963    11A     -1.425463    12A     -1.385274
      13A     -1.308349    14A     -1.236370    15A     -1.110760
      16A     -0.990763    17A     -0.974050    18A     -0.914561
      19A     -0.850824    20A     -0.775548    21A     -0.731837
      22A     -0.693220    23A     -0.683678    24A     -0.639876
      25A     -0.636884    26A     -0.613365    27A     -0.601779
      28A     -0.593300    29A     -0.584812    30A     -0.556558
      31A     -0.545298    32A     -0.544902    33A     -0.489127
      34A     -0.472619    35A     -0.441811    36A     -0.427762
      37A     -0.348799

  @DF-RHF Final Energy:  -490.70565182273248

   => Energetics <=

    Nuclear Repulsion Energy =            531.3449250732853670
    One-Electron Energy =               -1722.4974236702460075
    Two-Electron Energy =                 700.4468467742281064
    Total Energy =                       -490.7056518227325341
  Basis Set: (AUG-CC-PVTZ AUX)
    Blend: AUG-CC-PVTZ-RI
    Molecular point group: c1

    Geometry (in Angstrom), charge = 0, multiplicity = 1:

       Center              X                  Y                   Z               Mass
    ------------   -----------------  -----------------  -----------------  -----------------
         O            2.312485673582    -1.325972280005     0.000059619651    15.994914619570
         O           -2.270556326418    -1.417861280005    -0.000129380349    15.994914619570
         N            1.147506373582     0.635280119995     0.000053619651    14.003074004430
         N            0.016667673582    -1.303756280005    -0.000032380349    14.003074004430
         C           -1.233350326418     0.737155719995    -0.000023380349    12.000000000000
         C           -0.030601326418     1.362176719995     0.000036619651    12.000000000000
         C            1.261908673582    -0.688444280005     0.000032619651    12.000000000000
         C           -1.252969326418    -0.723081280005    -0.000065380349    12.000000000000
         C            2.425665673582     1.466692719995     0.000125619651    12.000000000000
         C           -2.549152326418     1.448228719995    -0.000055380349    12.000000000000
         H           -0.003866926418     2.449291719995     0.000068819651     1.007825032230
         H            0.047504673582    -2.321119280005    -0.000059380349     1.007825032230
         H            2.481339673582     2.093421719995     0.893516619651     1.007825032230
         H            2.481195673582     2.093777719995    -0.893076380349     1.007825032230
         H            3.247996673582     0.754732719995    -0.000050380349     1.007825032230
         H           -3.136226326418     1.167301719995    -0.878594380349     1.007825032230
         H           -2.408991326418     2.532940719995    -0.000021380349     1.007825032230
         H           -3.136292326418     1.167255719995     0.878424619651     1.007825032230

  Basis Set: AUG-CC-PVTZ
    Blend: AUG-CC-PVTZ
  Basis Set: (AUG-CC-PVTZ AUX)
    Blend: AUG-CC-PVTZ-JKFIT
	 Reference Energy          =    -490.7056518227324773 [Eh]
	 Singles Energy            =      -0.0000000000000000 [Eh]
	 Same-Spin Energy          =      -0.5022861139612488 [Eh]
	 Opposite-Spin Energy      =      -1.5414125369192990 [Eh]
	 Correlation Energy        =      -2.0436986508805477 [Eh]
	 Total Energy              =    -492.7493504736130490 [Eh]

	 ================> DF-SCS-MP2 Energies <==================
	-----------------------------------------------------------
	 SCS Same-Spin Scale       =       0.3333333333333333 [-]
	 SCS Opposite-Spin Scale   =       1.2000000000000000 [-]
	 SCS Same-Spin Energy      =      -0.1674287046537496 [Eh]
	 SCS Opposite-Spin Energy  =      -1.8496950443031588 [Eh]
	 SCS Correlation Energy    =      -2.0171237489569083 [Eh]
	 SCS Total Energy          =    -492.7227755716893967 [Eh]
	-----------------------------------------------------------

  Dipole Moment: [D]
     X:     0.9900      Y:     4.8556      Z:     0.0002     Total:     4.9555

*** Psi4 exiting successfully. Buy a developer a beer!
