                               Psi4 1.3.2 release

  ==> Input File <==

--------------------------------------------------------------------------
#psi4
#
memory 32 gb

molecule  {
0 1
  O        2.3111590    -1.3984000     0.0000580
  O       -2.2718830    -1.4902890    -0.0001310
  N        1.1826080     0.6255060     0.0000550
  N        0.0153410    -1.3761840    -0.0000340
  C       -1.2346770     0.6647280    -0.0000250
  C       -0.0319280     1.2897490     0.0000350
  C        1.2659041    -0.7717621     0.0000309
  C       -1.2593149    -0.8066106    -0.0000675
  C        2.4243390     1.3942650     0.0001240
  C       -2.5504790     1.3758010    -0.0000570
  H        0.0516650     2.3739750     0.0000690
  H        0.0461780    -2.3935470    -0.0000610
  H        2.4800130     2.0209940     0.8935150
  H        2.4798690     2.0213500    -0.8930780
  H        3.2466700     0.6823050    -0.0000520
  H       -3.1375530     1.0948740    -0.8785960
  H       -2.4103180     2.4605130    -0.0000230
  H       -3.1376190     1.0948280     0.8784230
units angstrom
no_reorient  #important for SAPT in psi4, default
symmetry c1  #important for SAPT in psi4, default
}

set PROPERTIES_ORIGIN ["COM"]
properties('MP2/aug-cc-pvtz', properties = ['dipole'])
--------------------------------------------------------------------------

    Molecular point group: c1
  Charge       = 0
  Multiplicity = 1
  Basis Set: AUG-CC-PVTZ
    Blend: AUG-CC-PVTZ
  Basis Set: (AUG-CC-PVTZ AUX)
    Blend: AUG-CC-PVTZ-JKFIT

    Orbital Energies [Eh]
    ---------------------

    Doubly Occupied:

       1A    -20.543198     2A    -20.540342     3A    -15.635268
       4A    -15.623674     5A    -11.414038     6A    -11.376154
       7A    -11.322537     8A    -11.284441     9A    -11.258163
      10A    -11.236027    11A     -1.428295    12A     -1.394307
      13A     -1.305993    14A     -1.243048    15A     -1.105988
      16A     -0.990969    17A     -0.961266    18A     -0.911093
      19A     -0.852801    20A     -0.768461    21A     -0.732527
      22A     -0.692083    23A     -0.680592    24A     -0.650635
      25A     -0.641551    26A     -0.615723    27A     -0.610547
      28A     -0.587190    29A     -0.584113    30A     -0.554210
      31A     -0.547339    32A     -0.546147    33A     -0.487498
      34A     -0.477036    35A     -0.445237    36A     -0.432841
      37A     -0.343748

  @DF-RHF Final Energy:  -490.71295058582359

   => Energetics <=

    Nuclear Repulsion Energy =            530.2458691613353494
    One-Electron Energy =               -1720.2674772886630308
    Two-Electron Energy =                 699.3086575415040897
    Total Energy =                       -490.7129505858235916
  Basis Set: (AUG-CC-PVTZ AUX)
    Blend: AUG-CC-PVTZ-RI
    Molecular point group: c1

    Geometry (in Angstrom), charge = 0, multiplicity = 1:

       Center              X                  Y                   Z               Mass
    ------------   -----------------  -----------------  -----------------  -----------------
         O            2.308408450242    -1.330331391755     0.000059358165    15.994914619570
         O           -2.274633549758    -1.422220391755    -0.000129641835    15.994914619570
         N            1.179857450242     0.693574608245     0.000056358165    14.003074004430
         N            0.012590450242    -1.308115391755    -0.000032641835    14.003074004430
         C           -1.237427549758     0.732796608245    -0.000023641835    12.000000000000
         C           -0.034678549758     1.357817608245     0.000036358165    12.000000000000
         C            1.263153550242    -0.703693491755     0.000032258165    12.000000000000
         C           -1.262065449758    -0.738541991755    -0.000066141835    12.000000000000
         C            2.421588450242     1.462333608245     0.000125358165    12.000000000000
         C           -2.553229549758     1.443869608245    -0.000055641835    12.000000000000
         H            0.048914450242     2.442043608245     0.000070358165     1.007825032230
         H            0.043427450242    -2.325478391755    -0.000059641835     1.007825032230
         H            2.477262450242     2.089062608245     0.893516358165     1.007825032230
         H            2.477118450242     2.089418608245    -0.893076641835     1.007825032230
         H            3.243919450242     0.750373608245    -0.000050641835     1.007825032230
         H           -3.140303549758     1.162942608245    -0.878594641835     1.007825032230
         H           -2.413068549758     2.528581608245    -0.000021641835     1.007825032230
         H           -3.140369549758     1.162896608245     0.878424358165     1.007825032230

  Basis Set: AUG-CC-PVTZ
    Blend: AUG-CC-PVTZ
  Basis Set: (AUG-CC-PVTZ AUX)
    Blend: AUG-CC-PVTZ-JKFIT
	 Reference Energy          =    -490.7129505858235916 [Eh]
	 Singles Energy            =      -0.0000000000000000 [Eh]
	 Same-Spin Energy          =      -0.5019555103074871 [Eh]
	 Opposite-Spin Energy      =      -1.5407078883561347 [Eh]
	 Correlation Energy        =      -2.0426633986636218 [Eh]
	 Total Energy              =    -492.7556139844872405 [Eh]

	 ================> DF-SCS-MP2 Energies <==================
	-----------------------------------------------------------
	 SCS Same-Spin Scale       =       0.3333333333333333 [-]
	 SCS Opposite-Spin Scale   =       1.2000000000000000 [-]
	 SCS Same-Spin Energy      =      -0.1673185034358290 [Eh]
	 SCS Opposite-Spin Energy  =      -1.8488494660273616 [Eh]
	 SCS Correlation Energy    =      -2.0161679694631904 [Eh]
	 SCS Total Energy          =    -492.7291185552867887 [Eh]
	-----------------------------------------------------------

  Dipole Moment: [D]
     X:     1.0621      Y:     4.3567      Z:     0.0002     Total:     4.4842

*** Psi4 exiting successfully. Buy a developer a beer!
