                               Psi4 1.3.2 release

  ==> Input File <==

--------------------------------------------------------------------------
#psi4
#
memory 32 gb

molecule  {
0 1
  O        2.3111590    -1.3984000     0.0000580
  O       -2.2718830    -1.4902890    -0.0001310
  N        1.1826080     0.6255060     0.0000550
  N        0.0153410    -1.3761840    -0.0000340
  C       -1.2346770     0.6647280    -0.0000250
  C       -0.0212031     1.2686629     0.0000349
  C        1.2605820    -0.7608720     0.0000310
  C       -1.2542960    -0.7955090    -0.0000670
  C        2.4243390     1.3942650     0.0001240
  C       -2.5626885     1.3527288    -0.0000580
  H        0.0516650     2.3739750     0.0000690
  H        0.0461780    -2.3935470    -0.0000610
  H        2.4800130     2.0209940     0.8935150
  H        2.4798690     2.0213500    -0.8930780
  H        3.2466700     0.6823050    -0.0000520
  H       -3.1375530     1.0948740    -0.8785960
  H       -2.4103180     2.4605130    -0.0000230
  H       -3.1376190     1.0948280     0.8784230
units angstrom
no_reorient  #important for SAPT in psi4, default
symmetry c1  #important for SAPT in psi4, default
}

set PROPERTIES_ORIGIN ["COM"]
properties('MP2/aug-cc-pvtz', properties = ['dipole'])
--------------------------------------------------------------------------

    Molecular point group: c1
  Charge       = 0
  Multiplicity = 1
  Basis Set: AUG-CC-PVTZ
    Blend: AUG-CC-PVTZ
  Basis Set: (AUG-CC-PVTZ AUX)
    Blend: AUG-CC-PVTZ-JKFIT

    Orbital Energies [Eh]
    ---------------------

    Doubly Occupied:

       1A    -20.541590     2A    -20.536812     3A    -15.640258
       4A    -15.624508     5A    -11.414565     6A    -11.374051
       7A    -11.325759     8A    -11.287716     9A    -11.257647
      10A    -11.236873    11A     -1.425629    12A     -1.386031
      13A     -1.312067    14A     -1.243854    15A     -1.107850
      16A     -0.996010    17A     -0.964403    18A     -0.913113
      19A     -0.854577    20A     -0.772028    21A     -0.734620
      22A     -0.689072    23A     -0.684753    24A     -0.651129
      25A     -0.636787    26A     -0.616809    27A     -0.605476
      28A     -0.589663    29A     -0.588291    30A     -0.558541
      31A     -0.544074    32A     -0.540006    33A     -0.492150
      34A     -0.475018    35A     -0.442850    36A     -0.430476
      37A     -0.345307

  @DF-RHF Final Energy:  -490.71076207021775

   => Energetics <=

    Nuclear Repulsion Energy =            530.8584090276785901
    One-Electron Energy =               -1721.4576148882156303
    Two-Electron Energy =                 699.8884437903192293
    Total Energy =                       -490.7107620702178110
  Basis Set: (AUG-CC-PVTZ AUX)
    Blend: AUG-CC-PVTZ-RI
    Molecular point group: c1

    Geometry (in Angstrom), charge = 0, multiplicity = 1:

       Center              X                  Y                   Z               Mass
    ------------   -----------------  -----------------  -----------------  -----------------
         O            2.308561626151    -1.328432192115     0.000059401004    15.994914619570
         O           -2.274480373849    -1.420321192115    -0.000129598996    15.994914619570
         N            1.180010626151     0.695473807885     0.000056401004    14.003074004430
         N            0.012743626151    -1.306216192115    -0.000032598996    14.003074004430
         C           -1.237274373849     0.734695807885    -0.000023598996    12.000000000000
         C           -0.023800473849     1.338630707885     0.000036301004    12.000000000000
         C            1.257984626151    -0.690904192115     0.000032401004    12.000000000000
         C           -1.256893373849    -0.725541192115    -0.000065598996    12.000000000000
         C            2.421741626151     1.464232807885     0.000125401004    12.000000000000
         C           -2.565285873849     1.422696607885    -0.000056598996    12.000000000000
         H            0.049067626151     2.443942807885     0.000070401004     1.007825032230
         H            0.043580626151    -2.323579192115    -0.000059598996     1.007825032230
         H            2.477415626151     2.090961807885     0.893516401004     1.007825032230
         H            2.477271626151     2.091317807885    -0.893076598996     1.007825032230
         H            3.244072626151     0.752272807885    -0.000050598996     1.007825032230
         H           -3.140150373849     1.164841807885    -0.878594598996     1.007825032230
         H           -2.412915373849     2.530480807885    -0.000021598996     1.007825032230
         H           -3.140216373849     1.164795807885     0.878424401004     1.007825032230

  Basis Set: AUG-CC-PVTZ
    Blend: AUG-CC-PVTZ
  Basis Set: (AUG-CC-PVTZ AUX)
    Blend: AUG-CC-PVTZ-JKFIT
	 Reference Energy          =    -490.7107620702177542 [Eh]
	 Singles Energy            =      -0.0000000000000000 [Eh]
	 Same-Spin Energy          =      -0.5025440028165491 [Eh]
	 Opposite-Spin Energy      =      -1.5414247042560960 [Eh]
	 Correlation Energy        =      -2.0439687070726453 [Eh]
	 Total Energy              =    -492.7547307772903764 [Eh]

	 ================> DF-SCS-MP2 Energies <==================
	-----------------------------------------------------------
	 SCS Same-Spin Scale       =       0.3333333333333333 [-]
	 SCS Opposite-Spin Scale   =       1.2000000000000000 [-]
	 SCS Same-Spin Energy      =      -0.1675146676055164 [Eh]
	 SCS Opposite-Spin Energy  =      -1.8497096451073152 [Eh]
	 SCS Correlation Energy    =      -2.0172243127128313 [Eh]
	 SCS Total Energy          =    -492.7279863829305668 [Eh]
	-----------------------------------------------------------

  Dipole Moment: [D]
     X:     1.1563      Y:     4.4984      Z:     0.0002     Total:     4.6446

*** Psi4 exiting successfully. Buy a developer a beer!
