                               Psi4 1.3.2 release

  ==> Input File <==

--------------------------------------------------------------------------
#psi4
#
memory 32 gb

molecule  {
0 1
  O        2.3111590    -1.3984000     0.0000580
  O       -2.2718830    -1.4902890    -0.0001310
  N        1.1826080     0.6255060     0.0000550
  N        0.0153410    -1.3761840    -0.0000340
  C       -1.2346770     0.6647280    -0.0000250
  C       -0.2073996     1.3857163     0.0000321
  C        1.2605820    -0.7608720     0.0000310
  C       -1.2542960    -0.7955090    -0.0000670
  C        2.4243390     1.3942650     0.0001240
  C       -2.5504790     1.3758010    -0.0000570
  H        0.0516650     2.3739750     0.0000690
  H        0.0461780    -2.3935470    -0.0000610
  H        2.4800130     2.0209940     0.8935150
  H        2.4798690     2.0213500    -0.8930780
  H        3.2466700     0.6823050    -0.0000520
  H       -3.1375530     1.0948740    -0.8785960
  H       -2.4103180     2.4605130    -0.0000230
  H       -3.1376190     1.0948280     0.8784230
units angstrom
no_reorient  #important for SAPT in psi4, default
symmetry c1  #important for SAPT in psi4, default
}

set PROPERTIES_ORIGIN ["COM"]
properties('MP2/aug-cc-pvtz', properties = ['dipole'])
--------------------------------------------------------------------------

    Molecular point group: c1
  Charge       = 0
  Multiplicity = 1
  Basis Set: AUG-CC-PVTZ
    Blend: AUG-CC-PVTZ
  Basis Set: (AUG-CC-PVTZ AUX)
    Blend: AUG-CC-PVTZ-JKFIT

    Orbital Energies [Eh]
    ---------------------

    Doubly Occupied:

       1A    -20.553885     2A    -20.529909     3A    -15.623122
       4A    -15.615709     5A    -11.402451     6A    -11.391031
       7A    -11.319170     8A    -11.272730     9A    -11.265433
      10A    -11.243280    11A     -1.416273    12A     -1.392536
      13A     -1.275015    14A     -1.224563    15A     -1.140470
      16A     -0.976482    17A     -0.959966    18A     -0.920351
      19A     -0.844019    20A     -0.767777    21A     -0.737723
      22A     -0.702114    23A     -0.665200    24A     -0.643173
      25A     -0.636454    26A     -0.619760    27A     -0.614358
      28A     -0.588036    29A     -0.582411    30A     -0.560946
      31A     -0.544282    32A     -0.523187    33A     -0.472550
      34A     -0.469865    35A     -0.449428    36A     -0.430764
      37A     -0.370149

  @DF-RHF Final Energy:  -490.67341889614283

   => Energetics <=

    Nuclear Repulsion Energy =            528.5877315579879223
    One-Electron Energy =               -1717.0331541583157104
    Two-Electron Energy =                 697.7720037041848400
    Total Energy =                       -490.6734188961428345
  Basis Set: (AUG-CC-PVTZ AUX)
    Blend: AUG-CC-PVTZ-RI
    Molecular point group: c1

    Geometry (in Angstrom), charge = 0, multiplicity = 1:

       Center              X                  Y                   Z               Mass
    ------------   -----------------  -----------------  -----------------  -----------------
         O            2.323468560358    -1.340437934498     0.000059555226    15.994914619570
         O           -2.259573439642    -1.432326934498    -0.000129444774    15.994914619570
         N            1.194917560358     0.683468065502     0.000056555226    14.003074004430
         N            0.027650560358    -1.318221934498    -0.000032444774    14.003074004430
         C           -1.222367439642     0.722690065502    -0.000023444774    12.000000000000
         C           -0.195090039642     1.443678365502     0.000033655226    12.000000000000
         C            1.272891560358    -0.702909934498     0.000032555226    12.000000000000
         C           -1.241986439642    -0.737546934498    -0.000065444774    12.000000000000
         C            2.436648560358     1.452227065502     0.000125555226    12.000000000000
         C           -2.538169439642     1.433763065502    -0.000055444774    12.000000000000
         H            0.063974560358     2.431937065502     0.000070555226     1.007825032230
         H            0.058487560358    -2.335584934498    -0.000059444774     1.007825032230
         H            2.492322560358     2.078956065502     0.893516555226     1.007825032230
         H            2.492178560358     2.079312065502    -0.893076444774     1.007825032230
         H            3.258979560358     0.740267065502    -0.000050444774     1.007825032230
         H           -3.125243439642     1.152836065502    -0.878594444774     1.007825032230
         H           -2.398008439642     2.518475065502    -0.000021444774     1.007825032230
         H           -3.125309439642     1.152790065502     0.878424555226     1.007825032230

  Basis Set: AUG-CC-PVTZ
    Blend: AUG-CC-PVTZ
  Basis Set: (AUG-CC-PVTZ AUX)
    Blend: AUG-CC-PVTZ-JKFIT
	 Reference Energy          =    -490.6734188961428345 [Eh]
	 Singles Energy            =      -0.0000000000000000 [Eh]
	 Same-Spin Energy          =      -0.5010020838597627 [Eh]
	 Opposite-Spin Energy      =      -1.5420444025590563 [Eh]
	 Correlation Energy        =      -2.0430464864188189 [Eh]
	 Total Energy              =    -492.7164653825616369 [Eh]

	 ================> DF-SCS-MP2 Energies <==================
	-----------------------------------------------------------
	 SCS Same-Spin Scale       =       0.3333333333333333 [-]
	 SCS Opposite-Spin Scale   =       1.2000000000000000 [-]
	 SCS Same-Spin Energy      =      -0.1670006946199209 [Eh]
	 SCS Opposite-Spin Energy  =      -1.8504532830708675 [Eh]
	 SCS Correlation Energy    =      -2.0174539776907885 [Eh]
	 SCS Total Energy          =    -492.6908728738335981 [Eh]
	-----------------------------------------------------------

  Dipole Moment: [D]
     X:     0.0044      Y:     4.5639      Z:     0.0001     Total:     4.5639

*** Psi4 exiting successfully. Buy a developer a beer!
