                               Psi4 1.3.2 release

  ==> Input File <==

--------------------------------------------------------------------------
#psi4
#
memory 32 gb

molecule  {
0 1
  O        2.3111590    -1.3984000     0.0000580
  O       -2.2718830    -1.4902890    -0.0001310
  N        1.1826080     0.6255060     0.0000550
  N        0.0153410    -1.3761840    -0.0000340
  C       -1.2346770     0.6647280    -0.0000250
  C       -0.0319280     1.2897490     0.0000350
  C        1.2605820    -0.7608720     0.0000310
  C       -1.2556394    -0.8955000    -0.0000699
  C        2.4243390     1.3942650     0.0001240
  C       -2.5504790     1.3758010    -0.0000570
  H        0.0516650     2.3739750     0.0000690
  H        0.0461780    -2.3935470    -0.0000610
  H        2.4800130     2.0209940     0.8935150
  H        2.4798690     2.0213500    -0.8930780
  H        3.2466700     0.6823050    -0.0000520
  H       -3.1375530     1.0948740    -0.8785960
  H       -2.4103180     2.4605130    -0.0000230
  H       -3.1376190     1.0948280     0.8784230
units angstrom
no_reorient  #important for SAPT in psi4, default
symmetry c1  #important for SAPT in psi4, default
}

set PROPERTIES_ORIGIN ["COM"]
properties('MP2/aug-cc-pvtz', properties = ['dipole'])
--------------------------------------------------------------------------

    Molecular point group: c1
  Charge       = 0
  Multiplicity = 1
  Basis Set: AUG-CC-PVTZ
    Blend: AUG-CC-PVTZ
  Basis Set: (AUG-CC-PVTZ AUX)
    Blend: AUG-CC-PVTZ-JKFIT

    Orbital Energies [Eh]
    ---------------------

    Doubly Occupied:

       1A    -20.548084     2A    -20.542152     3A    -15.631688
       4A    -15.626982     5A    -11.416711     6A    -11.376439
       7A    -11.310444     8A    -11.282208     9A    -11.257895
      10A    -11.233822    11A     -1.437445    12A     -1.413757
      13A     -1.304980    14A     -1.256281    15A     -1.092764
      16A     -0.990624    17A     -0.961823    18A     -0.900190
      19A     -0.859608    20A     -0.765476    21A     -0.727625
      22A     -0.690270    23A     -0.681115    24A     -0.661755
      25A     -0.639631    26A     -0.621538    27A     -0.610677
      28A     -0.586127    29A     -0.581088    30A     -0.556612
      31A     -0.554242    32A     -0.545405    33A     -0.483340
      34A     -0.473452    35A     -0.441601    36A     -0.440285
      37A     -0.338263

  @DF-RHF Final Energy:  -490.70504698916989

   => Energetics <=

    Nuclear Repulsion Energy =            530.1627003732965022
    One-Electron Energy =               -1720.0506993055846578
    Two-Electron Energy =                 699.1829519431182689
    Total Energy =                       -490.7050469891698867
  Basis Set: (AUG-CC-PVTZ AUX)
    Blend: AUG-CC-PVTZ-RI
    Molecular point group: c1

    Geometry (in Angstrom), charge = 0, multiplicity = 1:

       Center              X                  Y                   Z               Mass
    ------------   -----------------  -----------------  -----------------  -----------------
         O            2.308549528356    -1.323648533649     0.000059555226    15.994914619570
         O           -2.274492471644    -1.415537533649    -0.000129444774    15.994914619570
         N            1.179998528356     0.700257466351     0.000056555226    14.003074004430
         N            0.012731528356    -1.301432533649    -0.000032444774    14.003074004430
         C           -1.237286471644     0.739479466351    -0.000023444774    12.000000000000
         C           -0.034537471644     1.364500466351     0.000036555226    12.000000000000
         C            1.257972528356    -0.686120533649     0.000032555226    12.000000000000
         C           -1.258248871644    -0.820748533649    -0.000068344774    12.000000000000
         C            2.421729528356     1.469016466351     0.000125555226    12.000000000000
         C           -2.553088471644     1.450552466351    -0.000055444774    12.000000000000
         H            0.049055528356     2.448726466351     0.000070555226     1.007825032230
         H            0.043568528356    -2.318795533649    -0.000059444774     1.007825032230
         H            2.477403528356     2.095745466351     0.893516555226     1.007825032230
         H            2.477259528356     2.096101466351    -0.893076444774     1.007825032230
         H            3.244060528356     0.757056466351    -0.000050444774     1.007825032230
         H           -3.140162471644     1.169625466351    -0.878594444774     1.007825032230
         H           -2.412927471644     2.535264466351    -0.000021444774     1.007825032230
         H           -3.140228471644     1.169579466351     0.878424555226     1.007825032230

  Basis Set: AUG-CC-PVTZ
    Blend: AUG-CC-PVTZ
  Basis Set: (AUG-CC-PVTZ AUX)
    Blend: AUG-CC-PVTZ-JKFIT
	 Reference Energy          =    -490.7050469891698867 [Eh]
	 Singles Energy            =      -0.0000000000000000 [Eh]
	 Same-Spin Energy          =      -0.5007471525015773 [Eh]
	 Opposite-Spin Energy      =      -1.5389484068780031 [Eh]
	 Correlation Energy        =      -2.0396955593795805 [Eh]
	 Total Energy              =    -492.7447425485494819 [Eh]

	 ================> DF-SCS-MP2 Energies <==================
	-----------------------------------------------------------
	 SCS Same-Spin Scale       =       0.3333333333333333 [-]
	 SCS Opposite-Spin Scale   =       1.2000000000000000 [-]
	 SCS Same-Spin Energy      =      -0.1669157175005258 [Eh]
	 SCS Opposite-Spin Energy  =      -1.8467380882536035 [Eh]
	 SCS Correlation Energy    =      -2.0136538057541293 [Eh]
	 SCS Total Energy          =    -492.7187007949240183 [Eh]
	-----------------------------------------------------------

  Dipole Moment: [D]
     X:     0.8371      Y:     3.9368      Z:     0.0001     Total:     4.0248

*** Psi4 exiting successfully. Buy a developer a beer!
