                               Psi4 1.3.2 release

  ==> Input File <==

--------------------------------------------------------------------------
#psi4
#
memory 32 gb

molecule  {
0 1
  O        2.3111590    -1.3984000     0.0000580
  O       -2.2718830    -1.4902890    -0.0001310
  N        1.1645424     0.6584945    -0.0665144
  N        0.0153410    -1.3761840    -0.0000340
  C       -1.2346770     0.6647280    -0.0000250
  C       -0.0319280     1.2897490     0.0000350
  C        1.2605820    -0.7608720     0.0000310
  C       -1.2542960    -0.7955090    -0.0000670
  C        2.4243390     1.3942650     0.0001240
  C       -2.5504790     1.3758010    -0.0000570
  H        0.0516650     2.3739750     0.0000690
  H        0.0461780    -2.3935470    -0.0000610
  H        2.4800130     2.0209940     0.8935150
  H        2.4290502     2.0004865    -0.9090527
  H        3.2466700     0.6823050    -0.0000520
  H       -3.1375530     1.0948740    -0.8785960
  H       -2.4103180     2.4605130    -0.0000230
  H       -3.1376190     1.0948280     0.8784230
units angstrom
no_reorient  #important for SAPT in psi4, default
symmetry c1  #important for SAPT in psi4, default
}

set PROPERTIES_ORIGIN ["COM"]
properties('MP2/aug-cc-pvtz', properties = ['dipole'])
--------------------------------------------------------------------------

    Molecular point group: c1
  Charge       = 0
  Multiplicity = 1
  Basis Set: AUG-CC-PVTZ
    Blend: AUG-CC-PVTZ
  Basis Set: (AUG-CC-PVTZ AUX)
    Blend: AUG-CC-PVTZ-JKFIT

    Orbital Energies [Eh]
    ---------------------

    Doubly Occupied:

       1A    -20.547494     2A    -20.536639     3A    -15.638573
       4A    -15.625945     5A    -11.419233     6A    -11.374577
       7A    -11.322519     8A    -11.286886     9A    -11.254822
      10A    -11.234750    11A     -1.424768    12A     -1.386130
      13A     -1.311284    14A     -1.244644    15A     -1.106383
      16A     -0.994452    17A     -0.958398    18A     -0.913455
      19A     -0.854691    20A     -0.769218    21A     -0.733663
      22A     -0.694282    23A     -0.683090    24A     -0.651919
      25A     -0.638807    26A     -0.617676    27A     -0.608435
      28A     -0.585152    29A     -0.581853    30A     -0.556283
      31A     -0.546614    32A     -0.542214    33A     -0.493543
      34A     -0.477264    35A     -0.443713    36A     -0.431272
      37A     -0.341013

  @DF-RHF Final Energy:  -490.70717526686269

   => Energetics <=

    Nuclear Repulsion Energy =            530.2651468079276356
    One-Electron Energy =               -1720.2813374464706158
    Two-Electron Energy =                 699.3090153716801751
    Total Energy =                       -490.7071752668626914
  Basis Set: (AUG-CC-PVTZ AUX)
    Blend: AUG-CC-PVTZ-RI
    Molecular point group: c1

    Geometry (in Angstrom), charge = 0, multiplicity = 1:

       Center              X                  Y                   Z               Mass
    ------------   -----------------  -----------------  -----------------  -----------------
         O            2.310606307724    -1.335363672261     0.006829873431    15.994914619570
         O           -2.272435692276    -1.427252672261     0.006640873431    15.994914619570
         N            1.163989707724     0.721530827739    -0.059742526569    14.003074004430
         N            0.014788307724    -1.313147672261     0.006737873431    14.003074004430
         C           -1.235229692276     0.727764327739     0.006746873431    12.000000000000
         C           -0.032480692276     1.352785327739     0.006806873431    12.000000000000
         C            1.260029307724    -0.697835672261     0.006802873431    12.000000000000
         C           -1.254848692276    -0.732472672261     0.006704873431    12.000000000000
         C            2.423786307724     1.457301327739     0.006895873431    12.000000000000
         C           -2.551031692276     1.438837327739     0.006714873431    12.000000000000
         H            0.051112307724     2.437011327739     0.006840873431     1.007825032230
         H            0.045625307724    -2.330510672261     0.006710873431     1.007825032230
         H            2.479460307724     2.084030327739     0.900286873431     1.007825032230
         H            2.428497507724     2.063522827739    -0.902280826569     1.007825032230
         H            3.246117307724     0.745341327739     0.006719873431     1.007825032230
         H           -3.138105692276     1.157910327739    -0.871824126569     1.007825032230
         H           -2.410870692276     2.523549327739     0.006748873431     1.007825032230
         H           -3.138171692276     1.157864327739     0.885194873431     1.007825032230

  Basis Set: AUG-CC-PVTZ
    Blend: AUG-CC-PVTZ
  Basis Set: (AUG-CC-PVTZ AUX)
    Blend: AUG-CC-PVTZ-JKFIT
	 Reference Energy          =    -490.7071752668626914 [Eh]
	 Singles Energy            =      -0.0000000000000000 [Eh]
	 Same-Spin Energy          =      -0.5030170619700990 [Eh]
	 Opposite-Spin Energy      =      -1.5423159129602899 [Eh]
	 Correlation Energy        =      -2.0453329749303890 [Eh]
	 Total Energy              =    -492.7525082417930662 [Eh]

	 ================> DF-SCS-MP2 Energies <==================
	-----------------------------------------------------------
	 SCS Same-Spin Scale       =       0.3333333333333333 [-]
	 SCS Opposite-Spin Scale   =       1.2000000000000000 [-]
	 SCS Same-Spin Energy      =      -0.1676723539900330 [Eh]
	 SCS Opposite-Spin Energy  =      -1.8507790955523478 [Eh]
	 SCS Correlation Energy    =      -2.0184514495423809 [Eh]
	 SCS Total Energy          =    -492.7256267164050882 [Eh]
	-----------------------------------------------------------

  Dipole Moment: [D]
     X:     1.2837      Y:     4.3668      Z:     0.0494     Total:     4.5519

*** Psi4 exiting successfully. Buy a developer a beer!
