                               Psi4 1.3.2 release

  ==> Input File <==

--------------------------------------------------------------------------
#psi4
#
memory 32 gb

molecule  {
0 1
  O        2.3111590    -1.3984000     0.0000580
  O       -2.2718830    -1.4902890    -0.0001310
  N        1.1826080     0.6255060     0.0000550
  N        0.0153410    -1.3761840    -0.0000340
  C       -1.2346770     0.6647280    -0.0000250
  C       -0.0319280     1.2897490     0.0000350
  C        1.2605820    -0.7608720     0.0000310
  C       -1.2542960    -0.7955090    -0.0000670
  C        2.4243390     1.3942650     0.0001240
  C       -2.5504790     1.3758010    -0.0000570
  H        0.0516650     2.3739750     0.0000690
  H        0.0461780    -2.3935470    -0.0000610
  H        2.4800130     2.0209940     0.8935150
  H        2.5111533     2.0022892    -0.9037006
  H        3.2584926     0.6969809    -0.0330109
  H       -3.1375530     1.0948740    -0.8785960
  H       -2.4103180     2.4605130    -0.0000230
  H       -3.1376190     1.0948280     0.8784230
units angstrom
no_reorient  #important for SAPT in psi4, default
symmetry c1  #important for SAPT in psi4, default
}

set PROPERTIES_ORIGIN ["COM"]
properties('MP2/aug-cc-pvtz', properties = ['dipole'])
--------------------------------------------------------------------------

    Molecular point group: c1
  Charge       = 0
  Multiplicity = 1
  Basis Set: AUG-CC-PVTZ
    Blend: AUG-CC-PVTZ
  Basis Set: (AUG-CC-PVTZ AUX)
    Blend: AUG-CC-PVTZ-JKFIT

    Orbital Energies [Eh]
    ---------------------

    Doubly Occupied:

       1A    -20.540363     2A    -20.538559     3A    -15.638659
       4A    -15.624593     5A    -11.413682     6A    -11.376217
       7A    -11.325036     8A    -11.285884     9A    -11.259644
      10A    -11.237121    11A     -1.423958    12A     -1.386970
      13A     -1.306731    14A     -1.242839    15A     -1.108981
      16A     -0.993139    17A     -0.963782    18A     -0.914195
      19A     -0.853197    20A     -0.770402    21A     -0.735283
      22A     -0.692470    23A     -0.682507    24A     -0.650237
      25A     -0.637576    26A     -0.616693    27A     -0.609707
      28A     -0.585830    29A     -0.583597    30A     -0.554759
      31A     -0.548130    32A     -0.543198    33A     -0.488490
      34A     -0.475224    35A     -0.444309    36A     -0.430523
      37A     -0.346050

  @DF-RHF Final Energy:  -490.71162663794280

   => Energetics <=

    Nuclear Repulsion Energy =            530.2984035570793822
    One-Electron Energy =               -1720.3629925949546760
    Two-Electron Energy =                 699.3529623999324940
    Total Energy =                       -490.7116266379427998
  Basis Set: (AUG-CC-PVTZ AUX)
    Blend: AUG-CC-PVTZ-RI
    Molecular point group: c1

    Geometry (in Angstrom), charge = 0, multiplicity = 1:

       Center              X                  Y                   Z               Mass
    ------------   -----------------  -----------------  -----------------  -----------------
         O            2.308124241923    -1.332184053639     0.000372907877    15.994914619570
         O           -2.274917758077    -1.424073053639     0.000183907877    15.994914619570
         N            1.179573241923     0.691721946361     0.000369907877    14.003074004430
         N            0.012306241923    -1.309968053639     0.000280907877    14.003074004430
         C           -1.237711758077     0.730943946361     0.000289907877    12.000000000000
         C           -0.034962758077     1.355964946361     0.000349907877    12.000000000000
         C            1.257547241923    -0.694656053639     0.000345907877    12.000000000000
         C           -1.257330758077    -0.729293053639     0.000247907877    12.000000000000
         C            2.421304241923     1.460480946361     0.000438907877    12.000000000000
         C           -2.553513758077     1.442016946361     0.000257907877    12.000000000000
         H            0.048630241923     2.440190946361     0.000383907877     1.007825032230
         H            0.043143241923    -2.327331053639     0.000253907877     1.007825032230
         H            2.476978241923     2.087209946361     0.893829907877     1.007825032230
         H            2.508118541923     2.068505146361    -0.903385692123     1.007825032230
         H            3.255457841923     0.763196846361    -0.032695992123     1.007825032230
         H           -3.140587758077     1.161089946361    -0.878281092123     1.007825032230
         H           -2.413352758077     2.526728946361     0.000291907877     1.007825032230
         H           -3.140653758077     1.161043946361     0.878737907877     1.007825032230

  Basis Set: AUG-CC-PVTZ
    Blend: AUG-CC-PVTZ
  Basis Set: (AUG-CC-PVTZ AUX)
    Blend: AUG-CC-PVTZ-JKFIT
	 Reference Energy          =    -490.7116266379427998 [Eh]
	 Singles Energy            =      -0.0000000000000000 [Eh]
	 Same-Spin Energy          =      -0.5023655248065131 [Eh]
	 Opposite-Spin Energy      =      -1.5414389233898500 [Eh]
	 Correlation Energy        =      -2.0438044481963633 [Eh]
	 Total Energy              =    -492.7554310861391400 [Eh]

	 ================> DF-SCS-MP2 Energies <==================
	-----------------------------------------------------------
	 SCS Same-Spin Scale       =       0.3333333333333333 [-]
	 SCS Opposite-Spin Scale   =       1.2000000000000000 [-]
	 SCS Same-Spin Energy      =      -0.1674551749355044 [Eh]
	 SCS Opposite-Spin Energy  =      -1.8497267080678199 [Eh]
	 SCS Correlation Energy    =      -2.0171818830033241 [Eh]
	 SCS Total Energy          =    -492.7288085209461315 [Eh]
	-----------------------------------------------------------

  Dipole Moment: [D]
     X:     1.0664      Y:     4.5179      Z:    -0.0217     Total:     4.6421

*** Psi4 exiting successfully. Buy a developer a beer!
