                               Psi4 1.3.2 release

  ==> Input File <==

--------------------------------------------------------------------------
#psi4
#
memory 32 gb

molecule  {
0 1
  O        2.3111590    -1.3984000     0.0000580
  O       -2.2718830    -1.4902890    -0.0001310
  N        1.1826080     0.6255060     0.0000550
  N        0.0153410    -1.3761840    -0.0000340
  C       -1.2346770     0.6647280    -0.0000250
  C       -0.0319280     1.2897490     0.0000350
  C        1.2910784    -0.8268861     0.0000303
  C       -1.2542960    -0.7955090    -0.0000670
  C        2.4243390     1.3942650     0.0001240
  C       -2.5504790     1.3758010    -0.0000570
  H        0.0516650     2.3739750     0.0000690
  H        0.0993804    -2.3905389    -0.0000589
  H        2.4800130     2.0209940     0.8935150
  H        2.4798690     2.0213500    -0.8930780
  H        3.2466700     0.6823050    -0.0000520
  H       -3.1375530     1.0948740    -0.8785960
  H       -2.4103180     2.4605130    -0.0000230
  H       -3.1376190     1.0948280     0.8784230
units angstrom
no_reorient  #important for SAPT in psi4, default
symmetry c1  #important for SAPT in psi4, default
}

set PROPERTIES_ORIGIN ["COM"]
properties('MP2/aug-cc-pvtz', properties = ['dipole'])
--------------------------------------------------------------------------

    Molecular point group: c1
  Charge       = 0
  Multiplicity = 1
  Basis Set: AUG-CC-PVTZ
    Blend: AUG-CC-PVTZ
  Basis Set: (AUG-CC-PVTZ AUX)
    Blend: AUG-CC-PVTZ-JKFIT

    Orbital Energies [Eh]
    ---------------------

    Doubly Occupied:

       1A    -20.558833     2A    -20.536286     3A    -15.626660
       4A    -15.623018     5A    -11.415789     6A    -11.375828
       7A    -11.320528     8A    -11.280703     9A    -11.251747
      10A    -11.232822    11A     -1.458845    12A     -1.389407
      13A     -1.301550    14A     -1.240188    15A     -1.103080
      16A     -0.984320    17A     -0.951954    18A     -0.909796
      19A     -0.851270    20A     -0.762864    21A     -0.730012
      22A     -0.698185    23A     -0.678326    24A     -0.660169
      25A     -0.639963    26A     -0.614852    27A     -0.609260
      28A     -0.588652    29A     -0.582112    30A     -0.550962
      31A     -0.547935    32A     -0.544390    33A     -0.487197
      34A     -0.484621    35A     -0.445316    36A     -0.435204
      37A     -0.337964

  @DF-RHF Final Energy:  -490.70561584413525

   => Energetics <=

    Nuclear Repulsion Energy =            529.9616320134366561
    One-Electron Energy =               -1719.7132776425221437
    Two-Electron Energy =                 699.0460297849501785
    Total Energy =                       -490.7056158441353091
  Basis Set: (AUG-CC-PVTZ AUX)
    Blend: AUG-CC-PVTZ-RI
    Molecular point group: c1

    Geometry (in Angstrom), charge = 0, multiplicity = 1:

       Center              X                  Y                   Z               Mass
    ------------   -----------------  -----------------  -----------------  -----------------
         O            2.305438713451    -1.326581266837     0.000059351622    15.994914619570
         O           -2.277603286549    -1.418470266837    -0.000129648378    15.994914619570
         N            1.176887713451     0.697324733163     0.000056351622    14.003074004430
         N            0.009620713451    -1.304365266837    -0.000032648378    14.003074004430
         C           -1.240397286549     0.736546733163    -0.000023648378    12.000000000000
         C           -0.037648286549     1.361567733163     0.000036351622    12.000000000000
         C            1.285358113451    -0.755067366837     0.000031651622    12.000000000000
         C           -1.260016286549    -0.723690266837    -0.000065648378    12.000000000000
         C            2.418618713451     1.466083733163     0.000125351622    12.000000000000
         C           -2.556199286549     1.447619733163    -0.000055648378    12.000000000000
         H            0.045944713451     2.445793733163     0.000070351622     1.007825032230
         H            0.093660113451    -2.318720166837    -0.000057548378     1.007825032230
         H            2.474292713451     2.092812733163     0.893516351622     1.007825032230
         H            2.474148713451     2.093168733163    -0.893076648378     1.007825032230
         H            3.240949713451     0.754123733163    -0.000050648378     1.007825032230
         H           -3.143273286549     1.166692733163    -0.878594648378     1.007825032230
         H           -2.416038286549     2.532331733163    -0.000021648378     1.007825032230
         H           -3.143339286549     1.166646733163     0.878424351622     1.007825032230

  Basis Set: AUG-CC-PVTZ
    Blend: AUG-CC-PVTZ
  Basis Set: (AUG-CC-PVTZ AUX)
    Blend: AUG-CC-PVTZ-JKFIT
	 Reference Energy          =    -490.7056158441352522 [Eh]
	 Singles Energy            =      -0.0000000000000000 [Eh]
	 Same-Spin Energy          =      -0.5018583967053853 [Eh]
	 Opposite-Spin Energy      =      -1.5403558885795094 [Eh]
	 Correlation Energy        =      -2.0422142852848948 [Eh]
	 Total Energy              =    -492.7478301294201515 [Eh]

	 ================> DF-SCS-MP2 Energies <==================
	-----------------------------------------------------------
	 SCS Same-Spin Scale       =       0.3333333333333333 [-]
	 SCS Opposite-Spin Scale   =       1.2000000000000000 [-]
	 SCS Same-Spin Energy      =      -0.1672861322351284 [Eh]
	 SCS Opposite-Spin Energy  =      -1.8484270662954112 [Eh]
	 SCS Correlation Energy    =      -2.0157131985305394 [Eh]
	 SCS Total Energy          =    -492.7213290426657863 [Eh]
	-----------------------------------------------------------

  Dipole Moment: [D]
     X:     1.5539      Y:     3.9454      Z:     0.0002     Total:     4.2404

*** Psi4 exiting successfully. Buy a developer a beer!
