                               Psi4 1.3.2 release

  ==> Input File <==

--------------------------------------------------------------------------
#psi4
#
memory 32 gb

molecule  {
0 1
  O        2.3111590    -1.3984000     0.0000580
  O       -2.2718830    -1.4902890    -0.0001310
  N        1.1826080     0.6255060     0.0000550
  N        0.0153410    -1.3761840    -0.0000340
  C       -1.2346770     0.6647280    -0.0000250
  C       -0.0319280     1.2897490     0.0000350
  C        1.2605820    -0.7608720     0.0000310
  C       -1.2415524    -0.7956246    -0.0000665
  C        2.4243390     1.3942650     0.0001240
  C       -2.5442237     1.3872563    -0.0000564
  H        0.0516650     2.3739750     0.0000690
  H        0.0461780    -2.3935470    -0.0000610
  H        2.4800130     2.0209940     0.8935150
  H        2.4798690     2.0213500    -0.8930780
  H        3.2466700     0.6823050    -0.0000520
  H       -3.1375530     1.0948740    -0.8785960
  H       -2.4103180     2.4605130    -0.0000230
  H       -3.1376190     1.0948280     0.8784230
units angstrom
no_reorient  #important for SAPT in psi4, default
symmetry c1  #important for SAPT in psi4, default
}

set PROPERTIES_ORIGIN ["COM"]
properties('MP2/aug-cc-pvtz', properties = ['dipole'])
--------------------------------------------------------------------------

    Molecular point group: c1
  Charge       = 0
  Multiplicity = 1
  Basis Set: AUG-CC-PVTZ
    Blend: AUG-CC-PVTZ
  Basis Set: (AUG-CC-PVTZ AUX)
    Blend: AUG-CC-PVTZ-JKFIT

    Orbital Energies [Eh]
    ---------------------

    Doubly Occupied:

       1A    -20.541744     2A    -20.535996     3A    -15.638892
       4A    -15.626924     5A    -11.414953     6A    -11.376205
       7A    -11.324611     8A    -11.286468     9A    -11.260125
      10A    -11.237214    11A     -1.425137    12A     -1.381120
      13A     -1.307380    14A     -1.245560    15A     -1.109262
      16A     -0.993607    17A     -0.964424    18A     -0.915652
      19A     -0.854949    20A     -0.771198    21A     -0.737198
      22A     -0.692228    23A     -0.683149    24A     -0.648850
      25A     -0.637508    26A     -0.615778    27A     -0.608210
      28A     -0.589262    29A     -0.581844    30A     -0.557071
      31A     -0.549010    32A     -0.541053    33A     -0.488207
      34A     -0.475478    35A     -0.443630    36A     -0.430189
      37A     -0.345627

  @DF-RHF Final Energy:  -490.71089680925274

   => Energetics <=

    Nuclear Repulsion Energy =            530.4209995107256645
    One-Electron Energy =               -1720.5923695241265250
    Two-Electron Energy =                 699.4604732041482293
    Total Energy =                       -490.7108968092527448
  Basis Set: (AUG-CC-PVTZ AUX)
    Blend: AUG-CC-PVTZ-RI
    Molecular point group: c1

    Geometry (in Angstrom), charge = 0, multiplicity = 1:

       Center              X                  Y                   Z               Mass
    ------------   -----------------  -----------------  -----------------  -----------------
         O            2.306806631889    -1.333187174008     0.000059212512    15.994914619570
         O           -2.276235368111    -1.425076174008    -0.000129787488    15.994914619570
         N            1.178255631889     0.690718825992     0.000056212512    14.003074004430
         N            0.010988631889    -1.310971174008    -0.000032787488    14.003074004430
         C           -1.239029368111     0.729940825992    -0.000023787488    12.000000000000
         C           -0.036280368111     1.354961825992     0.000036212512    12.000000000000
         C            1.256229631889    -0.695659174008     0.000032212512    12.000000000000
         C           -1.245904768111    -0.730411774008    -0.000065287488    12.000000000000
         C            2.419986631889     1.459477825992     0.000125212512    12.000000000000
         C           -2.548576068111     1.452469125992    -0.000055187488    12.000000000000
         H            0.047312631889     2.439187825992     0.000070212512     1.007825032230
         H            0.041825631889    -2.328334174008    -0.000059787488     1.007825032230
         H            2.475660631889     2.086206825992     0.893516212512     1.007825032230
         H            2.475516631889     2.086562825992    -0.893076787488     1.007825032230
         H            3.242317631889     0.747517825992    -0.000050787488     1.007825032230
         H           -3.141905368111     1.160086825992    -0.878594787488     1.007825032230
         H           -2.414670368111     2.525725825992    -0.000021787488     1.007825032230
         H           -3.141971368111     1.160040825992     0.878424212512     1.007825032230

  Basis Set: AUG-CC-PVTZ
    Blend: AUG-CC-PVTZ
  Basis Set: (AUG-CC-PVTZ AUX)
    Blend: AUG-CC-PVTZ-JKFIT
	 Reference Energy          =    -490.7108968092527448 [Eh]
	 Singles Energy            =      -0.0000000000000000 [Eh]
	 Same-Spin Energy          =      -0.5026099143486578 [Eh]
	 Opposite-Spin Energy      =      -1.5418399658065793 [Eh]
	 Correlation Energy        =      -2.0444498801552369 [Eh]
	 Total Energy              =    -492.7553466894079861 [Eh]

	 ================> DF-SCS-MP2 Energies <==================
	-----------------------------------------------------------
	 SCS Same-Spin Scale       =       0.3333333333333333 [-]
	 SCS Opposite-Spin Scale   =       1.2000000000000000 [-]
	 SCS Same-Spin Energy      =      -0.1675366381162192 [Eh]
	 SCS Opposite-Spin Energy  =      -1.8502079589678950 [Eh]
	 SCS Correlation Energy    =      -2.0177445970841141 [Eh]
	 SCS Total Energy          =    -492.7286414063368625 [Eh]
	-----------------------------------------------------------

  Dipole Moment: [D]
     X:     1.1493      Y:     4.5439      Z:     0.0002     Total:     4.6870

*** Psi4 exiting successfully. Buy a developer a beer!
