                               Psi4 1.3.2 release

  ==> Input File <==

--------------------------------------------------------------------------
#psi4
#
memory 32 gb

molecule  {
0 1
  O        2.3111590    -1.3984000     0.0000580
  O       -2.2718830    -1.4902890    -0.0001310
  N        1.1826080     0.6255060     0.0000550
  N        0.0153410    -1.3761840    -0.0000340
  C       -1.2346770     0.6647280    -0.0000250
  C       -0.0319280     1.2897490     0.0000350
  C        1.2605820    -0.7608720     0.0000310
  C       -1.2529526    -0.6955180    -0.0000641
  C        2.4243390     1.3942650     0.0001240
  C       -2.5504790     1.3758010    -0.0000570
  H        0.0516650     2.3739750     0.0000690
  H        0.0461780    -2.3935470    -0.0000610
  H        2.4800130     2.0209940     0.8935150
  H        2.4798690     2.0213500    -0.8930780
  H        3.2466700     0.6823050    -0.0000520
  H       -3.1375530     1.0948740    -0.8785960
  H       -2.4103180     2.4605130    -0.0000230
  H       -3.1376190     1.0948280     0.8784230
units angstrom
no_reorient  #important for SAPT in psi4, default
symmetry c1  #important for SAPT in psi4, default
}

set PROPERTIES_ORIGIN ["COM"]
properties('MP2/aug-cc-pvtz', properties = ['dipole'])
--------------------------------------------------------------------------

    Molecular point group: c1
  Charge       = 0
  Multiplicity = 1
  Basis Set: AUG-CC-PVTZ
    Blend: AUG-CC-PVTZ
  Basis Set: (AUG-CC-PVTZ AUX)
    Blend: AUG-CC-PVTZ-JKFIT

    Orbital Energies [Eh]
    ---------------------

    Doubly Occupied:

       1A    -20.539262     2A    -20.527003     3A    -15.646858
       4A    -15.622245     5A    -11.411193     6A    -11.374772
       7A    -11.341872     8A    -11.290691     9A    -11.257129
      10A    -11.240229    11A     -1.421953    12A     -1.351988
      13A     -1.309282    14A     -1.227364    15A     -1.128702
      16A     -0.997930    17A     -0.966733    18A     -0.932960
      19A     -0.843572    20A     -0.776504    21A     -0.740248
      22A     -0.697611    23A     -0.685183    24A     -0.644683
      25A     -0.635858    26A     -0.614323    27A     -0.603238
      28A     -0.587908    29A     -0.586674    30A     -0.558060
      31A     -0.551790    32A     -0.528965    33A     -0.492570
      34A     -0.474838    35A     -0.435892    36A     -0.419586
      37A     -0.352812

  @DF-RHF Final Energy:  -490.69088788938416

   => Energetics <=

    Nuclear Repulsion Energy =            530.6901662926140943
    One-Electron Energy =               -1721.1251479327224843
    Two-Electron Energy =                 699.7440937507242325
    Total Energy =                       -490.6908878893841575
  Basis Set: (AUG-CC-PVTZ AUX)
    Blend: AUG-CC-PVTZ-RI
    Molecular point group: c1

    Geometry (in Angstrom), charge = 0, multiplicity = 1:

       Center              X                  Y                   Z               Mass
    ------------   -----------------  -----------------  -----------------  -----------------
         O            2.308319327532    -1.340782678824     0.000059058291    15.994914619570
         O           -2.274722672468    -1.432671678824    -0.000129941709    15.994914619570
         N            1.179768327532     0.683123321176     0.000056058291    14.003074004430
         N            0.012501327532    -1.318566678824    -0.000032941709    14.003074004430
         C           -1.237516672468     0.722345321176    -0.000023941709    12.000000000000
         C           -0.034767672468     1.347366321176     0.000036058291    12.000000000000
         C            1.257742327532    -0.703254678824     0.000032058291    12.000000000000
         C           -1.255792272468    -0.637900678824    -0.000063041709    12.000000000000
         C            2.421499327532     1.451882321176     0.000125058291    12.000000000000
         C           -2.553318672468     1.433418321176    -0.000055941709    12.000000000000
         H            0.048825327532     2.431592321176     0.000070058291     1.007825032230
         H            0.043338327532    -2.335929678824    -0.000059941709     1.007825032230
         H            2.477173327532     2.078611321176     0.893516058291     1.007825032230
         H            2.477029327532     2.078967321176    -0.893076941709     1.007825032230
         H            3.243830327532     0.739922321176    -0.000050941709     1.007825032230
         H           -3.140392672468     1.152491321176    -0.878594941709     1.007825032230
         H           -2.413157672468     2.518130321176    -0.000021941709     1.007825032230
         H           -3.140458672468     1.152445321176     0.878424058291     1.007825032230

  Basis Set: AUG-CC-PVTZ
    Blend: AUG-CC-PVTZ
  Basis Set: (AUG-CC-PVTZ AUX)
    Blend: AUG-CC-PVTZ-JKFIT
	 Reference Energy          =    -490.6908878893841575 [Eh]
	 Singles Energy            =      -0.0000000000000000 [Eh]
	 Same-Spin Energy          =      -0.5051044976159066 [Eh]
	 Opposite-Spin Energy      =      -1.5459135391576713 [Eh]
	 Correlation Energy        =      -2.0510180367735780 [Eh]
	 Total Energy              =    -492.7419059261577559 [Eh]

	 ================> DF-SCS-MP2 Energies <==================
	-----------------------------------------------------------
	 SCS Same-Spin Scale       =       0.3333333333333333 [-]
	 SCS Opposite-Spin Scale   =       1.2000000000000000 [-]
	 SCS Same-Spin Energy      =      -0.1683681658719688 [Eh]
	 SCS Opposite-Spin Energy  =      -1.8550962469892054 [Eh]
	 SCS Correlation Energy    =      -2.0234644128611743 [Eh]
	 SCS Total Energy          =    -492.7143523022453451 [Eh]
	-----------------------------------------------------------

  Dipole Moment: [D]
     X:     1.2827      Y:     5.0880      Z:     0.0002     Total:     5.2472

*** Psi4 exiting successfully. Buy a developer a beer!
