                               Psi4 1.3.2 release

  ==> Input File <==

--------------------------------------------------------------------------
#psi4
#
memory 32 gb

molecule  {
0 1
  O        2.3111590    -1.3984000     0.0000580
  O       -2.2718830    -1.4902890    -0.0001310
  N        1.1826080     0.6255060     0.0000550
  N        0.0153410    -1.3761840    -0.0000340
  C       -1.2346770     0.6647280    -0.0000250
  C       -0.0265195     1.2792294     0.0000349
  C        1.2605820    -0.7608720     0.0000310
  C       -1.2542960    -0.7955090    -0.0000670
  C        2.4243390     1.3942650     0.0001240
  C       -2.5566341     1.3642915    -0.0000575
  H        0.0516650     2.3739750     0.0000690
  H        0.0461780    -2.3935470    -0.0000610
  H        2.4800130     2.0209940     0.8935150
  H        2.4798690     2.0213500    -0.8930780
  H        3.2466700     0.6823050    -0.0000520
  H       -3.1375530     1.0948740    -0.8785960
  H       -2.4103180     2.4605130    -0.0000230
  H       -3.1376190     1.0948280     0.8784230
units angstrom
no_reorient  #important for SAPT in psi4, default
symmetry c1  #important for SAPT in psi4, default
}

set PROPERTIES_ORIGIN ["COM"]
properties('MP2/aug-cc-pvtz', properties = ['dipole'])
--------------------------------------------------------------------------

    Molecular point group: c1
  Charge       = 0
  Multiplicity = 1
  Basis Set: AUG-CC-PVTZ
    Blend: AUG-CC-PVTZ
  Basis Set: (AUG-CC-PVTZ AUX)
    Blend: AUG-CC-PVTZ-JKFIT

    Orbital Energies [Eh]
    ---------------------

    Doubly Occupied:

       1A    -20.541047     2A    -20.537678     3A    -15.639224
       4A    -15.624555     5A    -11.414138     6A    -11.375129
       7A    -11.325341     8A    -11.286841     9A    -11.258627
      10A    -11.236970    11A     -1.424840    12A     -1.386519
      13A     -1.309389    14A     -1.243393    15A     -1.108414
      16A     -0.994565    17A     -0.964112    18A     -0.913629
      19A     -0.853659    20A     -0.771392    21A     -0.734733
      22A     -0.690591    23A     -0.683445    24A     -0.650297
      25A     -0.637297    26A     -0.616213    27A     -0.607682
      28A     -0.589202    29A     -0.586131    30A     -0.556580
      31A     -0.544523    32A     -0.543652    33A     -0.490077
      34A     -0.475172    35A     -0.443611    36A     -0.430532
      37A     -0.345609

  @DF-RHF Final Energy:  -490.71175432189170

   => Energetics <=

    Nuclear Repulsion Energy =            530.6163417850291353
    One-Electron Energy =               -1720.9865747470573751
    Two-Electron Energy =                 699.6584786401365363
    Total Energy =                       -490.7117543218917035
  Basis Set: (AUG-CC-PVTZ AUX)
    Blend: AUG-CC-PVTZ-RI
    Molecular point group: c1

    Geometry (in Angstrom), charge = 0, multiplicity = 1:

       Center              X                  Y                   Z               Mass
    ------------   -----------------  -----------------  -----------------  -----------------
         O            2.308498395465    -1.330328187382     0.000059358165    15.994914619570
         O           -2.274543604535    -1.422217187382    -0.000129641835    15.994914619570
         N            1.179947395465     0.693577812618     0.000056358165    14.003074004430
         N            0.012680395465    -1.308112187382    -0.000032641835    14.003074004430
         C           -1.237337604535     0.732799812618    -0.000023641835    12.000000000000
         C           -0.029180104535     1.347301212618     0.000036258165    12.000000000000
         C            1.257921395465    -0.692800187382     0.000032358165    12.000000000000
         C           -1.256956604535    -0.727437187382    -0.000065641835    12.000000000000
         C            2.421678395465     1.462336812618     0.000125358165    12.000000000000
         C           -2.559294704535     1.432363312618    -0.000056141835    12.000000000000
         H            0.049004395465     2.442046812618     0.000070358165     1.007825032230
         H            0.043517395465    -2.325475187382    -0.000059641835     1.007825032230
         H            2.477352395465     2.089065812618     0.893516358165     1.007825032230
         H            2.477208395465     2.089421812618    -0.893076641835     1.007825032230
         H            3.244009395465     0.750376812618    -0.000050641835     1.007825032230
         H           -3.140213604535     1.162945812618    -0.878594641835     1.007825032230
         H           -2.412978604535     2.528584812618    -0.000021641835     1.007825032230
         H           -3.140279604535     1.162899812618     0.878424358165     1.007825032230

  Basis Set: AUG-CC-PVTZ
    Blend: AUG-CC-PVTZ
  Basis Set: (AUG-CC-PVTZ AUX)
    Blend: AUG-CC-PVTZ-JKFIT
	 Reference Energy          =    -490.7117543218917035 [Eh]
	 Singles Energy            =      -0.0000000000000000 [Eh]
	 Same-Spin Energy          =      -0.5024573712327248 [Eh]
	 Opposite-Spin Energy      =      -1.5414221932056251 [Eh]
	 Correlation Energy        =      -2.0438795644383498 [Eh]
	 Total Energy              =    -492.7556338863300311 [Eh]

	 ================> DF-SCS-MP2 Energies <==================
	-----------------------------------------------------------
	 SCS Same-Spin Scale       =       0.3333333333333333 [-]
	 SCS Opposite-Spin Scale   =       1.2000000000000000 [-]
	 SCS Same-Spin Energy      =      -0.1674857904109083 [Eh]
	 SCS Opposite-Spin Energy  =      -1.8497066318467501 [Eh]
	 SCS Correlation Energy    =      -2.0171924222576583 [Eh]
	 SCS Total Energy          =    -492.7289467441493684 [Eh]
	-----------------------------------------------------------

  Dipole Moment: [D]
     X:     1.1020      Y:     4.5109      Z:     0.0002     Total:     4.6436

*** Psi4 exiting successfully. Buy a developer a beer!
