                               Psi4 1.4a3.dev225

  ==> Input File <==

--------------------------------------------------------------------------
#psi4
#
memory 32 gb

molecule  {
0 1
  O        2.3212770    -1.3580180     0.0000020
  O       -2.2717460    -1.4962290     0.0000010
  N        1.1724310     0.6334210    -0.0000020
  N        0.0162060    -1.3769820    -0.0000020
  C       -1.2398930     0.6613320     0.0000000
  C       -0.0398910     1.2934770    -0.0000010
  C        1.2092411    -0.7279695    -0.0000011
  C       -1.2589250    -0.7964470     0.0000000
  C        2.4447950     1.3519700     0.0000010
  C       -2.5550880     1.3760200     0.0000010
  H        0.0310140     2.3780990    -0.0000010
  H        0.0457120    -2.3937650    -0.0000010
  H        2.2343430     2.4214070    -0.0000200
  H        3.0241620     1.0875710    -0.8862110
  H        3.0241420     1.0876020     0.8862360
  H       -3.1432670     1.0977880    -0.8790540
  H       -2.4120010     2.4600010     0.0000010
  H       -3.1432670     1.0977870     0.8790540
units angstrom
no_reorient  #important for SAPT in psi4, default
symmetry c1  #important for SAPT in psi4, default
}

set PROPERTIES_ORIGIN ["COM"]
properties('MP2/aug-cc-pvtz', properties = ['dipole'])
--------------------------------------------------------------------------

    Molecular point group: c1
  Charge       = 0
  Multiplicity = 1
  Basis Set: AUG-CC-PVTZ
    Blend: AUG-CC-PVTZ
  Basis Set: (AUG-CC-PVTZ AUX)
    Blend: AUG-CC-PVTZ-JKFIT

    Orbital Energies [Eh]
    ---------------------

    Doubly Occupied:

       1A    -20.541759     2A    -20.527412     3A    -15.643826
       4A    -15.630508     5A    -11.409242     6A    -11.379077
       7A    -11.329133     8A    -11.290784     9A    -11.261743
      10A    -11.239342    11A     -1.416209    12A     -1.382578
      13A     -1.297080    14A     -1.252140    15A     -1.111978
      16A     -0.998570    17A     -0.967841    18A     -0.919873
      19A     -0.858592    20A     -0.776565    21A     -0.742132
      22A     -0.694447    23A     -0.686041    24A     -0.654389
      25A     -0.617731    26A     -0.615711    27A     -0.611374
      28A     -0.593975    29A     -0.581566    30A     -0.559641
      31A     -0.550635    32A     -0.536860    33A     -0.489409
      34A     -0.465908    35A     -0.443328    36A     -0.427439
      37A     -0.347413

  @DF-RHF Final Energy:  -490.70646590334411

   => Energetics <=

    Nuclear Repulsion Energy =            531.1170999784810647
    One-Electron Energy =               -1721.9426257441893995
    Two-Electron Energy =                 700.1190598623642245
    Total Energy =                       -490.7064659033441103
  Basis Set: (AUG-CC-PVTZ AUX)
    Blend: AUG-CC-PVTZ-RI
    Molecular point group: c1

    Geometry (in Angstrom), charge = 0, multiplicity = 1:

       Center              X                  Y                   Z               Mass
    ------------   -----------------  -----------------  -----------------  -----------------
         O            2.322577389918    -1.294785736016     0.000002037101    15.994914619570
         O           -2.270445610082    -1.432996736016     0.000001037101    15.994914619570
         N            1.173731389918     0.696653263984    -0.000001962899    14.003074004430
         N            0.017506389918    -1.313749736016    -0.000001962899    14.003074004430
         C           -1.238592610082     0.724564263984     0.000000037101    12.000000000000
         C           -0.038590610082     1.356709263984    -0.000000962899    12.000000000000
         C            1.210541489918    -0.664737236016    -0.000001062899    12.000000000000
         C           -1.257624610082    -0.733214736016     0.000000037101    12.000000000000
         C            2.446095389918     1.415202263984     0.000001037101    12.000000000000
         C           -2.553787610082     1.439252263984     0.000001037101    12.000000000000
         H            0.032314389918     2.441331263984    -0.000000962899     1.007825032230
         H            0.047012389918    -2.330532736016    -0.000000962899     1.007825032230
         H            2.235643389918     2.484639263984    -0.000019962899     1.007825032230
         H            3.025462389918     1.150803263984    -0.886210962899     1.007825032230
         H            3.025442389918     1.150834263984     0.886236037101     1.007825032230
         H           -3.141966610082     1.161020263984    -0.879053962899     1.007825032230
         H           -2.410700610082     2.523233263984     0.000001037101     1.007825032230
         H           -3.141966610082     1.161019263984     0.879054037101     1.007825032230

  Basis Set: AUG-CC-PVTZ
    Blend: AUG-CC-PVTZ
  Basis Set: (AUG-CC-PVTZ AUX)
    Blend: AUG-CC-PVTZ-JKFIT
	 Reference Energy          =    -490.7064659033441103 [Eh]
	 Singles Energy            =      -0.0000000000000000 [Eh]
	 Same-Spin Energy          =      -0.5030378178088080 [Eh]
	 Opposite-Spin Energy      =      -1.5425296500352377 [Eh]
	 Correlation Energy        =      -2.0455674678440454 [Eh]
	 Total Energy              =    -492.7520333711881335 [Eh]

	 ================> DF-SCS-MP2 Energies <==================
	-----------------------------------------------------------
	 SCS Same-Spin Scale       =       0.3333333333333333 [-]
	 SCS Opposite-Spin Scale   =       1.2000000000000000 [-]
	 SCS Same-Spin Energy      =      -0.1676792726029360 [Eh]
	 SCS Opposite-Spin Energy  =      -1.8510355800422851 [Eh]
	 SCS Correlation Energy    =      -2.0187148526452212 [Eh]
	 SCS Total Energy          =    -492.7251807559893564 [Eh]
	-----------------------------------------------------------

  Dipole Moment: [D]
     X:     0.6505      Y:     4.7654      Z:    -0.0000     Total:     4.8096

*** Psi4 exiting successfully. Buy a developer a beer!
