                               Psi4 1.3.2 release

  ==> Input File <==

--------------------------------------------------------------------------
#psi4
#
memory 32 gb

molecule  {
0 1
  O        2.3111590    -1.3984000     0.0000580
  O       -2.2718830    -1.4902890    -0.0001310
  N        1.1826080     0.6255060     0.0000550
  N        0.0153410    -1.3761840    -0.0000340
  C       -1.2346770     0.6647280    -0.0000250
  C       -0.0319280     1.2897490     0.0000350
  C        1.2605820    -0.7608720     0.0000310
  C       -1.2542960    -0.7955090    -0.0000670
  C        2.4243390     1.3942650     0.0001240
  C       -2.5504790     1.3758010    -0.0000570
  H        0.0516650     2.3739750     0.0000690
  H        0.0461780    -2.3935470    -0.0000610
  H        2.4800130     2.0209940     0.8935150
  H        2.4798690     2.0213500    -0.8930780
  H        3.2466700     0.6823050    -0.0000520
  H       -3.1339883     1.0403104    -0.8616657
  H       -2.3805350     2.4551517     0.0485882
  H       -3.1376190     1.0948280     0.8784230
units angstrom
no_reorient  #important for SAPT in psi4, default
symmetry c1  #important for SAPT in psi4, default
}

set PROPERTIES_ORIGIN ["COM"]
properties('MP2/aug-cc-pvtz', properties = ['dipole'])
--------------------------------------------------------------------------

    Molecular point group: c1
  Charge       = 0
  Multiplicity = 1
  Basis Set: AUG-CC-PVTZ
    Blend: AUG-CC-PVTZ
  Basis Set: (AUG-CC-PVTZ AUX)
    Blend: AUG-CC-PVTZ-JKFIT

    Orbital Energies [Eh]
    ---------------------

    Doubly Occupied:

       1A    -20.540367     2A    -20.538841     3A    -15.637980
       4A    -15.624586     5A    -11.413583     6A    -11.376212
       7A    -11.324526     8A    -11.285854     9A    -11.259210
      10A    -11.237394    11A     -1.424005    12A     -1.387222
      13A     -1.306620    14A     -1.242879    15A     -1.109366
      16A     -0.993200    17A     -0.963974    18A     -0.914111
      19A     -0.852406    20A     -0.771013    21A     -0.734292
      22A     -0.692175    23A     -0.682057    24A     -0.649434
      25A     -0.637607    26A     -0.615877    27A     -0.611473
      28A     -0.588383    29A     -0.582971    30A     -0.553638
      31A     -0.552771    32A     -0.541652    33A     -0.487559
      34A     -0.475219    35A     -0.444411    36A     -0.430637
      37A     -0.345408

  @DF-RHF Final Energy:  -490.71091355954735

   => Energetics <=

    Nuclear Repulsion Energy =            530.5122869260693506
    One-Electron Energy =               -1720.7885793047537391
    Two-Electron Energy =                 699.5653788191370950
    Total Energy =                       -490.7109135595474072
  Basis Set: (AUG-CC-PVTZ AUX)
    Blend: AUG-CC-PVTZ-RI
    Molecular point group: c1

    Geometry (in Angstrom), charge = 0, multiplicity = 1:

       Center              X                  Y                   Z               Mass
    ------------   -----------------  -----------------  -----------------  -----------------
         O            2.308194466583    -1.331784402269    -0.000412312799    15.994914619570
         O           -2.274847533417    -1.423673402269    -0.000601312799    15.994914619570
         N            1.179643466583     0.692121597731    -0.000415312799    14.003074004430
         N            0.012376466583    -1.309568402269    -0.000504312799    14.003074004430
         C           -1.237641533417     0.731343597731    -0.000495312799    12.000000000000
         C           -0.034892533417     1.356364597731    -0.000435312799    12.000000000000
         C            1.257617466583    -0.694256402269    -0.000439312799    12.000000000000
         C           -1.257260533417    -0.728893402269    -0.000537312799    12.000000000000
         C            2.421374466583     1.460880597731    -0.000346312799    12.000000000000
         C           -2.553443533417     1.442416597731    -0.000527312799    12.000000000000
         H            0.048700466583     2.440590597731    -0.000401312799     1.007825032230
         H            0.043213466583    -2.326931402269    -0.000531312799     1.007825032230
         H            2.477048466583     2.087609597731     0.893044687201     1.007825032230
         H            2.476904466583     2.087965597731    -0.893548312799     1.007825032230
         H            3.243705466583     0.748920597731    -0.000522312799     1.007825032230
         H           -3.136952833417     1.106925997731    -0.862136012799     1.007825032230
         H           -2.383499533417     2.521767297731     0.048117887201     1.007825032230
         H           -3.140583533417     1.161443597731     0.877952687201     1.007825032230

  Basis Set: AUG-CC-PVTZ
    Blend: AUG-CC-PVTZ
  Basis Set: (AUG-CC-PVTZ AUX)
    Blend: AUG-CC-PVTZ-JKFIT
	 Reference Energy          =    -490.7109135595473504 [Eh]
	 Singles Energy            =      -0.0000000000000000 [Eh]
	 Same-Spin Energy          =      -0.5025062874874102 [Eh]
	 Opposite-Spin Energy      =      -1.5416076265363061 [Eh]
	 Correlation Energy        =      -2.0441139140237166 [Eh]
	 Total Energy              =    -492.7550274735710900 [Eh]

	 ================> DF-SCS-MP2 Energies <==================
	-----------------------------------------------------------
	 SCS Same-Spin Scale       =       0.3333333333333333 [-]
	 SCS Opposite-Spin Scale   =       1.2000000000000000 [-]
	 SCS Same-Spin Energy      =      -0.1675020958291367 [Eh]
	 SCS Opposite-Spin Energy  =      -1.8499291518435672 [Eh]
	 SCS Correlation Energy    =      -2.0174312476727039 [Eh]
	 SCS Total Energy          =    -492.7283448072200827 [Eh]
	-----------------------------------------------------------

  Dipole Moment: [D]
     X:     1.0408      Y:     4.5002      Z:     0.0286     Total:     4.6191

*** Psi4 exiting successfully. Buy a developer a beer!
