                               Psi4 1.3.2 release

  ==> Input File <==

--------------------------------------------------------------------------
#psi4
#
memory 32 gb

molecule  {
0 1
  O        2.3111590    -1.3984000     0.0000580
  O       -2.2596024    -1.5079425    -0.0001310
  N        1.1826080     0.6255060     0.0000550
  N        0.0153410    -1.3761840    -0.0000340
  C       -1.2091953     0.6641632    -0.0000239
  C       -0.0319280     1.2897490     0.0000350
  C        1.2605820    -0.7608720     0.0000310
  C       -1.2542960    -0.7955090    -0.0000670
  C        2.4243390     1.3942650     0.0001240
  C       -2.5504790     1.3758010    -0.0000570
  H        0.0516650     2.3739750     0.0000690
  H        0.0461780    -2.3935470    -0.0000610
  H        2.4800130     2.0209940     0.8935150
  H        2.4798690     2.0213500    -0.8930780
  H        3.2466700     0.6823050    -0.0000520
  H       -3.1375530     1.0948740    -0.8785960
  H       -2.4103180     2.4605130    -0.0000230
  H       -3.1376190     1.0948280     0.8784230
units angstrom
no_reorient  #important for SAPT in psi4, default
symmetry c1  #important for SAPT in psi4, default
}

set PROPERTIES_ORIGIN ["COM"]
properties('MP2/aug-cc-pvtz', properties = ['dipole'])
--------------------------------------------------------------------------

    Molecular point group: c1
  Charge       = 0
  Multiplicity = 1
  Basis Set: AUG-CC-PVTZ
    Blend: AUG-CC-PVTZ
  Basis Set: (AUG-CC-PVTZ AUX)
    Blend: AUG-CC-PVTZ-JKFIT

    Orbital Energies [Eh]
    ---------------------

    Doubly Occupied:

       1A    -20.539984     2A    -20.539703     3A    -15.636735
       4A    -15.623189     5A    -11.412807     6A    -11.377266
       7A    -11.322473     8A    -11.285388     9A    -11.258757
      10A    -11.238927    11A     -1.423738    12A     -1.387714
      13A     -1.306835    14A     -1.241932    15A     -1.111031
      16A     -0.992154    17A     -0.962583    18A     -0.914821
      19A     -0.853765    20A     -0.772443    21A     -0.733399
      22A     -0.693820    23A     -0.682011    24A     -0.649396
      25A     -0.637797    26A     -0.615244    27A     -0.610161
      28A     -0.587169    29A     -0.582907    30A     -0.550738
      31A     -0.549409    32A     -0.543501    33A     -0.489556
      34A     -0.475372    35A     -0.444748    36A     -0.429885
      37A     -0.350026

  @DF-RHF Final Energy:  -490.71198224461909

   => Energetics <=

    Nuclear Repulsion Energy =            530.6055790695684209
    One-Electron Energy =               -1720.9803573950337068
    Two-Electron Energy =                 699.6627960808461921
    Total Energy =                       -490.7119822446190938
  Basis Set: (AUG-CC-PVTZ AUX)
    Blend: AUG-CC-PVTZ-RI
    Molecular point group: c1

    Geometry (in Angstrom), charge = 0, multiplicity = 1:

       Center              X                  Y                   Z               Mass
    ------------   -----------------  -----------------  -----------------  -----------------
         O            2.304848731463    -1.330151156987     0.000059212512    15.994914619570
         O           -2.265912668537    -1.439693656987    -0.000129787488    15.994914619570
         N            1.176297731463     0.693754843013     0.000056212512    14.003074004430
         N            0.009030731463    -1.307935156987    -0.000032787488    14.003074004430
         C           -1.215505568537     0.732412043013    -0.000022687488    12.000000000000
         C           -0.038238268537     1.357997843013     0.000036212512    12.000000000000
         C            1.254271731463    -0.692623156987     0.000032212512    12.000000000000
         C           -1.260606268537    -0.727260156987    -0.000065787488    12.000000000000
         C            2.418028731463     1.462513843013     0.000125212512    12.000000000000
         C           -2.556789268537     1.444049843013    -0.000055787488    12.000000000000
         H            0.045354731463     2.442223843013     0.000070212512     1.007825032230
         H            0.039867731463    -2.325298156987    -0.000059787488     1.007825032230
         H            2.473702731463     2.089242843013     0.893516212512     1.007825032230
         H            2.473558731463     2.089598843013    -0.893076787488     1.007825032230
         H            3.240359731463     0.750553843013    -0.000050787488     1.007825032230
         H           -3.143863268537     1.163122843013    -0.878594787488     1.007825032230
         H           -2.416628268537     2.528761843013    -0.000021787488     1.007825032230
         H           -3.143929268537     1.163076843013     0.878424212512     1.007825032230

  Basis Set: AUG-CC-PVTZ
    Blend: AUG-CC-PVTZ
  Basis Set: (AUG-CC-PVTZ AUX)
    Blend: AUG-CC-PVTZ-JKFIT
	 Reference Energy          =    -490.7119822446190938 [Eh]
	 Singles Energy            =      -0.0000000000000000 [Eh]
	 Same-Spin Energy          =      -0.5020032867522299 [Eh]
	 Opposite-Spin Energy      =      -1.5408988890355391 [Eh]
	 Correlation Energy        =      -2.0429021757877690 [Eh]
	 Total Energy              =    -492.7548844204068814 [Eh]

	 ================> DF-SCS-MP2 Energies <==================
	-----------------------------------------------------------
	 SCS Same-Spin Scale       =       0.3333333333333333 [-]
	 SCS Opposite-Spin Scale   =       1.2000000000000000 [-]
	 SCS Same-Spin Energy      =      -0.1673344289174100 [Eh]
	 SCS Opposite-Spin Energy  =      -1.8490786668426469 [Eh]
	 SCS Correlation Energy    =      -2.0164130957600568 [Eh]
	 SCS Total Energy          =    -492.7283953403791656 [Eh]
	-----------------------------------------------------------

  Dipole Moment: [D]
     X:     1.0049      Y:     4.5491      Z:     0.0002     Total:     4.6588

*** Psi4 exiting successfully. Buy a developer a beer!
