                               Psi4 1.4a3.dev225

  ==> Input File <==

--------------------------------------------------------------------------
#psi4
#
memory 32 gb

molecule  {
0 1
  O        2.3212770    -1.3580180     0.0000020
  O       -2.2717460    -1.4962290     0.0000010
  N        1.1724310     0.6334210    -0.0000020
  N        0.0162060    -1.3769820    -0.0000020
  C       -1.2398930     0.6613320     0.0000000
  C       -0.0398910     1.2934770    -0.0000010
  C        1.2498516    -0.7027007    -0.0000010
  C       -1.2589250    -0.7964470     0.0000000
  C        2.4447950     1.3519700     0.0000010
  C       -2.5550880     1.3760200     0.0000010
  H        0.0310140     2.3780990    -0.0000010
  H        0.0457120    -2.3937650    -0.0000010
  H        2.2343430     2.4214070    -0.0000200
  H        3.0241620     1.0875710    -0.8862110
  H        3.0241420     1.0876020     0.8862360
  H       -3.1432670     1.0977880    -0.8790540
  H       -2.4120010     2.4600010     0.0000010
  H       -3.1432670     1.0977870     0.8790540
units angstrom
no_reorient  #important for SAPT in psi4, default
symmetry c1  #important for SAPT in psi4, default
}

set PROPERTIES_ORIGIN ["COM"]
properties('MP2/aug-cc-pvtz', properties = ['dipole'])
--------------------------------------------------------------------------

    Molecular point group: c1
  Charge       = 0
  Multiplicity = 1
  Basis Set: AUG-CC-PVTZ
    Blend: AUG-CC-PVTZ
  Basis Set: (AUG-CC-PVTZ AUX)
    Blend: AUG-CC-PVTZ-JKFIT

    Orbital Energies [Eh]
    ---------------------

    Doubly Occupied:

       1A    -20.537577     2A    -20.532756     3A    -15.644970
       4A    -15.622902     5A    -11.409398     6A    -11.374815
       7A    -11.328766     8A    -11.292327     9A    -11.262703
      10A    -11.239131    11A     -1.417730    12A     -1.383968
      13A     -1.308238    14A     -1.238412    15A     -1.112528
      16A     -1.000098    17A     -0.971855    18A     -0.916139
      19A     -0.848986    20A     -0.776040    21A     -0.735867
      22A     -0.694924    23A     -0.688181    24A     -0.651688
      25A     -0.625987    26A     -0.613010    27A     -0.609222
      28A     -0.595651    29A     -0.580042    30A     -0.561026
      31A     -0.549978    32A     -0.539149    33A     -0.490502
      34A     -0.470507    35A     -0.440828    36A     -0.425349
      37A     -0.349223

  @DF-RHF Final Energy:  -490.70815548748925

   => Energetics <=

    Nuclear Repulsion Energy =            531.0520477905378129
    One-Electron Energy =               -1721.8394601678683102
    Two-Electron Energy =                 700.0792568898411901
    Total Energy =                       -490.7081554874891935
  Basis Set: (AUG-CC-PVTZ AUX)
    Blend: AUG-CC-PVTZ-RI
    Molecular point group: c1

    Geometry (in Angstrom), charge = 0, multiplicity = 1:

       Center              X                  Y                   Z               Mass
    ------------   -----------------  -----------------  -----------------  -----------------
         O            2.319097945755    -1.296950727304     0.000002028533    15.994914619570
         O           -2.273925054245    -1.435161727304     0.000001028533    15.994914619570
         N            1.170251945755     0.694488272696    -0.000001971467    14.003074004430
         N            0.014026945755    -1.315914727304    -0.000001971467    14.003074004430
         C           -1.242072054245     0.722399272696     0.000000028533    12.000000000000
         C           -0.042070054245     1.354544272696    -0.000000971467    12.000000000000
         C            1.247672545755    -0.641633427304    -0.000000971467    12.000000000000
         C           -1.261104054245    -0.735379727304     0.000000028533    12.000000000000
         C            2.442615945755     1.413037272696     0.000001028533    12.000000000000
         C           -2.557267054245     1.437087272696     0.000001028533    12.000000000000
         H            0.028834945755     2.439166272696    -0.000000971467     1.007825032230
         H            0.043532945755    -2.332697727304    -0.000000971467     1.007825032230
         H            2.232163945755     2.482474272696    -0.000019971467     1.007825032230
         H            3.021982945755     1.148638272696    -0.886210971467     1.007825032230
         H            3.021962945755     1.148669272696     0.886236028533     1.007825032230
         H           -3.145446054245     1.158855272696    -0.879053971467     1.007825032230
         H           -2.414180054245     2.521068272696     0.000001028533     1.007825032230
         H           -3.145446054245     1.158854272696     0.879054028533     1.007825032230

  Basis Set: AUG-CC-PVTZ
    Blend: AUG-CC-PVTZ
  Basis Set: (AUG-CC-PVTZ AUX)
    Blend: AUG-CC-PVTZ-JKFIT
	 Reference Energy          =    -490.7081554874892504 [Eh]
	 Singles Energy            =      -0.0000000000000000 [Eh]
	 Same-Spin Energy          =      -0.5026944968248208 [Eh]
	 Opposite-Spin Energy      =      -1.5421431577289877 [Eh]
	 Correlation Energy        =      -2.0448376545538087 [Eh]
	 Total Energy              =    -492.7529931420430671 [Eh]

	 ================> DF-SCS-MP2 Energies <==================
	-----------------------------------------------------------
	 SCS Same-Spin Scale       =       0.3333333333333333 [-]
	 SCS Opposite-Spin Scale   =       1.2000000000000000 [-]
	 SCS Same-Spin Energy      =      -0.1675648322749403 [Eh]
	 SCS Opposite-Spin Energy  =      -1.8505717892747851 [Eh]
	 SCS Correlation Energy    =      -2.0181366215497252 [Eh]
	 SCS Total Energy          =    -492.7262921090389796 [Eh]
	-----------------------------------------------------------

  Dipole Moment: [D]
     X:     0.9234      Y:     4.8773      Z:    -0.0000     Total:     4.9640

*** Psi4 exiting successfully. Buy a developer a beer!
