                               Psi4 1.3.2 release

  ==> Input File <==

--------------------------------------------------------------------------
#psi4
#
memory 32 gb

molecule  {
0 1
  O        2.3111590    -1.3984000     0.0000580
  O       -2.2718830    -1.4902890    -0.0001310
  N        1.1826080     0.6255060     0.0000550
  N        0.0153410    -1.3761840    -0.0000340
  C       -1.2346770     0.6647280    -0.0000250
  C       -0.0319280     1.2897490     0.0000350
  C        1.2551650    -0.7500288     0.0000311
  C       -1.2542960    -0.7955090    -0.0000670
  C        2.4243390     1.3942650     0.0001240
  C       -2.5504790     1.3758010    -0.0000570
  H        0.0516650     2.3739750     0.0000690
  H        0.0372988    -2.3937774    -0.0000613
  H        2.4800130     2.0209940     0.8935150
  H        2.4798690     2.0213500    -0.8930780
  H        3.2466700     0.6823050    -0.0000520
  H       -3.1375530     1.0948740    -0.8785960
  H       -2.4103180     2.4605130    -0.0000230
  H       -3.1376190     1.0948280     0.8784230
units angstrom
no_reorient  #important for SAPT in psi4, default
symmetry c1  #important for SAPT in psi4, default
}

set PROPERTIES_ORIGIN ["COM"]
properties('MP2/aug-cc-pvtz', properties = ['dipole'])
--------------------------------------------------------------------------

    Molecular point group: c1
  Charge       = 0
  Multiplicity = 1
  Basis Set: AUG-CC-PVTZ
    Blend: AUG-CC-PVTZ
  Basis Set: (AUG-CC-PVTZ AUX)
    Blend: AUG-CC-PVTZ-JKFIT

    Orbital Energies [Eh]
    ---------------------

    Doubly Occupied:

       1A    -20.538957     2A    -20.537456     3A    -15.639966
       4A    -15.624975     5A    -11.413305     6A    -11.376310
       7A    -11.325646     8A    -11.286849     9A    -11.260990
      10A    -11.237861    11A     -1.420723    12A     -1.385984
      13A     -1.306640    14A     -1.243206    15A     -1.109997
      16A     -0.994821    17A     -0.965966    18A     -0.914864
      19A     -0.852956    20A     -0.772377    21A     -0.735564
      22A     -0.692291    23A     -0.683268    24A     -0.650052
      25A     -0.634153    26A     -0.615978    27A     -0.610042
      28A     -0.589954    29A     -0.583642    30A     -0.556147
      31A     -0.548695    32A     -0.542603    33A     -0.487602
      34A     -0.473256    35A     -0.443868    36A     -0.429665
      37A     -0.347172

  @DF-RHF Final Energy:  -490.71131333559072

   => Energetics <=

    Nuclear Repulsion Energy =            530.4609139788619814
    One-Electron Energy =               -1720.6768549307894318
    Two-Electron Energy =                 699.5046276163367338
    Total Energy =                       -490.7113133355907166
  Basis Set: (AUG-CC-PVTZ AUX)
    Blend: AUG-CC-PVTZ-RI
    Molecular point group: c1

    Geometry (in Angstrom), charge = 0, multiplicity = 1:

       Center              X                  Y                   Z               Mass
    ------------   -----------------  -----------------  -----------------  -----------------
         O            2.308962440447    -1.333142976766     0.000059300349    15.994914619570
         O           -2.274079559553    -1.425031976766    -0.000129699651    15.994914619570
         N            1.180411440447     0.690763023234     0.000056300349    14.003074004430
         N            0.013144440447    -1.310926976766    -0.000032699651    14.003074004430
         C           -1.236873559553     0.729985023234    -0.000023699651    12.000000000000
         C           -0.034124559553     1.355006023234     0.000036300349    12.000000000000
         C            1.252968440447    -0.684771776766     0.000032400349    12.000000000000
         C           -1.256492559553    -0.730251976766    -0.000065699651    12.000000000000
         C            2.422142440447     1.459522023234     0.000125300349    12.000000000000
         C           -2.552675559553     1.441058023234    -0.000055699651    12.000000000000
         H            0.049468440447     2.439232023234     0.000070300349     1.007825032230
         H            0.035102240447    -2.328520376766    -0.000059999651     1.007825032230
         H            2.477816440447     2.086251023234     0.893516300349     1.007825032230
         H            2.477672440447     2.086607023234    -0.893076699651     1.007825032230
         H            3.244473440447     0.747562023234    -0.000050699651     1.007825032230
         H           -3.139749559553     1.160131023234    -0.878594699651     1.007825032230
         H           -2.412514559553     2.525770023234    -0.000021699651     1.007825032230
         H           -3.139815559553     1.160085023234     0.878424300349     1.007825032230

  Basis Set: AUG-CC-PVTZ
    Blend: AUG-CC-PVTZ
  Basis Set: (AUG-CC-PVTZ AUX)
    Blend: AUG-CC-PVTZ-JKFIT
	 Reference Energy          =    -490.7113133355907166 [Eh]
	 Singles Energy            =      -0.0000000000000000 [Eh]
	 Same-Spin Energy          =      -0.5025026313122800 [Eh]
	 Opposite-Spin Energy      =      -1.5417037275095455 [Eh]
	 Correlation Energy        =      -2.0442063588218256 [Eh]
	 Total Energy              =    -492.7555196944125555 [Eh]

	 ================> DF-SCS-MP2 Energies <==================
	-----------------------------------------------------------
	 SCS Same-Spin Scale       =       0.3333333333333333 [-]
	 SCS Opposite-Spin Scale   =       1.2000000000000000 [-]
	 SCS Same-Spin Energy      =      -0.1675008771040933 [Eh]
	 SCS Opposite-Spin Energy  =      -1.8500444730114545 [Eh]
	 SCS Correlation Energy    =      -2.0175453501155478 [Eh]
	 SCS Total Energy          =    -492.7288586857062569 [Eh]
	-----------------------------------------------------------

  Dipole Moment: [D]
     X:     0.9642      Y:     4.6159      Z:     0.0002     Total:     4.7156

*** Psi4 exiting successfully. Buy a developer a beer!
