                               Psi4 1.3.2 release

  ==> Input File <==

--------------------------------------------------------------------------
#psi4
#
memory 32 gb

molecule  {
0 1
  O        2.3111590    -1.3984000     0.0000580
  O       -2.2718830    -1.4902890    -0.0001310
  N        1.1101574     0.6195252     0.0000518
  N       -0.0151554    -1.3101699    -0.0000340
  C       -1.2346770     0.6647280    -0.0000250
  C       -0.0319280     1.2897490     0.0000350
  C        1.2605820    -0.7608720     0.0000310
  C       -1.2542960    -0.7955090    -0.0000670
  C        2.4243390     1.3942650     0.0001240
  C       -2.5504790     1.3758010    -0.0000570
  H        0.0516650     2.3739750     0.0000690
  H        0.0461780    -2.3935470    -0.0000610
  H        2.4800130     2.0209940     0.8935150
  H        2.4798690     2.0213500    -0.8930780
  H        3.2466700     0.6823050    -0.0000520
  H       -3.1375530     1.0948740    -0.8785960
  H       -2.4103180     2.4605130    -0.0000230
  H       -3.1376190     1.0948280     0.8784230
units angstrom
no_reorient  #important for SAPT in psi4, default
symmetry c1  #important for SAPT in psi4, default
}

set PROPERTIES_ORIGIN ["COM"]
properties('MP2/aug-cc-pvtz', properties = ['dipole'])
--------------------------------------------------------------------------

    Molecular point group: c1
  Charge       = 0
  Multiplicity = 1
  Basis Set: AUG-CC-PVTZ
    Blend: AUG-CC-PVTZ
  Basis Set: (AUG-CC-PVTZ AUX)
    Blend: AUG-CC-PVTZ-JKFIT

    Orbital Energies [Eh]
    ---------------------

    Doubly Occupied:

       1A    -20.552134     2A    -20.527966     3A    -15.640256
       4A    -15.629247     5A    -11.421503     6A    -11.366470
       7A    -11.318008     8A    -11.293773     9A    -11.249469
      10A    -11.231138    11A     -1.430848    12A     -1.384382
      13A     -1.321390    14A     -1.246278    15A     -1.103211
      16A     -0.992660    17A     -0.971476    18A     -0.914187
      19A     -0.863841    20A     -0.771176    21A     -0.720737
      22A     -0.691461    23A     -0.686594    24A     -0.651641
      25A     -0.636108    26A     -0.617572    27A     -0.601005
      28A     -0.582720    29A     -0.581272    30A     -0.552649
      31A     -0.545879    32A     -0.539866    33A     -0.501368
      34A     -0.479821    35A     -0.440533    36A     -0.430674
      37A     -0.338086

  @DF-RHF Final Energy:  -490.69288101446460

   => Energetics <=

    Nuclear Repulsion Energy =            532.4703178621765574
    One-Electron Energy =               -1724.6716029168160276
    Two-Electron Energy =                 701.5084040401748098
    Total Energy =                       -490.6928810144645468
  Basis Set: (AUG-CC-PVTZ AUX)
    Blend: AUG-CC-PVTZ-RI
    Molecular point group: c1

    Geometry (in Angstrom), charge = 0, multiplicity = 1:

       Center              X                  Y                   Z               Mass
    ------------   -----------------  -----------------  -----------------  -----------------
         O            2.318727081812    -1.338217743040     0.000059626695    15.994914619570
         O           -2.264314918188    -1.430106743040    -0.000129373305    15.994914619570
         N            1.117725481812     0.679707456960     0.000053426695    14.003074004430
         N           -0.007587318188    -1.249987643040    -0.000032373305    14.003074004430
         C           -1.227108918188     0.724910256960    -0.000023373305    12.000000000000
         C           -0.024359918188     1.349931256960     0.000036626695    12.000000000000
         C            1.268150081812    -0.700689743040     0.000032626695    12.000000000000
         C           -1.246727918188    -0.735326743040    -0.000065373305    12.000000000000
         C            2.431907081812     1.454447256960     0.000125626695    12.000000000000
         C           -2.542910918188     1.435983256960    -0.000055373305    12.000000000000
         H            0.059233081812     2.434157256960     0.000070626695     1.007825032230
         H            0.053746081812    -2.333364743040    -0.000059373305     1.007825032230
         H            2.487581081812     2.081176256960     0.893516626695     1.007825032230
         H            2.487437081812     2.081532256960    -0.893076373305     1.007825032230
         H            3.254238081812     0.742487256960    -0.000050373305     1.007825032230
         H           -3.129984918188     1.155056256960    -0.878594373305     1.007825032230
         H           -2.402749918188     2.520695256960    -0.000021373305     1.007825032230
         H           -3.130050918188     1.155010256960     0.878424626695     1.007825032230

  Basis Set: AUG-CC-PVTZ
    Blend: AUG-CC-PVTZ
  Basis Set: (AUG-CC-PVTZ AUX)
    Blend: AUG-CC-PVTZ-JKFIT
	 Reference Energy          =    -490.6928810144646036 [Eh]
	 Singles Energy            =      -0.0000000000000000 [Eh]
	 Same-Spin Energy          =      -0.5046590489603953 [Eh]
	 Opposite-Spin Energy      =      -1.5443013515872881 [Eh]
	 Correlation Energy        =      -2.0489604005476831 [Eh]
	 Total Energy              =    -492.7418414150122885 [Eh]

	 ================> DF-SCS-MP2 Energies <==================
	-----------------------------------------------------------
	 SCS Same-Spin Scale       =       0.3333333333333333 [-]
	 SCS Opposite-Spin Scale   =       1.2000000000000000 [-]
	 SCS Same-Spin Energy      =      -0.1682196829867984 [Eh]
	 SCS Opposite-Spin Energy  =      -1.8531616219047455 [Eh]
	 SCS Correlation Energy    =      -2.0213813048915439 [Eh]
	 SCS Total Energy          =    -492.7142623193561235 [Eh]
	-----------------------------------------------------------

  Dipole Moment: [D]
     X:     1.7139      Y:     4.5060      Z:     0.0002     Total:     4.8209

*** Psi4 exiting successfully. Buy a developer a beer!
