                               Psi4 1.3.2 release

  ==> Input File <==

--------------------------------------------------------------------------
#psi4
#
memory 32 gb

molecule  {
0 1
  O        2.3111590    -1.3984000     0.0000580
  O       -2.2718830    -1.4902890    -0.0001310
  N        1.1826080     0.6255060     0.0000550
  N        0.0153410    -1.3761840    -0.0000340
  C       -1.2346770     0.6647280    -0.0000250
  C       -0.0319280     1.2897490     0.0000350
  C        1.2605820    -0.7608720     0.0000310
  C       -1.2542960    -0.7955090    -0.0000670
  C        2.4243390     1.3942650     0.0001240
  C       -2.5504790     1.3758010    -0.0000570
  H        0.0516650     2.3739750     0.0000690
  H        0.0461780    -2.3935470    -0.0000610
  H        2.4800130     2.0209940     0.8935150
  H        2.4876979     2.0166555    -0.8958362
  H        3.2497202     0.6858933    -0.0082933
  H       -3.1375530     1.0948740    -0.8785960
  H       -2.4103180     2.4605130    -0.0000230
  H       -3.1376190     1.0948280     0.8784230
units angstrom
no_reorient  #important for SAPT in psi4, default
symmetry c1  #important for SAPT in psi4, default
}

set PROPERTIES_ORIGIN ["COM"]
properties('MP2/aug-cc-pvtz', properties = ['dipole'])
--------------------------------------------------------------------------

    Molecular point group: c1
  Charge       = 0
  Multiplicity = 1
  Basis Set: AUG-CC-PVTZ
    Blend: AUG-CC-PVTZ
  Basis Set: (AUG-CC-PVTZ AUX)
    Blend: AUG-CC-PVTZ-JKFIT

    Orbital Energies [Eh]
    ---------------------

    Doubly Occupied:

       1A    -20.540476     2A    -20.538559     3A    -15.638303
       4A    -15.624609     5A    -11.413708     6A    -11.376223
       7A    -11.324974     8A    -11.285948     9A    -11.259652
      10A    -11.237131    11A     -1.424062    12A     -1.387003
      13A     -1.306768    14A     -1.242894    15A     -1.109010
      16A     -0.993138    17A     -0.963830    18A     -0.914245
      19A     -0.852855    20A     -0.770628    21A     -0.735015
      22A     -0.692298    23A     -0.682246    24A     -0.649667
      25A     -0.637731    26A     -0.615858    27A     -0.609794
      28A     -0.587971    29A     -0.584009    30A     -0.555261
      31A     -0.548090    32A     -0.543218    33A     -0.488139
      34A     -0.475305    35A     -0.444337    36A     -0.430579
      37A     -0.345949

  @DF-RHF Final Energy:  -490.71199353894445

   => Energetics <=

    Nuclear Repulsion Energy =            530.3577733642221119
    One-Electron Energy =               -1720.4805678967686617
    Two-Electron Energy =                 699.4108009936021517
    Total Energy =                       -490.7119935389443981
  Basis Set: (AUG-CC-PVTZ AUX)
    Blend: AUG-CC-PVTZ-RI
    Molecular point group: c1

    Geometry (in Angstrom), charge = 0, multiplicity = 1:

       Center              X                  Y                   Z               Mass
    ------------   -----------------  -----------------  -----------------  -----------------
         O            2.308356144775    -1.332207646310     0.000138456294    15.994914619570
         O           -2.274685855225    -1.424096646310    -0.000050543706    15.994914619570
         N            1.179805144775     0.691698353690     0.000135456294    14.003074004430
         N            0.012538144775    -1.309991646310     0.000046456294    14.003074004430
         C           -1.237479855225     0.730920353690     0.000055456294    12.000000000000
         C           -0.034730855225     1.355941353690     0.000115456294    12.000000000000
         C            1.257779144775    -0.694679646310     0.000111456294    12.000000000000
         C           -1.257098855225    -0.729316646310     0.000013456294    12.000000000000
         C            2.421536144775     1.460457353690     0.000204456294    12.000000000000
         C           -2.553281855225     1.441993353690     0.000023456294    12.000000000000
         H            0.048862144775     2.440167353690     0.000149456294     1.007825032230
         H            0.043375144775    -2.327354646310     0.000019456294     1.007825032230
         H            2.477210144775     2.087186353690     0.893595456294     1.007825032230
         H            2.484895044775     2.082847853690    -0.895755743706     1.007825032230
         H            3.246917344775     0.752085653690    -0.008212843706     1.007825032230
         H           -3.140355855225     1.161066353690    -0.878515543706     1.007825032230
         H           -2.413120855225     2.526705353690     0.000057456294     1.007825032230
         H           -3.140421855225     1.161020353690     0.878503456294     1.007825032230

  Basis Set: AUG-CC-PVTZ
    Blend: AUG-CC-PVTZ
  Basis Set: (AUG-CC-PVTZ AUX)
    Blend: AUG-CC-PVTZ-JKFIT
	 Reference Energy          =    -490.7119935389444549 [Eh]
	 Singles Energy            =      -0.0000000000000000 [Eh]
	 Same-Spin Energy          =      -0.5023776728173386 [Eh]
	 Opposite-Spin Energy      =      -1.5414514290473800 [Eh]
	 Correlation Energy        =      -2.0438291018647186 [Eh]
	 Total Energy              =    -492.7558226408091855 [Eh]

	 ================> DF-SCS-MP2 Energies <==================
	-----------------------------------------------------------
	 SCS Same-Spin Scale       =       0.3333333333333333 [-]
	 SCS Opposite-Spin Scale   =       1.2000000000000000 [-]
	 SCS Same-Spin Energy      =      -0.1674592242724462 [Eh]
	 SCS Opposite-Spin Energy  =      -1.8497417148568558 [Eh]
	 SCS Correlation Energy    =      -2.0172009391293022 [Eh]
	 SCS Total Energy          =    -492.7291944780737367 [Eh]
	-----------------------------------------------------------

  Dipole Moment: [D]
     X:     1.0527      Y:     4.5212      Z:    -0.0053     Total:     4.6422

*** Psi4 exiting successfully. Buy a developer a beer!
