                               Psi4 1.4a3.dev225

  ==> Input File <==

--------------------------------------------------------------------------
#psi4
#
memory 32 gb

molecule  {
0 1
  O        2.3212770    -1.3580180     0.0000020
  O       -2.2717460    -1.4962290     0.0000010
  N        1.1724310     0.6334210    -0.0000020
  N        0.0162060    -1.3769820    -0.0000020
  C       -1.2398930     0.6613320     0.0000000
  C       -0.0398910     1.2934770    -0.0000010
  C        1.2556364    -0.8025333    -0.0000010
  C       -1.2589250    -0.7964470     0.0000000
  C        2.4447950     1.3519700     0.0000010
  C       -2.5550880     1.3760200     0.0000010
  H        0.0310140     2.3780990    -0.0000010
  H        0.0457120    -2.3937650    -0.0000010
  H        2.2343430     2.4214070    -0.0000200
  H        3.0241620     1.0875710    -0.8862110
  H        3.0241420     1.0876020     0.8862360
  H       -3.1432670     1.0977880    -0.8790540
  H       -2.4120010     2.4600010     0.0000010
  H       -3.1432670     1.0977870     0.8790540
units angstrom
no_reorient  #important for SAPT in psi4, default
symmetry c1  #important for SAPT in psi4, default
}

set PROPERTIES_ORIGIN ["COM"]
properties('MP2/aug-cc-pvtz', properties = ['dipole'])
--------------------------------------------------------------------------

    Molecular point group: c1
  Charge       = 0
  Multiplicity = 1
  Basis Set: AUG-CC-PVTZ
    Blend: AUG-CC-PVTZ
  Basis Set: (AUG-CC-PVTZ AUX)
    Blend: AUG-CC-PVTZ-JKFIT

    Orbital Energies [Eh]
    ---------------------

    Doubly Occupied:

       1A    -20.549300     2A    -20.538515     3A    -15.631718
       4A    -15.626940     5A    -11.413516     6A    -11.377026
       7A    -11.323981     8A    -11.285217     9A    -11.251940
      10A    -11.233918    11A     -1.437616    12A     -1.390503
      13A     -1.303018    14A     -1.247132    15A     -1.105018
      16A     -0.988176    17A     -0.954816    18A     -0.912672
      19A     -0.856298    20A     -0.765617    21A     -0.734921
      22A     -0.693850    23A     -0.679775    24A     -0.654391
      25A     -0.641015    26A     -0.612643    27A     -0.608380
      28A     -0.586335    29A     -0.583358    30A     -0.555022
      31A     -0.545741    32A     -0.542648    33A     -0.491128
      34A     -0.478916    35A     -0.446643    36A     -0.435265
      37A     -0.338532

  @DF-RHF Final Energy:  -490.71039017517194

   => Energetics <=

    Nuclear Repulsion Energy =            530.4781517496736569
    One-Electron Energy =               -1720.7340838109616925
    Two-Electron Energy =                 699.5455418861162116
    Total Energy =                       -490.7103901751719377
  Basis Set: (AUG-CC-PVTZ AUX)
    Blend: AUG-CC-PVTZ-RI
    Molecular point group: c1

    Geometry (in Angstrom), charge = 0, multiplicity = 1:

       Center              X                  Y                   Z               Mass
    ------------   -----------------  -----------------  -----------------  -----------------
         O            2.318602313133    -1.288397226180     0.000002028533    15.994914619570
         O           -2.274420686867    -1.426608226180     0.000001028533    15.994914619570
         N            1.169756313133     0.703041773820    -0.000001971467    14.003074004430
         N            0.013531313133    -1.307361226180    -0.000001971467    14.003074004430
         C           -1.242567686867     0.730952773820     0.000000028533    12.000000000000
         C           -0.042565686867     1.363097773820    -0.000000971467    12.000000000000
         C            1.252961713133    -0.732912526180    -0.000000971467    12.000000000000
         C           -1.261599686867    -0.726826226180     0.000000028533    12.000000000000
         C            2.442120313133     1.421590773820     0.000001028533    12.000000000000
         C           -2.557762686867     1.445640773820     0.000001028533    12.000000000000
         H            0.028339313133     2.447719773820    -0.000000971467     1.007825032230
         H            0.043037313133    -2.324144226180    -0.000000971467     1.007825032230
         H            2.231668313133     2.491027773820    -0.000019971467     1.007825032230
         H            3.021487313133     1.157191773820    -0.886210971467     1.007825032230
         H            3.021467313133     1.157222773820     0.886236028533     1.007825032230
         H           -3.145941686867     1.167408773820    -0.879053971467     1.007825032230
         H           -2.414675686867     2.529621773820     0.000001028533     1.007825032230
         H           -3.145941686867     1.167407773820     0.879054028533     1.007825032230

  Basis Set: AUG-CC-PVTZ
    Blend: AUG-CC-PVTZ
  Basis Set: (AUG-CC-PVTZ AUX)
    Blend: AUG-CC-PVTZ-JKFIT
	 Reference Energy          =    -490.7103901751719377 [Eh]
	 Singles Energy            =      -0.0000000000000000 [Eh]
	 Same-Spin Energy          =      -0.5021887865982447 [Eh]
	 Opposite-Spin Energy      =      -1.5408125798933701 [Eh]
	 Correlation Energy        =      -2.0430013664916147 [Eh]
	 Total Energy              =    -492.7533915416635750 [Eh]

	 ================> DF-SCS-MP2 Energies <==================
	-----------------------------------------------------------
	 SCS Same-Spin Scale       =       0.3333333333333333 [-]
	 SCS Opposite-Spin Scale   =       1.2000000000000000 [-]
	 SCS Same-Spin Energy      =      -0.1673962621994149 [Eh]
	 SCS Opposite-Spin Energy  =      -1.8489750958720439 [Eh]
	 SCS Correlation Energy    =      -2.0163713580714586 [Eh]
	 SCS Total Energy          =    -492.7267615332434048 [Eh]
	-----------------------------------------------------------

  Dipole Moment: [D]
     X:     1.2731      Y:     4.1416      Z:    -0.0000     Total:     4.3329

*** Psi4 exiting successfully. Buy a developer a beer!
