                               Psi4 1.3.2 release

  ==> Input File <==

--------------------------------------------------------------------------
#psi4
#
memory 32 gb

molecule  {
0 1
  O        2.3111590    -1.3984000     0.0000580
  O       -2.2718830    -1.4902890    -0.0001310
  N        1.1826080     0.6255060     0.0000550
  N        0.0153410    -1.3761840    -0.0000340
  C       -1.2346770     0.6647280    -0.0000250
  C       -0.0319280     1.2897490     0.0000350
  C        1.2910784    -0.8268861     0.0000304
  C       -1.2829462    -0.8627525    -0.0000700
  C        2.4243390     1.3942650     0.0001240
  C       -2.5504790     1.3758010    -0.0000570
  H        0.0516650     2.3739750     0.0000690
  H        0.0461780    -2.3935470    -0.0000610
  H        2.4800130     2.0209940     0.8935150
  H        2.4798690     2.0213500    -0.8930780
  H        3.2466700     0.6823050    -0.0000520
  H       -3.1375530     1.0948740    -0.8785960
  H       -2.4103180     2.4605130    -0.0000230
  H       -3.1376190     1.0948280     0.8784230
units angstrom
no_reorient  #important for SAPT in psi4, default
symmetry c1  #important for SAPT in psi4, default
}

set PROPERTIES_ORIGIN ["COM"]
properties('MP2/aug-cc-pvtz', properties = ['dipole'])
--------------------------------------------------------------------------

    Molecular point group: c1
  Charge       = 0
  Multiplicity = 1
  Basis Set: AUG-CC-PVTZ
    Blend: AUG-CC-PVTZ
  Basis Set: (AUG-CC-PVTZ AUX)
    Blend: AUG-CC-PVTZ-JKFIT

    Orbital Energies [Eh]
    ---------------------

    Doubly Occupied:

       1A    -20.556720     2A    -20.549221     3A    -15.620153
       4A    -15.619815     5A    -11.415510     6A    -11.375721
       7A    -11.310446     8A    -11.276802     9A    -11.249926
      10A    -11.230397    11A     -1.457130    12A     -1.432375
      13A     -1.299292    14A     -1.240977    15A     -1.091115
      16A     -0.980630    17A     -0.949521    18A     -0.895836
      19A     -0.851947    20A     -0.758368    21A     -0.721925
      22A     -0.697376    23A     -0.675687    24A     -0.661964
      25A     -0.653156    26A     -0.617332    27A     -0.611817
      28A     -0.588343    29A     -0.578962    30A     -0.559503
      31A     -0.551061    32A     -0.542825    33A     -0.483802
      34A     -0.482057    35A     -0.444716    36A     -0.442828
      37A     -0.332113

  @DF-RHF Final Energy:  -490.70287427241163

   => Energetics <=

    Nuclear Repulsion Energy =            529.6918802654777210
    One-Electron Energy =               -1719.1747695405335890
    Two-Electron Energy =                 698.7800150026442907
    Total Energy =                       -490.7028742724115773
  Basis Set: (AUG-CC-PVTZ AUX)
    Blend: AUG-CC-PVTZ-RI
    Molecular point group: c1

    Geometry (in Angstrom), charge = 0, multiplicity = 1:

       Center              X                  Y                   Z               Mass
    ------------   -----------------  -----------------  -----------------  -----------------
         O            2.308276248414    -1.320798303359     0.000059615200    15.994914619570
         O           -2.274765751586    -1.412687303359    -0.000129384800    15.994914619570
         N            1.179725248414     0.703107696641     0.000056615200    14.003074004430
         N            0.012458248414    -1.298582303359    -0.000032384800    14.003074004430
         C           -1.237559751586     0.742329696641    -0.000023384800    12.000000000000
         C           -0.034810751586     1.367350696641     0.000036615200    12.000000000000
         C            1.288195648414    -0.749284403359     0.000032015200    12.000000000000
         C           -1.285828951586    -0.785150803359    -0.000068384800    12.000000000000
         C            2.421456248414     1.471866696641     0.000125615200    12.000000000000
         C           -2.553361751586     1.453402696641    -0.000055384800    12.000000000000
         H            0.048782248414     2.451576696641     0.000070615200     1.007825032230
         H            0.043295248414    -2.315945303359    -0.000059384800     1.007825032230
         H            2.477130248414     2.098595696641     0.893516615200     1.007825032230
         H            2.476986248414     2.098951696641    -0.893076384800     1.007825032230
         H            3.243787248414     0.759906696641    -0.000050384800     1.007825032230
         H           -3.140435751586     1.172475696641    -0.878594384800     1.007825032230
         H           -2.413200751586     2.538114696641    -0.000021384800     1.007825032230
         H           -3.140501751586     1.172429696641     0.878424615200     1.007825032230

  Basis Set: AUG-CC-PVTZ
    Blend: AUG-CC-PVTZ
  Basis Set: (AUG-CC-PVTZ AUX)
    Blend: AUG-CC-PVTZ-JKFIT
	 Reference Energy          =    -490.7028742724116341 [Eh]
	 Singles Energy            =      -0.0000000000000000 [Eh]
	 Same-Spin Energy          =      -0.5001061463281820 [Eh]
	 Opposite-Spin Energy      =      -1.5375254647827175 [Eh]
	 Correlation Energy        =      -2.0376316111108994 [Eh]
	 Total Energy              =    -492.7405058835225304 [Eh]

	 ================> DF-SCS-MP2 Energies <==================
	-----------------------------------------------------------
	 SCS Same-Spin Scale       =       0.3333333333333333 [-]
	 SCS Opposite-Spin Scale   =       1.2000000000000000 [-]
	 SCS Same-Spin Energy      =      -0.1667020487760607 [Eh]
	 SCS Opposite-Spin Energy  =      -1.8450305577392609 [Eh]
	 SCS Correlation Energy    =      -2.0117326065153218 [Eh]
	 SCS Total Energy          =    -492.7146068789269293 [Eh]
	-----------------------------------------------------------

  Dipole Moment: [D]
     X:     1.1214      Y:     3.4825      Z:     0.0001     Total:     3.6586

*** Psi4 exiting successfully. Buy a developer a beer!
