                               Psi4 1.3.2 release

  ==> Input File <==

--------------------------------------------------------------------------
#psi4
#
memory 32 gb

molecule  {
0 1
  O        2.3111590    -1.3984000     0.0000580
  O       -2.2718830    -1.4902890    -0.0001310
  N        1.1826080     0.6255060     0.0000550
  N        0.0153410    -1.3761840    -0.0000340
  C       -1.2346770     0.6647280    -0.0000250
  C       -0.0319280     1.2897490     0.0000350
  C        1.2605820    -0.7608720     0.0000310
  C       -1.2542960    -0.7955090    -0.0000670
  C        2.4243390     1.3942650     0.0001240
  C       -2.3745281     1.2807153    -0.0000527
  H        0.0516650     2.3739750     0.0000690
  H        0.0461780    -2.3935470    -0.0000610
  H        2.4800130     2.0209940     0.8935150
  H        2.4798690     2.0213500    -0.8930780
  H        3.2466700     0.6823050    -0.0000520
  H       -3.1375530     1.0948740    -0.8785960
  H       -2.4103180     2.4605130    -0.0000230
  H       -3.1376190     1.0948280     0.8784230
units angstrom
no_reorient  #important for SAPT in psi4, default
symmetry c1  #important for SAPT in psi4, default
}

set PROPERTIES_ORIGIN ["COM"]
properties('MP2/aug-cc-pvtz', properties = ['dipole'])
--------------------------------------------------------------------------

    Molecular point group: c1
  Charge       = 0
  Multiplicity = 1
  Basis Set: AUG-CC-PVTZ
    Blend: AUG-CC-PVTZ
  Basis Set: (AUG-CC-PVTZ AUX)
    Blend: AUG-CC-PVTZ-JKFIT

    Orbital Energies [Eh]
    ---------------------

    Doubly Occupied:

       1A    -20.541593     2A    -20.541070     3A    -15.639768
       4A    -15.625915     5A    -11.414779     6A    -11.377553
       7A    -11.326311     8A    -11.286868     9A    -11.249995
      10A    -11.244745    11A     -1.425477    12A     -1.389384
      13A     -1.308461    14A     -1.244287    15A     -1.142838
      16A     -0.999010    17A     -0.966804    18A     -0.913255
      19A     -0.847552    20A     -0.777705    21A     -0.740303
      22A     -0.693554    23A     -0.684083    24A     -0.655809
      25A     -0.642511    26A     -0.623382    27A     -0.617613
      28A     -0.609801    29A     -0.577249    30A     -0.574450
      31A     -0.536213    32A     -0.501745    33A     -0.480255
      34A     -0.476234    35A     -0.445934    36A     -0.431200
      37A     -0.336630

  @DF-RHF Final Energy:  -490.65777498718234

   => Energetics <=

    Nuclear Repulsion Energy =            534.4411130382829924
    One-Electron Energy =               -1728.4170973235191013
    Two-Electron Energy =                 703.3182092980538300
    Total Energy =                       -490.6577749871822789
  Basis Set: (AUG-CC-PVTZ AUX)
    Blend: AUG-CC-PVTZ-RI
    Molecular point group: c1

    Geometry (in Angstrom), charge = 0, multiplicity = 1:

       Center              X                  Y                   Z               Mass
    ------------   -----------------  -----------------  -----------------  -----------------
         O            2.293359229855    -1.324068812086     0.000058938341    15.994914619570
         O           -2.289682770145    -1.415957812086    -0.000130061659    15.994914619570
         N            1.164808229855     0.699837187914     0.000055938341    14.003074004430
         N           -0.002458770145    -1.301852812086    -0.000033061659    14.003074004430
         C           -1.252476770145     0.739059187914    -0.000024061659    12.000000000000
         C           -0.049727770145     1.364080187914     0.000035938341    12.000000000000
         C            1.242782229855    -0.686540812086     0.000031938341    12.000000000000
         C           -1.272095770145    -0.721177812086    -0.000066061659    12.000000000000
         C            2.406539229855     1.468596187914     0.000124938341    12.000000000000
         C           -2.392327870145     1.355046487914    -0.000051761659    12.000000000000
         H            0.033865229855     2.448306187914     0.000069938341     1.007825032230
         H            0.028378229855    -2.319215812086    -0.000060061659     1.007825032230
         H            2.462213229855     2.095325187914     0.893515938341     1.007825032230
         H            2.462069229855     2.095681187914    -0.893077061659     1.007825032230
         H            3.228870229855     0.756636187914    -0.000051061659     1.007825032230
         H           -3.155352770145     1.169205187914    -0.878595061659     1.007825032230
         H           -2.428117770145     2.534844187914    -0.000022061659     1.007825032230
         H           -3.155418770145     1.169159187914     0.878423938341     1.007825032230

  Basis Set: AUG-CC-PVTZ
    Blend: AUG-CC-PVTZ
  Basis Set: (AUG-CC-PVTZ AUX)
    Blend: AUG-CC-PVTZ-JKFIT
	 Reference Energy          =    -490.6577749871823357 [Eh]
	 Singles Energy            =      -0.0000000000000000 [Eh]
	 Same-Spin Energy          =      -0.5062709152107965 [Eh]
	 Opposite-Spin Energy      =      -1.5465049243667619 [Eh]
	 Correlation Energy        =      -2.0527758395775582 [Eh]
	 Total Energy              =    -492.7105508267599134 [Eh]

	 ================> DF-SCS-MP2 Energies <==================
	-----------------------------------------------------------
	 SCS Same-Spin Scale       =       0.3333333333333333 [-]
	 SCS Opposite-Spin Scale   =       1.2000000000000000 [-]
	 SCS Same-Spin Energy      =      -0.1687569717369322 [Eh]
	 SCS Opposite-Spin Energy  =      -1.8558059092401142 [Eh]
	 SCS Correlation Energy    =      -2.0245628809770464 [Eh]
	 SCS Total Energy          =    -492.6823378681593795 [Eh]
	-----------------------------------------------------------

  Dipole Moment: [D]
     X:     1.0669      Y:     4.4477      Z:     0.0002     Total:     4.5739

*** Psi4 exiting successfully. Buy a developer a beer!
