                               Psi4 1.3.2 release

  ==> Input File <==

--------------------------------------------------------------------------
#psi4
#
memory 32 gb

molecule  {
0 1
  O        2.3111590    -1.3984000     0.0000580
  O       -2.2718830    -1.4902890    -0.0001310
  N        1.1826080     0.6255060     0.0000550
  N        0.0153410    -1.3761840    -0.0000340
  C       -1.2346770     0.6647280    -0.0000250
  C       -0.0319280     1.2897490     0.0000350
  C        1.2605820    -0.7608720     0.0000310
  C       -1.2542960    -0.7955090    -0.0000670
  C        2.4243390     1.3942650     0.0001240
  C       -2.5504790     1.3758010    -0.0000570
  H        0.0516650     2.3739750     0.0000690
  H        0.0461780    -2.3935470    -0.0000610
  H        2.4800130     2.0209940     0.8935150
  H        2.4798690     2.0213500    -0.8930780
  H        3.2466700     0.6823050    -0.0000520
  H       -3.1365432     1.0765931    -0.8732180
  H       -2.4003436     2.4590557     0.0161873
  H       -3.1376190     1.0948280     0.8784230
units angstrom
no_reorient  #important for SAPT in psi4, default
symmetry c1  #important for SAPT in psi4, default
}

set PROPERTIES_ORIGIN ["COM"]
properties('MP2/aug-cc-pvtz', properties = ['dipole'])
--------------------------------------------------------------------------

    Molecular point group: c1
  Charge       = 0
  Multiplicity = 1
  Basis Set: AUG-CC-PVTZ
    Blend: AUG-CC-PVTZ
  Basis Set: (AUG-CC-PVTZ AUX)
    Blend: AUG-CC-PVTZ-JKFIT

    Orbital Energies [Eh]
    ---------------------

    Doubly Occupied:

       1A    -20.540465     2A    -20.538650     3A    -15.638116
       4A    -15.624603     5A    -11.413671     6A    -11.376219
       7A    -11.324812     8A    -11.285932     9A    -11.259503
      10A    -11.237216    11A     -1.424066    12A     -1.387080
      13A     -1.306727    14A     -1.242901    15A     -1.109126
      16A     -0.993161    17A     -0.963874    18A     -0.914204
      19A     -0.852626    20A     -0.770802    21A     -0.734706
      22A     -0.692227    23A     -0.682132    24A     -0.649467
      25A     -0.637721    26A     -0.615655    27A     -0.610322
      28A     -0.588519    29A     -0.583596    30A     -0.554705
      31A     -0.549926    32A     -0.542881    33A     -0.487872
      34A     -0.475291    35A     -0.444367    36A     -0.430610
      37A     -0.345751

  @DF-RHF Final Energy:  -490.71185738455927

   => Energetics <=

    Nuclear Repulsion Energy =            530.4216804400044794
    One-Electron Energy =               -1720.6080711005013200
    Two-Electron Energy =                 699.4745332759374605
    Total Energy =                       -490.7118573845592664
  Basis Set: (AUG-CC-PVTZ AUX)
    Blend: AUG-CC-PVTZ-RI
    Molecular point group: c1

    Geometry (in Angstrom), charge = 0, multiplicity = 1:

       Center              X                  Y                   Z               Mass
    ------------   -----------------  -----------------  -----------------  -----------------
         O            2.308355388503    -1.332073575292    -0.000096037024    15.994914619570
         O           -2.274686611497    -1.423962575292    -0.000285037024    15.994914619570
         N            1.179804388503     0.691832424708    -0.000099037024    14.003074004430
         N            0.012537388503    -1.309857575292    -0.000188037024    14.003074004430
         C           -1.237480611497     0.731054424708    -0.000179037024    12.000000000000
         C           -0.034731611497     1.356075424708    -0.000119037024    12.000000000000
         C            1.257778388503    -0.694545575292    -0.000123037024    12.000000000000
         C           -1.257099611497    -0.729182575292    -0.000221037024    12.000000000000
         C            2.421535388503     1.460591424708    -0.000030037024    12.000000000000
         C           -2.553282611497     1.442127424708    -0.000211037024    12.000000000000
         H            0.048861388503     2.440301424708    -0.000085037024     1.007825032230
         H            0.043374388503    -2.327220575292    -0.000215037024     1.007825032230
         H            2.477209388503     2.087320424708     0.893360962976     1.007825032230
         H            2.477065388503     2.087676424708    -0.893232037024     1.007825032230
         H            3.243866388503     0.748631424708    -0.000206037024     1.007825032230
         H           -3.139346811497     1.142919524708    -0.873372037024     1.007825032230
         H           -2.403147211497     2.525382124708     0.016033262976     1.007825032230
         H           -3.140422611497     1.161154424708     0.878268962976     1.007825032230

  Basis Set: AUG-CC-PVTZ
    Blend: AUG-CC-PVTZ
  Basis Set: (AUG-CC-PVTZ AUX)
    Blend: AUG-CC-PVTZ-JKFIT
	 Reference Energy          =    -490.7118573845592664 [Eh]
	 Singles Energy            =      -0.0000000000000000 [Eh]
	 Same-Spin Energy          =      -0.5024160837338630 [Eh]
	 Opposite-Spin Energy      =      -1.5414977399423813 [Eh]
	 Correlation Energy        =      -2.0439138236762444 [Eh]
	 Total Energy              =    -492.7557712082355010 [Eh]

	 ================> DF-SCS-MP2 Energies <==================
	-----------------------------------------------------------
	 SCS Same-Spin Scale       =       0.3333333333333333 [-]
	 SCS Opposite-Spin Scale   =       1.2000000000000000 [-]
	 SCS Same-Spin Energy      =      -0.1674720279112877 [Eh]
	 SCS Opposite-Spin Energy  =      -1.8497972879308575 [Eh]
	 SCS Correlation Energy    =      -2.0172693158421451 [Eh]
	 SCS Total Energy          =    -492.7291267004014230 [Eh]
	-----------------------------------------------------------

  Dipole Moment: [D]
     X:     1.0456      Y:     4.5151      Z:     0.0096     Total:     4.6346

*** Psi4 exiting successfully. Buy a developer a beer!
