                               Psi4 1.3.2 release

  ==> Input File <==

--------------------------------------------------------------------------
#psi4
#
memory 32 gb

molecule  {
0 1
  O        2.3111590    -1.3984000     0.0000580
  O       -2.2718830    -1.4902890    -0.0001310
  N        1.1826080     0.6255060     0.0000550
  N        0.0153410    -1.3761840    -0.0000340
  C       -1.2482302     0.6415630    -0.0448032
  C       -0.0319280     1.2897490     0.0000350
  C        1.2605820    -0.7608720     0.0000310
  C       -1.2542960    -0.7955090    -0.0000670
  C        2.4243390     1.3942650     0.0001240
  C       -2.5504790     1.3758010    -0.0000570
  H        0.0516650     2.3739750     0.0000690
  H        0.0461780    -2.3935470    -0.0000610
  H        2.4800130     2.0209940     0.8935150
  H        2.4798690     2.0213500    -0.8930780
  H        3.2466700     0.6823050    -0.0000520
  H       -3.1090176     1.0720112    -0.8895249
  H       -2.4103180     2.4605130    -0.0000230
  H       -3.1376190     1.0948280     0.8784230
units angstrom
no_reorient  #important for SAPT in psi4, default
symmetry c1  #important for SAPT in psi4, default
}

set PROPERTIES_ORIGIN ["COM"]
properties('MP2/aug-cc-pvtz', properties = ['dipole'])
--------------------------------------------------------------------------

    Molecular point group: c1
  Charge       = 0
  Multiplicity = 1
  Basis Set: AUG-CC-PVTZ
    Blend: AUG-CC-PVTZ
  Basis Set: (AUG-CC-PVTZ AUX)
    Blend: AUG-CC-PVTZ-JKFIT

    Orbital Energies [Eh]
    ---------------------

    Doubly Occupied:

       1A    -20.540767     2A    -20.535757     3A    -15.640065
       4A    -15.624357     5A    -11.414029     6A    -11.373292
       7A    -11.329977     8A    -11.286836     9A    -11.259659
      10A    -11.236786    11A     -1.424364    12A     -1.386105
      13A     -1.307326    14A     -1.242868    15A     -1.107271
      16A     -0.993850    17A     -0.963682    18A     -0.917900
      19A     -0.850690    20A     -0.769952    21A     -0.735977
      22A     -0.692694    23A     -0.682647    24A     -0.649083
      25A     -0.637827    26A     -0.616696    27A     -0.609746
      28A     -0.589923    29A     -0.584259    30A     -0.557519
      31A     -0.544605    32A     -0.542346    33A     -0.487119
      34A     -0.475911    35A     -0.444002    36A     -0.430141
      37A     -0.342643

  @DF-RHF Final Energy:  -490.70876187814804

   => Energetics <=

    Nuclear Repulsion Energy =            530.4808944457146254
    One-Electron Energy =               -1720.7219757664734061
    Two-Electron Energy =                 699.5323194426108557
    Total Energy =                       -490.7087618781480387
  Basis Set: (AUG-CC-PVTZ AUX)
    Blend: AUG-CC-PVTZ-RI
    Molecular point group: c1

    Geometry (in Angstrom), charge = 0, multiplicity = 1:

       Center              X                  Y                   Z               Mass
    ------------   -----------------  -----------------  -----------------  -----------------
         O            2.309390311632    -1.330066350493     0.003974474460    15.994914619570
         O           -2.273651688368    -1.421955350493     0.003785474460    15.994914619570
         N            1.180839311632     0.693839649507     0.003971474460    14.003074004430
         N            0.013572311632    -1.307850350493     0.003882474460    14.003074004430
         C           -1.249998888368     0.709896649507    -0.040886725540    12.000000000000
         C           -0.033696688368     1.358082649507     0.003951474460    12.000000000000
         C            1.258813311632    -0.692538350493     0.003947474460    12.000000000000
         C           -1.256064688368    -0.727175350493     0.003849474460    12.000000000000
         C            2.422570311632     1.462598649507     0.004040474460    12.000000000000
         C           -2.552247688368     1.444134649507     0.003859474460    12.000000000000
         H            0.049896311632     2.442308649507     0.003985474460     1.007825032230
         H            0.044409311632    -2.325213350493     0.003855474460     1.007825032230
         H            2.478244311632     2.089327649507     0.897431474460     1.007825032230
         H            2.478100311632     2.089683649507    -0.889161525540     1.007825032230
         H            3.244901311632     0.750638649507     0.003864474460     1.007825032230
         H           -3.110786288368     1.140344849507    -0.885608425540     1.007825032230
         H           -2.412086688368     2.528846649507     0.003893474460     1.007825032230
         H           -3.139387688368     1.163161649507     0.882339474460     1.007825032230

  Basis Set: AUG-CC-PVTZ
    Blend: AUG-CC-PVTZ
  Basis Set: (AUG-CC-PVTZ AUX)
    Blend: AUG-CC-PVTZ-JKFIT
	 Reference Energy          =    -490.7087618781480387 [Eh]
	 Singles Energy            =      -0.0000000000000000 [Eh]
	 Same-Spin Energy          =      -0.5030127007996192 [Eh]
	 Opposite-Spin Energy      =      -1.5423741702348184 [Eh]
	 Correlation Energy        =      -2.0453868710344376 [Eh]
	 Total Energy              =    -492.7541487491824910 [Eh]

	 ================> DF-SCS-MP2 Energies <==================
	-----------------------------------------------------------
	 SCS Same-Spin Scale       =       0.3333333333333333 [-]
	 SCS Opposite-Spin Scale   =       1.2000000000000000 [-]
	 SCS Same-Spin Energy      =      -0.1676709002665397 [Eh]
	 SCS Opposite-Spin Energy  =      -1.8508490042817820 [Eh]
	 SCS Correlation Energy    =      -2.0185199045483220 [Eh]
	 SCS Total Energy          =    -492.7272817826963660 [Eh]
	-----------------------------------------------------------

  Dipole Moment: [D]
     X:     1.1180      Y:     4.5907      Z:     0.0257     Total:     4.7250

*** Psi4 exiting successfully. Buy a developer a beer!
