                               Psi4 1.3.2 release

  ==> Input File <==

--------------------------------------------------------------------------
#psi4
#
memory 32 gb

molecule  {
0 1
  O        2.3111590    -1.3984000     0.0000580
  O       -2.2718830    -1.4902890    -0.0001310
  N        1.1826080     0.6255060     0.0000550
  N        0.0153410    -1.3761840    -0.0000340
  C       -1.2346770     0.6647280    -0.0000250
  C       -0.0319280     1.2897490     0.0000350
  C        1.2812975    -0.8047051     0.0000306
  C       -1.2542960    -0.7955090    -0.0000670
  C        2.4243390     1.3942650     0.0001240
  C       -2.5504790     1.3758010    -0.0000570
  H        0.0516650     2.3739750     0.0000690
  H        0.0816647    -2.3918511    -0.0000596
  H        2.4800130     2.0209940     0.8935150
  H        2.4798690     2.0213500    -0.8930780
  H        3.2466700     0.6823050    -0.0000520
  H       -3.1375530     1.0948740    -0.8785960
  H       -2.4103180     2.4605130    -0.0000230
  H       -3.1376190     1.0948280     0.8784230
units angstrom
no_reorient  #important for SAPT in psi4, default
symmetry c1  #important for SAPT in psi4, default
}

set PROPERTIES_ORIGIN ["COM"]
properties('MP2/aug-cc-pvtz', properties = ['dipole'])
--------------------------------------------------------------------------

    Molecular point group: c1
  Charge       = 0
  Multiplicity = 1
  Basis Set: AUG-CC-PVTZ
    Blend: AUG-CC-PVTZ
  Basis Set: (AUG-CC-PVTZ AUX)
    Blend: AUG-CC-PVTZ-JKFIT

    Orbital Energies [Eh]
    ---------------------

    Doubly Occupied:

       1A    -20.552723     2A    -20.537020     3A    -15.630676
       4A    -15.623423     5A    -11.415135     6A    -11.375934
       7A    -11.322058     8A    -11.282465     9A    -11.254364
      10A    -11.234251    11A     -1.445072    12A     -1.389230
      13A     -1.304040    14A     -1.241258    15A     -1.105069
      16A     -0.987077    17A     -0.955647    18A     -0.911488
      19A     -0.851813    20A     -0.765021    21A     -0.731843
      22A     -0.694712    23A     -0.678983    24A     -0.655807
      25A     -0.641529    26A     -0.614884    27A     -0.609144
      28A     -0.586669    29A     -0.584168    30A     -0.552338
      31A     -0.546317    32A     -0.545628    33A     -0.488045
      34A     -0.482416    35A     -0.445234    36A     -0.433835
      37A     -0.340683

  @DF-RHF Final Energy:  -490.70977240152610

   => Energetics <=

    Nuclear Repulsion Energy =            530.0853606048676738
    One-Electron Energy =               -1719.9582693116315113
    Two-Electron Energy =                 699.1631363052377992
    Total Energy =                       -490.7097724015260383
  Basis Set: (AUG-CC-PVTZ AUX)
    Blend: AUG-CC-PVTZ-RI
    Molecular point group: c1

    Geometry (in Angstrom), charge = 0, multiplicity = 1:

       Center              X                  Y                   Z               Mass
    ------------   -----------------  -----------------  -----------------  -----------------
         O            2.306404203236    -1.328472257997     0.000059330955    15.994914619570
         O           -2.276637796764    -1.420361257997    -0.000129669045    15.994914619570
         N            1.177853203236     0.695433742003     0.000056330955    14.003074004430
         N            0.010586203236    -1.306256257997    -0.000032669045    14.003074004430
         C           -1.239431796764     0.734655742003    -0.000023669045    12.000000000000
         C           -0.036682796764     1.359676742003     0.000036330955    12.000000000000
         C            1.276542703236    -0.734777357997     0.000031930955    12.000000000000
         C           -1.259050796764    -0.725581257997    -0.000065669045    12.000000000000
         C            2.419584203236     1.464192742003     0.000125330955    12.000000000000
         C           -2.555233796764     1.445728742003    -0.000055669045    12.000000000000
         H            0.046910203236     2.443902742003     0.000070330955     1.007825032230
         H            0.076909903236    -2.321923357997    -0.000058269045     1.007825032230
         H            2.475258203236     2.090921742003     0.893516330955     1.007825032230
         H            2.475114203236     2.091277742003    -0.893076669045     1.007825032230
         H            3.241915203236     0.752232742003    -0.000050669045     1.007825032230
         H           -3.142307796764     1.164801742003    -0.878594669045     1.007825032230
         H           -2.415072796764     2.530440742003    -0.000021669045     1.007825032230
         H           -3.142373796764     1.164755742003     0.878424330955     1.007825032230

  Basis Set: AUG-CC-PVTZ
    Blend: AUG-CC-PVTZ
  Basis Set: (AUG-CC-PVTZ AUX)
    Blend: AUG-CC-PVTZ-JKFIT
	 Reference Energy          =    -490.7097724015260951 [Eh]
	 Singles Energy            =      -0.0000000000000000 [Eh]
	 Same-Spin Energy          =      -0.5019976580776533 [Eh]
	 Opposite-Spin Energy      =      -1.5406536749374040 [Eh]
	 Correlation Energy        =      -2.0426513330150575 [Eh]
	 Total Energy              =    -492.7524237345411393 [Eh]

	 ================> DF-SCS-MP2 Energies <==================
	-----------------------------------------------------------
	 SCS Same-Spin Scale       =       0.3333333333333333 [-]
	 SCS Opposite-Spin Scale   =       1.2000000000000000 [-]
	 SCS Same-Spin Energy      =      -0.1673325526925511 [Eh]
	 SCS Opposite-Spin Energy  =      -1.8487844099248847 [Eh]
	 SCS Correlation Energy    =      -2.0161169626174358 [Eh]
	 SCS Total Energy          =    -492.7258893641435407 [Eh]
	-----------------------------------------------------------

  Dipole Moment: [D]
     X:     1.3848      Y:     4.1407      Z:     0.0002     Total:     4.3661

*** Psi4 exiting successfully. Buy a developer a beer!
