                               Psi4 1.3.2 release

  ==> Input File <==

--------------------------------------------------------------------------
#psi4
#
memory 32 gb

molecule  {
0 1
  O        2.3111590    -1.3984000     0.0000580
  O       -2.2718830    -1.4902890    -0.0001310
  N        1.1826080     0.6255060     0.0000550
  N        0.0153410    -1.3761840    -0.0000340
  C       -1.2346770     0.6647280    -0.0000250
  C       -0.0319280     1.2897490     0.0000350
  C        1.2718128    -0.9605564     0.0000275
  C       -1.2542960    -0.7955090    -0.0000670
  C        2.4243390     1.3942650     0.0001240
  C       -2.5504790     1.3758010    -0.0000570
  H        0.0516650     2.3739750     0.0000690
  H        0.0461780    -2.3935470    -0.0000610
  H        2.4800130     2.0209940     0.8935150
  H        2.4798690     2.0213500    -0.8930780
  H        3.2466700     0.6823050    -0.0000520
  H       -3.1375530     1.0948740    -0.8785960
  H       -2.4103180     2.4605130    -0.0000230
  H       -3.1376190     1.0948280     0.8784230
units angstrom
no_reorient  #important for SAPT in psi4, default
symmetry c1  #important for SAPT in psi4, default
}

set PROPERTIES_ORIGIN ["COM"]
properties('MP2/aug-cc-pvtz', properties = ['dipole'])
--------------------------------------------------------------------------

    Molecular point group: c1
  Charge       = 0
  Multiplicity = 1
  Basis Set: AUG-CC-PVTZ
    Blend: AUG-CC-PVTZ
  Basis Set: (AUG-CC-PVTZ AUX)
    Blend: AUG-CC-PVTZ-JKFIT

    Orbital Energies [Eh]
    ---------------------

    Doubly Occupied:

       1A    -20.576700     2A    -20.540267     3A    -15.635007
       4A    -15.604537     5A    -11.423395     6A    -11.380642
       7A    -11.313314     8A    -11.271057     9A    -11.239649
      10A    -11.227151    11A     -1.496094    12A     -1.396711
      13A     -1.303406    14A     -1.240031    15A     -1.094807
      16A     -0.972473    17A     -0.950920    18A     -0.896876
      19A     -0.860371    20A     -0.754417    21A     -0.734099
      22A     -0.710583    23A     -0.683412    24A     -0.665703
      25A     -0.634662    26A     -0.615542    27A     -0.610333
      28A     -0.593633    29A     -0.573359    30A     -0.551693
      31A     -0.545630    32A     -0.537676    33A     -0.476762
      34A     -0.473801    35A     -0.451072    36A     -0.449617
      37A     -0.323790

  @DF-RHF Final Energy:  -490.67247608967892

   => Energetics <=

    Nuclear Repulsion Energy =            529.4698473864361858
    One-Electron Energy =               -1718.6662596529190523
    Two-Electron Energy =                 698.5239361768038862
    Total Energy =                       -490.6724760896789803
  Basis Set: (AUG-CC-PVTZ AUX)
    Blend: AUG-CC-PVTZ-RI
    Molecular point group: c1

    Geometry (in Angstrom), charge = 0, multiplicity = 1:

       Center              X                  Y                   Z               Mass
    ------------   -----------------  -----------------  -----------------  -----------------
         O            2.307472190554    -1.315106958965     0.000059606633    15.994914619570
         O           -2.275569809446    -1.406995958965    -0.000129393367    15.994914619570
         N            1.178921190554     0.708799041035     0.000056606633    14.003074004430
         N            0.011654190554    -1.292890958965    -0.000032393367    14.003074004430
         C           -1.238363809446     0.748021041035    -0.000023393367    12.000000000000
         C           -0.035614809446     1.373042041035     0.000036606633    12.000000000000
         C            1.268125990554    -0.877263358965     0.000029106633    12.000000000000
         C           -1.257982809446    -0.712215958965    -0.000065393367    12.000000000000
         C            2.420652190554     1.477558041035     0.000125606633    12.000000000000
         C           -2.554165809446     1.459094041035    -0.000055393367    12.000000000000
         H            0.047978190554     2.457268041035     0.000070606633     1.007825032230
         H            0.042491190554    -2.310253958965    -0.000059393367     1.007825032230
         H            2.476326190554     2.104287041035     0.893516606633     1.007825032230
         H            2.476182190554     2.104643041035    -0.893076393367     1.007825032230
         H            3.242983190554     0.765598041035    -0.000050393367     1.007825032230
         H           -3.141239809446     1.178167041035    -0.878594393367     1.007825032230
         H           -2.414004809446     2.543806041035    -0.000021393367     1.007825032230
         H           -3.141305809446     1.178121041035     0.878424606633     1.007825032230

  Basis Set: AUG-CC-PVTZ
    Blend: AUG-CC-PVTZ
  Basis Set: (AUG-CC-PVTZ AUX)
    Blend: AUG-CC-PVTZ-JKFIT
	 Reference Energy          =    -490.6724760896789235 [Eh]
	 Singles Energy            =      -0.0000000000000000 [Eh]
	 Same-Spin Energy          =      -0.5028116657940865 [Eh]
	 Opposite-Spin Energy      =      -1.5415993028664112 [Eh]
	 Correlation Energy        =      -2.0444109686604977 [Eh]
	 Total Energy              =    -492.7168870583394096 [Eh]

	 ================> DF-SCS-MP2 Energies <==================
	-----------------------------------------------------------
	 SCS Same-Spin Scale       =       0.3333333333333333 [-]
	 SCS Opposite-Spin Scale   =       1.2000000000000000 [-]
	 SCS Same-Spin Energy      =      -0.1676038885980288 [Eh]
	 SCS Opposite-Spin Energy  =      -1.8499191634396934 [Eh]
	 SCS Correlation Energy    =      -2.0175230520377223 [Eh]
	 SCS Total Energy          =    -492.6899991417166689 [Eh]
	-----------------------------------------------------------

  Dipole Moment: [D]
     X:     1.7937      Y:     2.9177      Z:     0.0002     Total:     3.4250

*** Psi4 exiting successfully. Buy a developer a beer!
