                               Psi4 1.4a3.dev225

  ==> Input File <==

--------------------------------------------------------------------------
#psi4
#
memory 32 gb

molecule  {
0 1
  O        2.3212770    -1.3580180     0.0000020
  O       -2.2717460    -1.4962290     0.0000010
  N        1.1724310     0.6334210    -0.0000020
  N        0.0162060    -1.3769820    -0.0000020
  C       -1.2398930     0.6613320     0.0000000
  C       -0.0398910     1.2934770    -0.0000010
  C        1.2527440    -0.7526170    -0.0000010
  C       -1.2589250    -0.7964470     0.0000000
  C        2.4447950     1.3519700     0.0000010
  C       -2.5550880     1.3760200     0.0000010
  H        0.0310140     2.3780990    -0.0000010
  H        0.0471623    -2.4437440    -0.0000010
  H        2.2343430     2.4214070    -0.0000200
  H        3.0241620     1.0875710    -0.8862110
  H        3.0241420     1.0876020     0.8862360
  H       -3.1432670     1.0977880    -0.8790540
  H       -2.4120010     2.4600010     0.0000010
  H       -3.1432670     1.0977870     0.8790540
units angstrom
no_reorient  #important for SAPT in psi4, default
symmetry c1  #important for SAPT in psi4, default
}

set PROPERTIES_ORIGIN ["COM"]
properties('MP2/aug-cc-pvtz', properties = ['dipole'])
--------------------------------------------------------------------------

    Molecular point group: c1
  Charge       = 0
  Multiplicity = 1
  Basis Set: AUG-CC-PVTZ
    Blend: AUG-CC-PVTZ
  Basis Set: (AUG-CC-PVTZ AUX)
    Blend: AUG-CC-PVTZ-JKFIT

    Orbital Energies [Eh]
    ---------------------

    Doubly Occupied:

       1A    -20.540504     2A    -20.537465     3A    -15.638365
       4A    -15.628386     5A    -11.411047     6A    -11.375501
       7A    -11.326140     8A    -11.288509     9A    -11.257020
      10A    -11.236297    11A     -1.423761    12A     -1.386539
      13A     -1.306100    14A     -1.238690    15A     -1.108072
      16A     -0.993074    17A     -0.961779    18A     -0.911513
      19A     -0.851999    20A     -0.769381    21A     -0.726659
      22A     -0.691666    23A     -0.682630    24A     -0.648791
      25A     -0.636156    26A     -0.612212    27A     -0.607724
      28A     -0.590526    29A     -0.580962    30A     -0.557011
      31A     -0.547390    32A     -0.539726    33A     -0.491695
      34A     -0.475162    35A     -0.443709    36A     -0.429179
      37A     -0.343620

  @DF-RHF Final Energy:  -490.70877182920071

   => Energetics <=

    Nuclear Repulsion Energy =            530.4327301291730237
    One-Electron Energy =               -1720.6930864999487767
    Two-Electron Energy =                 699.5515845415750391
    Total Energy =                       -490.7087718292007139
  Basis Set: (AUG-CC-PVTZ AUX)
    Blend: AUG-CC-PVTZ-RI
    Molecular point group: c1

    Geometry (in Angstrom), charge = 0, multiplicity = 1:

       Center              X                  Y                   Z               Mass
    ------------   -----------------  -----------------  -----------------  -----------------
         O            2.318839693463    -1.292314340880     0.000002028533    15.994914619570
         O           -2.274183306537    -1.430525340880     0.000001028533    15.994914619570
         N            1.169993693463     0.699124659120    -0.000001971467    14.003074004430
         N            0.013768693463    -1.311278340880    -0.000001971467    14.003074004430
         C           -1.242330306537     0.727035659120     0.000000028533    12.000000000000
         C           -0.042328306537     1.359180659120    -0.000000971467    12.000000000000
         C            1.250306693463    -0.686913340880    -0.000000971467    12.000000000000
         C           -1.261362306537    -0.730743340880     0.000000028533    12.000000000000
         C            2.442357693463     1.417673659120     0.000001028533    12.000000000000
         C           -2.557525306537     1.441723659120     0.000001028533    12.000000000000
         H            0.028576693463     2.443802659120    -0.000000971467     1.007825032230
         H            0.044724993463    -2.378040340880    -0.000000971467     1.007825032230
         H            2.231905693463     2.487110659120    -0.000019971467     1.007825032230
         H            3.021724693463     1.153274659120    -0.886210971467     1.007825032230
         H            3.021704693463     1.153305659120     0.886236028533     1.007825032230
         H           -3.145704306537     1.163491659120    -0.879053971467     1.007825032230
         H           -2.414438306537     2.525704659120     0.000001028533     1.007825032230
         H           -3.145704306537     1.163490659120     0.879054028533     1.007825032230

  Basis Set: AUG-CC-PVTZ
    Blend: AUG-CC-PVTZ
  Basis Set: (AUG-CC-PVTZ AUX)
    Blend: AUG-CC-PVTZ-JKFIT
	 Reference Energy          =    -490.7087718292007139 [Eh]
	 Singles Energy            =      -0.0000000000000000 [Eh]
	 Same-Spin Energy          =      -0.5028029238560379 [Eh]
	 Opposite-Spin Energy      =      -1.5422214747563421 [Eh]
	 Correlation Energy        =      -2.0450243986123802 [Eh]
	 Total Energy              =    -492.7537962278130976 [Eh]

	 ================> DF-SCS-MP2 Energies <==================
	-----------------------------------------------------------
	 SCS Same-Spin Scale       =       0.3333333333333333 [-]
	 SCS Opposite-Spin Scale   =       1.2000000000000000 [-]
	 SCS Same-Spin Energy      =      -0.1676009746186793 [Eh]
	 SCS Opposite-Spin Energy  =      -1.8506657697076103 [Eh]
	 SCS Correlation Energy    =      -2.0182667443262896 [Eh]
	 SCS Total Energy          =    -492.7270385735270111 [Eh]
	-----------------------------------------------------------

  Dipole Moment: [D]
     X:     1.0965      Y:     4.4478      Z:    -0.0000     Total:     4.5810

*** Psi4 exiting successfully. Buy a developer a beer!
