                               Psi4 1.3.2 release

  ==> Input File <==

--------------------------------------------------------------------------
#psi4
#
memory 32 gb

molecule  {
0 1
  O        2.3111590    -1.3984000     0.0000580
  O       -2.2718830    -1.4902890    -0.0001310
  N        1.1826080     0.6255060     0.0000550
  N        0.0153410    -1.3761840    -0.0000340
  C       -1.2346770     0.6647280    -0.0000250
  C       -0.0319280     1.2897490     0.0000350
  C        1.2605820    -0.7608720     0.0000310
  C       -1.2332573    -0.7515530    -0.0000650
  C        2.4243390     1.3942650     0.0001240
  C       -2.5504790     1.3758010    -0.0000570
  H        0.0516650     2.3739750     0.0000690
  H        0.0816647    -2.3918511    -0.0000596
  H        2.4800130     2.0209940     0.8935150
  H        2.4798690     2.0213500    -0.8930780
  H        3.2466700     0.6823050    -0.0000520
  H       -3.1375530     1.0948740    -0.8785960
  H       -2.4103180     2.4605130    -0.0000230
  H       -3.1376190     1.0948280     0.8784230
units angstrom
no_reorient  #important for SAPT in psi4, default
symmetry c1  #important for SAPT in psi4, default
}

set PROPERTIES_ORIGIN ["COM"]
properties('MP2/aug-cc-pvtz', properties = ['dipole'])
--------------------------------------------------------------------------

    Molecular point group: c1
  Charge       = 0
  Multiplicity = 1
  Basis Set: AUG-CC-PVTZ
    Blend: AUG-CC-PVTZ
  Basis Set: (AUG-CC-PVTZ AUX)
    Blend: AUG-CC-PVTZ-JKFIT

    Orbital Energies [Eh]
    ---------------------

    Doubly Occupied:

       1A    -20.542087     2A    -20.529536     3A    -15.642798
       4A    -15.627154     5A    -11.414047     6A    -11.375815
       7A    -11.332000     8A    -11.288685     9A    -11.259791
      10A    -11.238611    11A     -1.425063    12A     -1.362900
      13A     -1.308504    14A     -1.239919    15A     -1.117504
      16A     -0.995548    17A     -0.965891    18A     -0.924430
      19A     -0.851689    20A     -0.773710    21A     -0.741912
      22A     -0.694492    23A     -0.684833    24A     -0.646606
      25A     -0.635980    26A     -0.615300    27A     -0.603249
      28A     -0.589126    29A     -0.585538    30A     -0.557968
      31A     -0.548587    32A     -0.534716    33A     -0.491086
      34A     -0.475743    35A     -0.440003    36A     -0.424754
      37A     -0.349125

  @DF-RHF Final Energy:  -490.70394198524502

   => Energetics <=

    Nuclear Repulsion Energy =            530.6281641470885688
    One-Electron Energy =               -1720.9948120939729961
    Two-Electron Energy =                 699.6627059616392899
    Total Energy =                       -490.7039419852450237
  Basis Set: (AUG-CC-PVTZ AUX)
    Blend: AUG-CC-PVTZ-RI
    Molecular point group: c1

    Geometry (in Angstrom), charge = 0, multiplicity = 1:

       Center              X                  Y                   Z               Mass
    ------------   -----------------  -----------------  -----------------  -----------------
         O            2.306376511966    -1.335993890865     0.000059125327    15.994914619570
         O           -2.276665488034    -1.427882890865    -0.000129874673    15.994914619570
         N            1.177825511966     0.687912109135     0.000056125327    14.003074004430
         N            0.010558511966    -1.313777890865    -0.000032874673    14.003074004430
         C           -1.239459488034     0.727134109135    -0.000023874673    12.000000000000
         C           -0.036710488034     1.352155109135     0.000036125327    12.000000000000
         C            1.255799511966    -0.698465890865     0.000032125327    12.000000000000
         C           -1.238039788034    -0.689146890865    -0.000063874673    12.000000000000
         C            2.419556511966     1.456671109135     0.000125125327    12.000000000000
         C           -2.555261488034     1.438207109135    -0.000055874673    12.000000000000
         H            0.046882511966     2.436381109135     0.000070125327     1.007825032230
         H            0.076882211966    -2.329444990865    -0.000058474673     1.007825032230
         H            2.475230511966     2.083400109135     0.893516125327     1.007825032230
         H            2.475086511966     2.083756109135    -0.893076874673     1.007825032230
         H            3.241887511966     0.744711109135    -0.000050874673     1.007825032230
         H           -3.142335488034     1.157280109135    -0.878594874673     1.007825032230
         H           -2.415100488034     2.522919109135    -0.000021874673     1.007825032230
         H           -3.142401488034     1.157234109135     0.878424125327     1.007825032230

  Basis Set: AUG-CC-PVTZ
    Blend: AUG-CC-PVTZ
  Basis Set: (AUG-CC-PVTZ AUX)
    Blend: AUG-CC-PVTZ-JKFIT
	 Reference Energy          =    -490.7039419852450237 [Eh]
	 Singles Energy            =      -0.0000000000000000 [Eh]
	 Same-Spin Energy          =      -0.5038074034318455 [Eh]
	 Opposite-Spin Energy      =      -1.5438052037276671 [Eh]
	 Correlation Energy        =      -2.0476126071595124 [Eh]
	 Total Energy              =    -492.7515545924045455 [Eh]

	 ================> DF-SCS-MP2 Energies <==================
	-----------------------------------------------------------
	 SCS Same-Spin Scale       =       0.3333333333333333 [-]
	 SCS Opposite-Spin Scale   =       1.2000000000000000 [-]
	 SCS Same-Spin Energy      =      -0.1679358011439485 [Eh]
	 SCS Opposite-Spin Energy  =      -1.8525662444732003 [Eh]
	 SCS Correlation Energy    =      -2.0205020456171487 [Eh]
	 SCS Total Energy          =    -492.7244440308621733 [Eh]
	-----------------------------------------------------------

  Dipole Moment: [D]
     X:     1.3241      Y:     4.7950      Z:     0.0002     Total:     4.9745

*** Psi4 exiting successfully. Buy a developer a beer!
