                               Psi4 1.3.2 release

  ==> Input File <==

--------------------------------------------------------------------------
#psi4
#
memory 32 gb

molecule  {
0 1
  O        2.3111590    -1.3984000     0.0000580
  O       -2.2718830    -1.4902890    -0.0001310
  N        1.1826080     0.6255060     0.0000550
  N        0.0153410    -1.3761840    -0.0000340
  C       -1.2346770     0.6647280    -0.0000250
  C       -0.0319280     1.2897490     0.0000350
  C        1.2484808    -0.7614997     0.0000305
  C       -1.2542960    -0.7955090    -0.0000670
  C        2.4175831     1.4050717     0.0001239
  C       -2.5504790     1.3758010    -0.0000570
  H        0.0516650     2.3739750     0.0000690
  H        0.0461780    -2.3935470    -0.0000610
  H        2.4800130     2.0209940     0.8935150
  H        2.4798690     2.0213500    -0.8930780
  H        3.2466700     0.6823050    -0.0000520
  H       -3.1375530     1.0948740    -0.8785960
  H       -2.4103180     2.4605130    -0.0000230
  H       -3.1376190     1.0948280     0.8784230
units angstrom
no_reorient  #important for SAPT in psi4, default
symmetry c1  #important for SAPT in psi4, default
}

set PROPERTIES_ORIGIN ["COM"]
properties('MP2/aug-cc-pvtz', properties = ['dipole'])
--------------------------------------------------------------------------

    Molecular point group: c1
  Charge       = 0
  Multiplicity = 1
  Basis Set: AUG-CC-PVTZ
    Blend: AUG-CC-PVTZ
  Basis Set: (AUG-CC-PVTZ AUX)
    Blend: AUG-CC-PVTZ-JKFIT

    Orbital Energies [Eh]
    ---------------------

    Doubly Occupied:

       1A    -20.539733     2A    -20.537810     3A    -15.638624
       4A    -15.626670     5A    -11.413639     6A    -11.377333
       7A    -11.325098     8A    -11.285868     9A    -11.259960
      10A    -11.237478    11A     -1.421124    12A     -1.386443
      13A     -1.304874    14A     -1.246229    15A     -1.109253
      16A     -0.993488    17A     -0.964319    18A     -0.915445
      19A     -0.854884    20A     -0.771117    21A     -0.736972
      22A     -0.691825    23A     -0.683084    24A     -0.650467
      25A     -0.634171    26A     -0.618020    27A     -0.609666
      28A     -0.587251    29A     -0.584081    30A     -0.554097
      31A     -0.548011    32A     -0.542766    33A     -0.488017
      34A     -0.473020    35A     -0.444958    36A     -0.431000
      37A     -0.346175

  @DF-RHF Final Energy:  -490.71107408687823

   => Energetics <=

    Nuclear Repulsion Energy =            530.4116679836448611
    One-Electron Energy =               -1720.5795436069190600
    Two-Electron Energy =                 699.4568015363958011
    Total Energy =                       -490.7110740868782841
  Basis Set: (AUG-CC-PVTZ AUX)
    Blend: AUG-CC-PVTZ-RI
    Molecular point group: c1

    Geometry (in Angstrom), charge = 0, multiplicity = 1:

       Center              X                  Y                   Z               Mass
    ------------   -----------------  -----------------  -----------------  -----------------
         O            2.310050074797    -1.333087727046     0.000059358165    15.994914619570
         O           -2.272991925203    -1.424976727046    -0.000129641835    15.994914619570
         N            1.181499074797     0.690818272954     0.000056358165    14.003074004430
         N            0.014232074797    -1.310871727046    -0.000032641835    14.003074004430
         C           -1.235785925203     0.730040272954    -0.000023641835    12.000000000000
         C           -0.033036925203     1.355061272954     0.000036358165    12.000000000000
         C            1.247371874797    -0.696187427046     0.000031858165    12.000000000000
         C           -1.255404925203    -0.730196727046    -0.000065641835    12.000000000000
         C            2.416474174797     1.470383972954     0.000125258165    12.000000000000
         C           -2.551587925203     1.441113272954    -0.000055641835    12.000000000000
         H            0.050556074797     2.439287272954     0.000070358165     1.007825032230
         H            0.045069074797    -2.328234727046    -0.000059641835     1.007825032230
         H            2.478904074797     2.086306272954     0.893516358165     1.007825032230
         H            2.478760074797     2.086662272954    -0.893076641835     1.007825032230
         H            3.245561074797     0.747617272954    -0.000050641835     1.007825032230
         H           -3.138661925203     1.160186272954    -0.878594641835     1.007825032230
         H           -2.411426925203     2.525825272954    -0.000021641835     1.007825032230
         H           -3.138727925203     1.160140272954     0.878424358165     1.007825032230

  Basis Set: AUG-CC-PVTZ
    Blend: AUG-CC-PVTZ
  Basis Set: (AUG-CC-PVTZ AUX)
    Blend: AUG-CC-PVTZ-JKFIT
	 Reference Energy          =    -490.7110740868782273 [Eh]
	 Singles Energy            =      -0.0000000000000000 [Eh]
	 Same-Spin Energy          =      -0.5025701309253719 [Eh]
	 Opposite-Spin Energy      =      -1.5417437202785904 [Eh]
	 Correlation Energy        =      -2.0443138512039623 [Eh]
	 Total Energy              =    -492.7553879380822082 [Eh]

	 ================> DF-SCS-MP2 Energies <==================
	-----------------------------------------------------------
	 SCS Same-Spin Scale       =       0.3333333333333333 [-]
	 SCS Opposite-Spin Scale   =       1.2000000000000000 [-]
	 SCS Same-Spin Energy      =      -0.1675233769751240 [Eh]
	 SCS Opposite-Spin Energy  =      -1.8500924643343084 [Eh]
	 SCS Correlation Energy    =      -2.0176158413094325 [Eh]
	 SCS Total Energy          =    -492.7286899281876345 [Eh]
	-----------------------------------------------------------

  Dipole Moment: [D]
     X:     0.9456      Y:     4.5429      Z:     0.0002     Total:     4.6403

*** Psi4 exiting successfully. Buy a developer a beer!
