                               Psi4 1.3.2 release

  ==> Input File <==

--------------------------------------------------------------------------
#psi4
#
memory 32 gb

molecule  {
0 1
  O        2.3111590    -1.3984000     0.0000580
  O       -2.2718830    -1.4902890    -0.0001310
  N        1.1826080     0.6255060     0.0000550
  N        0.0153410    -1.3761840    -0.0000340
  C       -1.2346770     0.6647280    -0.0000250
  C       -0.0319280     1.2897490     0.0000350
  C        1.2551650    -0.7500288     0.0000311
  C       -1.2491804    -0.7844516    -0.0000665
  C        2.4243390     1.3942650     0.0001240
  C       -2.5504790     1.3758010    -0.0000570
  H        0.0516650     2.3739750     0.0000690
  H        0.0461780    -2.3935470    -0.0000610
  H        2.4800130     2.0209940     0.8935150
  H        2.4798690     2.0213500    -0.8930780
  H        3.2466700     0.6823050    -0.0000520
  H       -3.1375530     1.0948740    -0.8785960
  H       -2.4103180     2.4605130    -0.0000230
  H       -3.1376190     1.0948280     0.8784230
units angstrom
no_reorient  #important for SAPT in psi4, default
symmetry c1  #important for SAPT in psi4, default
}

set PROPERTIES_ORIGIN ["COM"]
properties('MP2/aug-cc-pvtz', properties = ['dipole'])
--------------------------------------------------------------------------

    Molecular point group: c1
  Charge       = 0
  Multiplicity = 1
  Basis Set: AUG-CC-PVTZ
    Blend: AUG-CC-PVTZ
  Basis Set: (AUG-CC-PVTZ AUX)
    Blend: AUG-CC-PVTZ-JKFIT

    Orbital Energies [Eh]
    ---------------------

    Doubly Occupied:

       1A    -20.537836     2A    -20.536767     3A    -15.641069
       4A    -15.625602     5A    -11.413374     6A    -11.376276
       7A    -11.327372     8A    -11.287504     9A    -11.261099
      10A    -11.238235    11A     -1.420561    12A     -1.379877
      13A     -1.307247    14A     -1.242575    15A     -1.112067
      16A     -0.995383    17A     -0.966483    18A     -0.917447
      19A     -0.852641    20A     -0.772997    21A     -0.737393
      22A     -0.692781    23A     -0.683903    24A     -0.648443
      25A     -0.634167    26A     -0.615723    27A     -0.608628
      28A     -0.590252    29A     -0.584020    30A     -0.556651
      31A     -0.548827    32A     -0.540336    33A     -0.488385
      34A     -0.473401    35A     -0.443188    36A     -0.428296
      37A     -0.348016

  @DF-RHF Final Energy:  -490.71008297339245

   => Energetics <=

    Nuclear Repulsion Energy =            530.5175165373990467
    One-Electron Energy =               -1720.7855572916500932
    Two-Electron Energy =                 699.5579577808587146
    Total Energy =                       -490.7100829733924456
  Basis Set: (AUG-CC-PVTZ AUX)
    Blend: AUG-CC-PVTZ-RI
    Molecular point group: c1

    Geometry (in Angstrom), charge = 0, multiplicity = 1:

       Center              X                  Y                   Z               Mass
    ------------   -----------------  -----------------  -----------------  -----------------
         O            2.308460251425    -1.334092015413     0.000059255351    15.994914619570
         O           -2.274581748575    -1.425981015413    -0.000129744649    15.994914619570
         N            1.179909251425     0.689813984587     0.000056255351    14.003074004430
         N            0.012642251425    -1.311876015413    -0.000032744649    14.003074004430
         C           -1.237375748575     0.729035984587    -0.000023744649    12.000000000000
         C           -0.034626748575     1.354056984587     0.000036255351    12.000000000000
         C            1.252466251425    -0.685720815413     0.000032355351    12.000000000000
         C           -1.251879148575    -0.720143615413    -0.000065244649    12.000000000000
         C            2.421640251425     1.458572984587     0.000125255351    12.000000000000
         C           -2.553177748575     1.440108984587    -0.000055744649    12.000000000000
         H            0.048966251425     2.438282984587     0.000070255351     1.007825032230
         H            0.043479251425    -2.329239015413    -0.000059744649     1.007825032230
         H            2.477314251425     2.085301984587     0.893516255351     1.007825032230
         H            2.477170251425     2.085657984587    -0.893076744649     1.007825032230
         H            3.243971251425     0.746612984587    -0.000050744649     1.007825032230
         H           -3.140251748575     1.159181984587    -0.878594744649     1.007825032230
         H           -2.413016748575     2.524820984587    -0.000021744649     1.007825032230
         H           -3.140317748575     1.159135984587     0.878424255351     1.007825032230

  Basis Set: AUG-CC-PVTZ
    Blend: AUG-CC-PVTZ
  Basis Set: (AUG-CC-PVTZ AUX)
    Blend: AUG-CC-PVTZ-JKFIT
	 Reference Energy          =    -490.7100829733924456 [Eh]
	 Singles Energy            =      -0.0000000000000000 [Eh]
	 Same-Spin Energy          =      -0.5028363698399509 [Eh]
	 Opposite-Spin Energy      =      -1.5422527104869861 [Eh]
	 Correlation Energy        =      -2.0450890803269370 [Eh]
	 Total Energy              =    -492.7551720537193773 [Eh]

	 ================> DF-SCS-MP2 Energies <==================
	-----------------------------------------------------------
	 SCS Same-Spin Scale       =       0.3333333333333333 [-]
	 SCS Opposite-Spin Scale   =       1.2000000000000000 [-]
	 SCS Same-Spin Energy      =      -0.1676121232799836 [Eh]
	 SCS Opposite-Spin Energy  =      -1.8507032525843832 [Eh]
	 SCS Correlation Energy    =      -2.0183153758643666 [Eh]
	 SCS Total Energy          =    -492.7283983492567927 [Eh]
	-----------------------------------------------------------

  Dipole Moment: [D]
     X:     1.0332      Y:     4.6848      Z:     0.0002     Total:     4.7974

*** Psi4 exiting successfully. Buy a developer a beer!
