                               Psi4 1.3.2 release

  ==> Input File <==

--------------------------------------------------------------------------
#psi4
#
memory 32 gb

molecule  {
0 1
  O        2.3111590    -1.3984000     0.0000580
  O       -2.2718830    -1.4902890    -0.0001310
  N        1.1826080     0.6255060     0.0000550
  N        0.0153410    -1.3761840    -0.0000340
  C       -1.2346770     0.6647280    -0.0000250
  C       -0.0319280     1.2897490     0.0000350
  C        1.2605820    -0.7608720     0.0000310
  C       -1.2221658    -0.7298571    -0.0000639
  C        2.4243390     1.3942650     0.0001240
  C       -2.5504790     1.3758010    -0.0000570
  H        0.0516650     2.3739750     0.0000690
  H        0.0993804    -2.3905389    -0.0000589
  H        2.4800130     2.0209940     0.8935150
  H        2.4798690     2.0213500    -0.8930780
  H        3.2466700     0.6823050    -0.0000520
  H       -3.1375530     1.0948740    -0.8785960
  H       -2.4103180     2.4605130    -0.0000230
  H       -3.1376190     1.0948280     0.8784230
units angstrom
no_reorient  #important for SAPT in psi4, default
symmetry c1  #important for SAPT in psi4, default
}

set PROPERTIES_ORIGIN ["COM"]
properties('MP2/aug-cc-pvtz', properties = ['dipole'])
--------------------------------------------------------------------------

    Molecular point group: c1
  Charge       = 0
  Multiplicity = 1
  Basis Set: AUG-CC-PVTZ
    Blend: AUG-CC-PVTZ
  Basis Set: (AUG-CC-PVTZ AUX)
    Blend: AUG-CC-PVTZ-JKFIT

    Orbital Energies [Eh]
    ---------------------

    Doubly Occupied:

       1A    -20.542922     2A    -20.524773     3A    -15.645262
       4A    -15.628459     5A    -11.414261     6A    -11.375295
       7A    -11.335668     8A    -11.290115     9A    -11.259592
      10A    -11.239328    11A     -1.426042    12A     -1.352649
      13A     -1.308613    14A     -1.237636    15A     -1.121908
      16A     -0.996830    17A     -0.966962    18A     -0.929413
      19A     -0.851251    20A     -0.775605    21A     -0.745155
      22A     -0.695910    23A     -0.686305    24A     -0.646543
      25A     -0.635645    26A     -0.615591    27A     -0.600338
      28A     -0.587162    29A     -0.586310    30A     -0.559685
      31A     -0.548585    32A     -0.531081    33A     -0.492617
      34A     -0.475696    35A     -0.436535    36A     -0.421633
      37A     -0.350488

  @DF-RHF Final Energy:  -490.69696526904607

   => Energetics <=

    Nuclear Repulsion Energy =            530.7764755945123625
    One-Electron Energy =               -1721.2711577198824671
    Two-Electron Energy =                 699.7977168563240866
    Total Energy =                       -490.6969652690461317
  Basis Set: (AUG-CC-PVTZ AUX)
    Blend: AUG-CC-PVTZ-RI
    Molecular point group: c1

    Geometry (in Angstrom), charge = 0, multiplicity = 1:

       Center              X                  Y                   Z               Mass
    ------------   -----------------  -----------------  -----------------  -----------------
         O            2.305298732021    -1.337862203914     0.000059026044    15.994914619570
         O           -2.277743267979    -1.429751203914    -0.000129973956    15.994914619570
         N            1.176747732021     0.686043796086     0.000056026044    14.003074004430
         N            0.009480732021    -1.315646203914    -0.000032973956    14.003074004430
         C           -1.240537267979     0.725265796086    -0.000023973956    12.000000000000
         C           -0.037788267979     1.350286796086     0.000036026044    12.000000000000
         C            1.254721732021    -0.700334203914     0.000032026044    12.000000000000
         C           -1.228026067979    -0.669319303914    -0.000062873956    12.000000000000
         C            2.418478732021     1.454802796086     0.000125026044    12.000000000000
         C           -2.556339267979     1.436338796086    -0.000055973956    12.000000000000
         H            0.045804732021     2.434512796086     0.000070026044     1.007825032230
         H            0.093520132021    -2.330001103914    -0.000057873956     1.007825032230
         H            2.474152732021     2.081531796086     0.893516026044     1.007825032230
         H            2.474008732021     2.081887796086    -0.893076973956     1.007825032230
         H            3.240809732021     0.742842796086    -0.000050973956     1.007825032230
         H           -3.143413267979     1.155411796086    -0.878594973956     1.007825032230
         H           -2.416178267979     2.521050796086    -0.000021973956     1.007825032230
         H           -3.143479267979     1.155365796086     0.878424026044     1.007825032230

  Basis Set: AUG-CC-PVTZ
    Blend: AUG-CC-PVTZ
  Basis Set: (AUG-CC-PVTZ AUX)
    Blend: AUG-CC-PVTZ-JKFIT
	 Reference Energy          =    -490.6969652690460748 [Eh]
	 Singles Energy            =      -0.0000000000000000 [Eh]
	 Same-Spin Energy          =      -0.5045848272548857 [Eh]
	 Opposite-Spin Energy      =      -1.5450956090585102 [Eh]
	 Correlation Energy        =      -2.0496804363133960 [Eh]
	 Total Energy              =    -492.7466457053594695 [Eh]

	 ================> DF-SCS-MP2 Energies <==================
	-----------------------------------------------------------
	 SCS Same-Spin Scale       =       0.3333333333333333 [-]
	 SCS Opposite-Spin Scale   =       1.2000000000000000 [-]
	 SCS Same-Spin Energy      =      -0.1681949424182952 [Eh]
	 SCS Opposite-Spin Energy  =      -1.8541147308702122 [Eh]
	 SCS Correlation Energy    =      -2.0223096732885075 [Eh]
	 SCS Total Energy          =    -492.7192749423346072 [Eh]
	-----------------------------------------------------------

  Dipole Moment: [D]
     X:     1.4604      Y:     4.9259      Z:     0.0002     Total:     5.1378

*** Psi4 exiting successfully. Buy a developer a beer!
