                               Psi4 1.3.2 release

  ==> Input File <==

--------------------------------------------------------------------------
#psi4
#
memory 32 gb

molecule  {
0 1
  O        2.3111590    -1.3984000     0.0000580
  O       -2.2718830    -1.4902890    -0.0001310
  N        1.1826080     0.6255060     0.0000550
  N        0.0153410    -1.3761840    -0.0000340
  C       -1.2346770     0.6647280    -0.0000250
  C       -0.0319280     1.2897490     0.0000350
  C        1.2605820    -0.7608720     0.0000310
  C       -1.2542960    -0.7955090    -0.0000670
  C        2.4243390     1.3942650     0.0001240
  C       -2.5504790     1.3758010    -0.0000570
  H        0.0516650     2.3739750     0.0000690
  H        0.0461780    -2.3935470    -0.0000610
  H        2.4800130     2.0209940     0.8935150
  H        2.4747874     1.9639647    -0.8113400
  H        3.2466700     0.6823050    -0.0000520
  H       -3.1375530     1.0948740    -0.8785960
  H       -2.4103180     2.4605130    -0.0000230
  H       -3.1376190     1.0948280     0.8784230
units angstrom
no_reorient  #important for SAPT in psi4, default
symmetry c1  #important for SAPT in psi4, default
}

set PROPERTIES_ORIGIN ["COM"]
properties('MP2/aug-cc-pvtz', properties = ['dipole'])
--------------------------------------------------------------------------

    Molecular point group: c1
  Charge       = 0
  Multiplicity = 1
  Basis Set: AUG-CC-PVTZ
    Blend: AUG-CC-PVTZ
  Basis Set: (AUG-CC-PVTZ AUX)
    Blend: AUG-CC-PVTZ-JKFIT

    Orbital Energies [Eh]
    ---------------------

    Doubly Occupied:

       1A    -20.540033     2A    -20.538197     3A    -15.637282
       4A    -15.624242     5A    -11.413160     6A    -11.375900
       7A    -11.324889     8A    -11.273904     9A    -11.259283
      10A    -11.236942    11A     -1.423647    12A     -1.386661
      13A     -1.306582    14A     -1.242774    15A     -1.109144
      16A     -1.001480    17A     -0.964514    18A     -0.913963
      19A     -0.855013    20A     -0.770693    21A     -0.736396
      22A     -0.692695    23A     -0.686317    24A     -0.651010
      25A     -0.637510    26A     -0.622571    27A     -0.609406
      28A     -0.591821    29A     -0.584186    30A     -0.555524
      31A     -0.547843    32A     -0.544083    33A     -0.489909
      34A     -0.474895    35A     -0.443990    36A     -0.430295
      37A     -0.345742

  @DF-RHF Final Energy:  -490.70594262087604

   => Energetics <=

    Nuclear Repulsion Energy =            530.8748147707896123
    One-Electron Energy =               -1721.4765181274742645
    Two-Electron Energy =                 699.8957607358084942
    Total Energy =                       -490.7059426208760442
  Basis Set: (AUG-CC-PVTZ AUX)
    Blend: AUG-CC-PVTZ-RI
    Molecular point group: c1

    Geometry (in Angstrom), charge = 0, multiplicity = 1:

       Center              X                  Y                   Z               Mass
    ------------   -----------------  -----------------  -----------------  -----------------
         O            2.308470993814    -1.331802676569    -0.000528858593    15.994914619570
         O           -2.274571006186    -1.423691676569    -0.000717858593    15.994914619570
         N            1.179919993814     0.692103323431    -0.000531858593    14.003074004430
         N            0.012652993814    -1.309586676569    -0.000620858593    14.003074004430
         C           -1.237365006186     0.731325323431    -0.000611858593    12.000000000000
         C           -0.034616006186     1.356346323431    -0.000551858593    12.000000000000
         C            1.257893993814    -0.694274676569    -0.000555858593    12.000000000000
         C           -1.256984006186    -0.728911676569    -0.000653858593    12.000000000000
         C            2.421650993814     1.460862323431    -0.000462858593    12.000000000000
         C           -2.553167006186     1.442398323431    -0.000643858593    12.000000000000
         H            0.048976993814     2.440572323431    -0.000517858593     1.007825032230
         H            0.043489993814    -2.326949676569    -0.000647858593     1.007825032230
         H            2.477324993814     2.087591323431     0.892928141407     1.007825032230
         H            2.472099393814     2.030562023431    -0.811926858593     1.007825032230
         H            3.243981993814     0.748902323431    -0.000638858593     1.007825032230
         H           -3.140241006186     1.161471323431    -0.879182858593     1.007825032230
         H           -2.413006006186     2.527110323431    -0.000609858593     1.007825032230
         H           -3.140307006186     1.161425323431     0.877836141407     1.007825032230

  Basis Set: AUG-CC-PVTZ
    Blend: AUG-CC-PVTZ
  Basis Set: (AUG-CC-PVTZ AUX)
    Blend: AUG-CC-PVTZ-JKFIT
	 Reference Energy          =    -490.7059426208760442 [Eh]
	 Singles Energy            =      -0.0000000000000000 [Eh]
	 Same-Spin Energy          =      -0.5024106363325311 [Eh]
	 Opposite-Spin Energy      =      -1.5409883229562462 [Eh]
	 Correlation Energy        =      -2.0433989592887771 [Eh]
	 Total Energy              =    -492.7493415801648098 [Eh]

	 ================> DF-SCS-MP2 Energies <==================
	-----------------------------------------------------------
	 SCS Same-Spin Scale       =       0.3333333333333333 [-]
	 SCS Opposite-Spin Scale   =       1.2000000000000000 [-]
	 SCS Same-Spin Energy      =      -0.1674702121108437 [Eh]
	 SCS Opposite-Spin Energy  =      -1.8491859875474954 [Eh]
	 SCS Correlation Energy    =      -2.0166561996583390 [Eh]
	 SCS Total Energy          =    -492.7225988205343583 [Eh]
	-----------------------------------------------------------

  Dipole Moment: [D]
     X:     1.0816      Y:     4.5582      Z:    -0.0238     Total:     4.6848

*** Psi4 exiting successfully. Buy a developer a beer!
