                               Psi4 1.4a3.dev225

  ==> Input File <==

--------------------------------------------------------------------------
#psi4
#
memory 32 gb

molecule  {
0 1
  O        2.3212770    -1.3580180     0.0000020
  O       -2.2717460    -1.4962290     0.0000010
  N        1.1724310     0.6334210    -0.0000020
  N        0.0162060    -1.3769820    -0.0000020
  C       -1.2398930     0.6613320     0.0000000
  C       -0.0398910     1.2934770    -0.0000010
  C        1.2527440    -0.7526170    -0.0000010
  C       -1.2753795    -0.8078158     0.0000000
  C        2.4447950     1.3519700     0.0000010
  C       -2.5550880     1.3760200     0.0000010
  H        0.0310140     2.3780990    -0.0000010
  H        0.0457120    -2.3937650    -0.0000010
  H        2.2343430     2.4214070    -0.0000200
  H        3.0241620     1.0875710    -0.8862110
  H        3.0241420     1.0876020     0.8862360
  H       -3.1432670     1.0977880    -0.8790540
  H       -2.4120010     2.4600010     0.0000010
  H       -3.1432670     1.0977870     0.8790540
units angstrom
no_reorient  #important for SAPT in psi4, default
symmetry c1  #important for SAPT in psi4, default
}

set PROPERTIES_ORIGIN ["COM"]
properties('MP2/aug-cc-pvtz', properties = ['dipole'])
--------------------------------------------------------------------------

    Molecular point group: c1
  Charge       = 0
  Multiplicity = 1
  Basis Set: AUG-CC-PVTZ
    Blend: AUG-CC-PVTZ
  Basis Set: (AUG-CC-PVTZ AUX)
    Blend: AUG-CC-PVTZ-JKFIT

    Orbital Energies [Eh]
    ---------------------

    Doubly Occupied:

       1A    -20.542632     2A    -20.539646     3A    -15.636630
       4A    -15.622213     5A    -11.410177     6A    -11.376281
       7A    -11.324732     8A    -11.287509     9A    -11.256738
      10A    -11.236075    11A     -1.424854    12A     -1.399118
      13A     -1.305158    14A     -1.241576    15A     -1.106487
      16A     -0.992573    17A     -0.961140    18A     -0.911372
      19A     -0.851181    20A     -0.769585    21A     -0.732090
      22A     -0.693457    23A     -0.681525    24A     -0.653123
      25A     -0.637043    26A     -0.613271    27A     -0.611694
      28A     -0.589886    29A     -0.580682    30A     -0.557517
      31A     -0.548375    32A     -0.544218    33A     -0.490736
      34A     -0.475130    35A     -0.445218    36A     -0.431653
      37A     -0.342848

  @DF-RHF Final Energy:  -490.71342059825440

   => Energetics <=

    Nuclear Repulsion Energy =            530.6402931431173329
    One-Electron Energy =               -1721.0591471129869205
    Two-Electron Energy =                 699.7054333716151859
    Total Energy =                       -490.7134205982544017
  Basis Set: (AUG-CC-PVTZ AUX)
    Blend: AUG-CC-PVTZ-RI
    Molecular point group: c1

    Geometry (in Angstrom), charge = 0, multiplicity = 1:

       Center              X                  Y                   Z               Mass
    ------------   -----------------  -----------------  -----------------  -----------------
         O            2.320259925285    -1.291699915728     0.000002028533    15.994914619570
         O           -2.272763074715    -1.429910915728     0.000001028533    15.994914619570
         N            1.171413925285     0.699739084272    -0.000001971467    14.003074004430
         N            0.015188925285    -1.310663915728    -0.000001971467    14.003074004430
         C           -1.240910074715     0.727650084272     0.000000028533    12.000000000000
         C           -0.040908074715     1.359795084272    -0.000000971467    12.000000000000
         C            1.251726925285    -0.686298915728    -0.000000971467    12.000000000000
         C           -1.276396574715    -0.741497715728     0.000000028533    12.000000000000
         C            2.443777925285     1.418288084272     0.000001028533    12.000000000000
         C           -2.556105074715     1.442338084272     0.000001028533    12.000000000000
         H            0.029996925285     2.444417084272    -0.000000971467     1.007825032230
         H            0.044694925285    -2.327446915728    -0.000000971467     1.007825032230
         H            2.233325925285     2.487725084272    -0.000019971467     1.007825032230
         H            3.023144925285     1.153889084272    -0.886210971467     1.007825032230
         H            3.023124925285     1.153920084272     0.886236028533     1.007825032230
         H           -3.144284074715     1.164106084272    -0.879053971467     1.007825032230
         H           -2.413018074715     2.526319084272     0.000001028533     1.007825032230
         H           -3.144284074715     1.164105084272     0.879054028533     1.007825032230

  Basis Set: AUG-CC-PVTZ
    Blend: AUG-CC-PVTZ
  Basis Set: (AUG-CC-PVTZ AUX)
    Blend: AUG-CC-PVTZ-JKFIT
	 Reference Energy          =    -490.7134205982544017 [Eh]
	 Singles Energy            =      -0.0000000000000000 [Eh]
	 Same-Spin Energy          =      -0.5018570693996016 [Eh]
	 Opposite-Spin Energy      =      -1.5404420888532155 [Eh]
	 Correlation Energy        =      -2.0422991582528169 [Eh]
	 Total Energy              =    -492.7557197565072329 [Eh]

	 ================> DF-SCS-MP2 Energies <==================
	-----------------------------------------------------------
	 SCS Same-Spin Scale       =       0.3333333333333333 [-]
	 SCS Opposite-Spin Scale   =       1.2000000000000000 [-]
	 SCS Same-Spin Energy      =      -0.1672856897998672 [Eh]
	 SCS Opposite-Spin Energy  =      -1.8485305066238586 [Eh]
	 SCS Correlation Energy    =      -2.0158161964237258 [Eh]
	 SCS Total Energy          =    -492.7292367946781155 [Eh]
	-----------------------------------------------------------

  Dipole Moment: [D]
     X:     0.9321      Y:     4.4219      Z:    -0.0000     Total:     4.5190

*** Psi4 exiting successfully. Buy a developer a beer!
