                               Psi4 1.4a3.dev225

  ==> Input File <==

--------------------------------------------------------------------------
#psi4
#
memory 32 gb

molecule  {
0 1
  O        2.3212770    -1.3580180     0.0000020
  O       -2.2717460    -1.4962290     0.0000010
  N        1.1724310     0.6334210    -0.0000020
  N        0.0162060    -1.3769820    -0.0000020
  C       -1.2398930     0.6613320     0.0000000
  C       -0.0398910     1.2934770    -0.0000010
  C        1.2527440    -0.7526170    -0.0000010
  C       -1.2589250    -0.7964470     0.0000000
  C        2.4447950     1.3519700     0.0000010
  C       -2.5550880     1.3760200     0.0000010
  H        0.0310140     2.3780990    -0.0000010
  H        0.0457120    -2.3937650    -0.0000010
  H        2.2343430     2.4214070    -0.0000200
  H        3.0347799     1.0827254    -0.9024523
  H        3.0241420     1.0876020     0.8862360
  H       -3.1432670     1.0977880    -0.8790540
  H       -2.4120010     2.4600010     0.0000010
  H       -3.1432670     1.0977870     0.8790540
units angstrom
no_reorient  #important for SAPT in psi4, default
symmetry c1  #important for SAPT in psi4, default
}

set PROPERTIES_ORIGIN ["COM"]
properties('MP2/aug-cc-pvtz', properties = ['dipole'])
--------------------------------------------------------------------------

    Molecular point group: c1
  Charge       = 0
  Multiplicity = 1
  Basis Set: AUG-CC-PVTZ
    Blend: AUG-CC-PVTZ
  Basis Set: (AUG-CC-PVTZ AUX)
    Blend: AUG-CC-PVTZ-JKFIT

    Orbital Energies [Eh]
    ---------------------

    Doubly Occupied:

       1A    -20.541156     2A    -20.538109     3A    -15.638795
       4A    -15.624899     5A    -11.411561     6A    -11.375973
       7A    -11.326537     8A    -11.290945     9A    -11.257280
      10A    -11.236524    11A     -1.424942    12A     -1.387320
      13A     -1.306611    14A     -1.243608    15A     -1.108691
      16A     -0.992407    17A     -0.962379    18A     -0.914866
      19A     -0.852509    20A     -0.770911    21A     -0.735254
      22A     -0.693665    23A     -0.682399    24A     -0.650037
      25A     -0.636689    26A     -0.611626    27A     -0.608954
      28A     -0.590397    29A     -0.581034    30A     -0.557804
      31A     -0.547902    32A     -0.539745    33A     -0.491617
      34A     -0.475549    35A     -0.444290    36A     -0.430316
      37A     -0.343905

  @DF-RHF Final Energy:  -490.71196781378438

   => Energetics <=

    Nuclear Repulsion Energy =            530.6584641447310560
    One-Electron Energy =               -1721.0864551984673199
    Two-Electron Energy =                 699.7160232399517099
    Total Energy =                       -490.7119678137844403
  Basis Set: (AUG-CC-PVTZ AUX)
    Blend: AUG-CC-PVTZ-RI
    Molecular point group: c1

    Geometry (in Angstrom), charge = 0, multiplicity = 1:

       Center              X                  Y                   Z               Mass
    ------------   -----------------  -----------------  -----------------  -----------------
         O            2.318773725802    -1.292639109067     0.000118896696    15.994914619570
         O           -2.274249274198    -1.430850109067     0.000117896696    15.994914619570
         N            1.169927725802     0.698799890933     0.000114896696    14.003074004430
         N            0.013702725802    -1.311603109067     0.000114896696    14.003074004430
         C           -1.242396274198     0.726710890933     0.000116896696    12.000000000000
         C           -0.042394274198     1.358855890933     0.000115896696    12.000000000000
         C            1.250240725802    -0.687238109067     0.000115896696    12.000000000000
         C           -1.261428274198    -0.731068109067     0.000116896696    12.000000000000
         C            2.442291725802     1.417348890933     0.000117896696    12.000000000000
         C           -2.557591274198     1.441398890933     0.000117896696    12.000000000000
         H            0.028510725802     2.443477890933     0.000115896696     1.007825032230
         H            0.043208725802    -2.328386109067     0.000115896696     1.007825032230
         H            2.231839725802     2.486785890933     0.000096896696     1.007825032230
         H            3.032276625802     1.148104290933    -0.902335403304     1.007825032230
         H            3.021638725802     1.152980890933     0.886352896696     1.007825032230
         H           -3.145770274198     1.163166890933    -0.878937103304     1.007825032230
         H           -2.414504274198     2.525379890933     0.000117896696     1.007825032230
         H           -3.145770274198     1.163165890933     0.879170896696     1.007825032230

  Basis Set: AUG-CC-PVTZ
    Blend: AUG-CC-PVTZ
  Basis Set: (AUG-CC-PVTZ AUX)
    Blend: AUG-CC-PVTZ-JKFIT
	 Reference Energy          =    -490.7119678137843835 [Eh]
	 Singles Energy            =      -0.0000000000000000 [Eh]
	 Same-Spin Energy          =      -0.5023861405539157 [Eh]
	 Opposite-Spin Energy      =      -1.5414483583849241 [Eh]
	 Correlation Energy        =      -2.0438344989388399 [Eh]
	 Total Energy              =    -492.7558023127232332 [Eh]

	 ================> DF-SCS-MP2 Energies <==================
	-----------------------------------------------------------
	 SCS Same-Spin Scale       =       0.3333333333333333 [-]
	 SCS Opposite-Spin Scale   =       1.2000000000000000 [-]
	 SCS Same-Spin Energy      =      -0.1674620468513052 [Eh]
	 SCS Opposite-Spin Energy  =      -1.8497380300619088 [Eh]
	 SCS Correlation Energy    =      -2.0172000769132139 [Eh]
	 SCS Total Energy          =    -492.7291678906976244 [Eh]
	-----------------------------------------------------------

  Dipole Moment: [D]
     X:     1.0885      Y:     4.5065      Z:     0.0042     Total:     4.6361

*** Psi4 exiting successfully. Buy a developer a beer!
