                               Psi4 1.3.2 release

  ==> Input File <==

--------------------------------------------------------------------------
#psi4
#
memory 32 gb

molecule  {
0 1
  O        2.3111590    -1.3984000     0.0000580
  O       -2.2718830    -1.4902890    -0.0001310
  N        1.1826080     0.6255060     0.0000550
  N        0.0153410    -1.3761840    -0.0000340
  C       -1.2346770     0.6647280    -0.0000250
  C       -0.0265195     1.2792294     0.0000349
  C        1.2605820    -0.7608720     0.0000310
  C       -1.2415524    -0.7956246    -0.0000666
  C        2.4243390     1.3942650     0.0001240
  C       -2.5504790     1.3758010    -0.0000570
  H        0.0516650     2.3739750     0.0000690
  H        0.0461780    -2.3935470    -0.0000610
  H        2.4800130     2.0209940     0.8935150
  H        2.4798690     2.0213500    -0.8930780
  H        3.2466700     0.6823050    -0.0000520
  H       -3.1375530     1.0948740    -0.8785960
  H       -2.4103180     2.4605130    -0.0000230
  H       -3.1376190     1.0948280     0.8784230
units angstrom
no_reorient  #important for SAPT in psi4, default
symmetry c1  #important for SAPT in psi4, default
}

set PROPERTIES_ORIGIN ["COM"]
properties('MP2/aug-cc-pvtz', properties = ['dipole'])
--------------------------------------------------------------------------

    Molecular point group: c1
  Charge       = 0
  Multiplicity = 1
  Basis Set: AUG-CC-PVTZ
    Blend: AUG-CC-PVTZ
  Basis Set: (AUG-CC-PVTZ AUX)
    Blend: AUG-CC-PVTZ-JKFIT

    Orbital Energies [Eh]
    ---------------------

    Doubly Occupied:

       1A    -20.542274     2A    -20.535105     3A    -15.639925
       4A    -15.626858     5A    -11.415371     6A    -11.375100
       7A    -11.324995     8A    -11.287333     9A    -11.259078
      10A    -11.236993    11A     -1.425909    12A     -1.380600
      13A     -1.309960    14A     -1.246029    15A     -1.108639
      16A     -0.995003    17A     -0.964672    18A     -0.915010
      19A     -0.855835    20A     -0.771902    21A     -0.736883
      22A     -0.690677    23A     -0.684410    24A     -0.649741
      25A     -0.636810    26A     -0.616269    27A     -0.606141
      28A     -0.589540    29A     -0.583968    30A     -0.556737
      31A     -0.547196    32A     -0.541551    33A     -0.490306
      34A     -0.475379    35A     -0.442847    36A     -0.430100
      37A     -0.345321

  @DF-RHF Final Energy:  -490.71103660220672

   => Energetics <=

    Nuclear Repulsion Energy =            530.6576377864782899
    One-Electron Energy =               -1721.0564134339699649
    Two-Electron Energy =                 699.6877390452849568
    Total Energy =                       -490.7110366022067183
  Basis Set: (AUG-CC-PVTZ AUX)
    Blend: AUG-CC-PVTZ-RI
    Molecular point group: c1

    Geometry (in Angstrom), charge = 0, multiplicity = 1:

       Center              X                  Y                   Z               Mass
    ------------   -----------------  -----------------  -----------------  -----------------
         O            2.306879184389    -1.331304398924     0.000059281055    15.994914619570
         O           -2.276162815611    -1.423193398924    -0.000129718945    15.994914619570
         N            1.178328184389     0.692601601076     0.000056281055    14.003074004430
         N            0.011061184389    -1.309088398924    -0.000032718945    14.003074004430
         C           -1.238956815611     0.731823601076    -0.000023718945    12.000000000000
         C           -0.030799315611     1.346325001076     0.000036181055    12.000000000000
         C            1.256302184389    -0.693776398924     0.000032281055    12.000000000000
         C           -1.245832215611    -0.728528998924    -0.000065318945    12.000000000000
         C            2.420059184389     1.461360601076     0.000125281055    12.000000000000
         C           -2.554758815611     1.442896601076    -0.000055718945    12.000000000000
         H            0.047385184389     2.441070601076     0.000070281055     1.007825032230
         H            0.041898184389    -2.326451398924    -0.000059718945     1.007825032230
         H            2.475733184389     2.088089601076     0.893516281055     1.007825032230
         H            2.475589184389     2.088445601076    -0.893076718945     1.007825032230
         H            3.242390184389     0.749400601076    -0.000050718945     1.007825032230
         H           -3.141832815611     1.161969601076    -0.878594718945     1.007825032230
         H           -2.414597815611     2.527608601076    -0.000021718945     1.007825032230
         H           -3.141898815611     1.161923601076     0.878424281055     1.007825032230

  Basis Set: AUG-CC-PVTZ
    Blend: AUG-CC-PVTZ
  Basis Set: (AUG-CC-PVTZ AUX)
    Blend: AUG-CC-PVTZ-JKFIT
	 Reference Energy          =    -490.7110366022067183 [Eh]
	 Singles Energy            =      -0.0000000000000000 [Eh]
	 Same-Spin Energy          =      -0.5026715494815244 [Eh]
	 Opposite-Spin Energy      =      -1.5417766475558015 [Eh]
	 Correlation Energy        =      -2.0444481970373261 [Eh]
	 Total Energy              =    -492.7554847992440727 [Eh]

	 ================> DF-SCS-MP2 Energies <==================
	-----------------------------------------------------------
	 SCS Same-Spin Scale       =       0.3333333333333333 [-]
	 SCS Opposite-Spin Scale   =       1.2000000000000000 [-]
	 SCS Same-Spin Energy      =      -0.1675571831605081 [Eh]
	 SCS Opposite-Spin Energy  =      -1.8501319770669618 [Eh]
	 SCS Correlation Energy    =      -2.0176891602274698 [Eh]
	 SCS Total Energy          =    -492.7287257624341805 [Eh]
	-----------------------------------------------------------

  Dipole Moment: [D]
     X:     1.2028      Y:     4.5335      Z:     0.0002     Total:     4.6903

*** Psi4 exiting successfully. Buy a developer a beer!
