                               Psi4 1.3.2 release

  ==> Input File <==

--------------------------------------------------------------------------
#psi4
#
memory 32 gb

molecule  {
0 1
  O        2.3111590    -1.3984000     0.0000580
  O       -2.2718830    -1.4902890    -0.0001310
  N        1.1826080     0.6255060     0.0000550
  N        0.0439912    -1.3089405    -0.0000310
  C       -1.1582810     0.6617000    -0.0000221
  C       -0.0319280     1.2897490     0.0000350
  C        1.2605820    -0.7608720     0.0000310
  C       -1.2542960    -0.7955090    -0.0000670
  C        2.4243390     1.3942650     0.0001240
  C       -2.5504790     1.3758010    -0.0000570
  H        0.0516650     2.3739750     0.0000690
  H        0.0461780    -2.3935470    -0.0000610
  H        2.4800130     2.0209940     0.8935150
  H        2.4798690     2.0213500    -0.8930780
  H        3.2466700     0.6823050    -0.0000520
  H       -3.1375530     1.0948740    -0.8785960
  H       -2.4103180     2.4605130    -0.0000230
  H       -3.1376190     1.0948280     0.8784230
units angstrom
no_reorient  #important for SAPT in psi4, default
symmetry c1  #important for SAPT in psi4, default
}

set PROPERTIES_ORIGIN ["COM"]
properties('MP2/aug-cc-pvtz', properties = ['dipole'])
--------------------------------------------------------------------------

    Molecular point group: c1
  Charge       = 0
  Multiplicity = 1
  Basis Set: AUG-CC-PVTZ
    Blend: AUG-CC-PVTZ
  Basis Set: (AUG-CC-PVTZ AUX)
    Blend: AUG-CC-PVTZ-JKFIT

    Orbital Energies [Eh]
    ---------------------

    Doubly Occupied:

       1A    -20.550029     2A    -20.534754     3A    -15.630052
       4A    -15.629458     5A    -11.407104     6A    -11.384423
       7A    -11.314387     8A    -11.281681     9A    -11.253112
      10A    -11.239953    11A     -1.427695    12A     -1.391174
      13A     -1.309337    14A     -1.248555    15A     -1.114613
      16A     -0.989985    17A     -0.961489    18A     -0.916818
      19A     -0.863874    20A     -0.775115    21A     -0.720743
      22A     -0.690894    23A     -0.685420    24A     -0.650744
      25A     -0.638453    26A     -0.616634    27A     -0.608044
      28A     -0.582014    29A     -0.581435    30A     -0.551647
      31A     -0.544125    32A     -0.533452    33A     -0.491739
      34A     -0.473176    35A     -0.449043    36A     -0.434392
      37A     -0.355620

  @DF-RHF Final Energy:  -490.69521326728574

   => Energetics <=

    Nuclear Repulsion Energy =            532.5762146920300211
    One-Electron Energy =               -1724.8804836356080159
    Two-Electron Energy =                 701.6090556762920869
    Total Energy =                       -490.6952132672857942
  Basis Set: (AUG-CC-PVTZ AUX)
    Blend: AUG-CC-PVTZ-RI
    Molecular point group: c1

    Geometry (in Angstrom), charge = 0, multiplicity = 1:

       Center              X                  Y                   Z               Mass
    ------------   -----------------  -----------------  -----------------  -----------------
         O            2.299024487515    -1.338679185426     0.000058758350    15.994914619570
         O           -2.284017512485    -1.430568185426    -0.000130241650    15.994914619570
         N            1.170473487515     0.685226814574     0.000055758350    14.003074004430
         N            0.031856687515    -1.249219685426    -0.000030241650    14.003074004430
         C           -1.170415512485     0.721420814574    -0.000021341650    12.000000000000
         C           -0.044062512485     1.349469814574     0.000035758350    12.000000000000
         C            1.248447487515    -0.701151185426     0.000031758350    12.000000000000
         C           -1.266430512485    -0.735788185426    -0.000066241650    12.000000000000
         C            2.412204487515     1.453985814574     0.000124758350    12.000000000000
         C           -2.562613512485     1.435521814574    -0.000056241650    12.000000000000
         H            0.039530487515     2.433695814574     0.000069758350     1.007825032230
         H            0.034043487515    -2.333826185426    -0.000060241650     1.007825032230
         H            2.467878487515     2.080714814574     0.893515758350     1.007825032230
         H            2.467734487515     2.081070814574    -0.893077241650     1.007825032230
         H            3.234535487515     0.742025814574    -0.000051241650     1.007825032230
         H           -3.149687512485     1.154594814574    -0.878595241650     1.007825032230
         H           -2.422452512485     2.520233814574    -0.000022241650     1.007825032230
         H           -3.149753512485     1.154548814574     0.878423758350     1.007825032230

  Basis Set: AUG-CC-PVTZ
    Blend: AUG-CC-PVTZ
  Basis Set: (AUG-CC-PVTZ AUX)
    Blend: AUG-CC-PVTZ-JKFIT
	 Reference Energy          =    -490.6952132672857374 [Eh]
	 Singles Energy            =      -0.0000000000000000 [Eh]
	 Same-Spin Energy          =      -0.5028707642418959 [Eh]
	 Opposite-Spin Energy      =      -1.5419584549057537 [Eh]
	 Correlation Energy        =      -2.0448292191476494 [Eh]
	 Total Energy              =    -492.7400424864333672 [Eh]

	 ================> DF-SCS-MP2 Energies <==================
	-----------------------------------------------------------
	 SCS Same-Spin Scale       =       0.3333333333333333 [-]
	 SCS Opposite-Spin Scale   =       1.2000000000000000 [-]
	 SCS Same-Spin Energy      =      -0.1676235880806320 [Eh]
	 SCS Opposite-Spin Energy  =      -1.8503501458869043 [Eh]
	 SCS Correlation Energy    =      -2.0179737339675361 [Eh]
	 SCS Total Energy          =    -492.7131870012532886 [Eh]
	-----------------------------------------------------------

  Dipole Moment: [D]
     X:     0.7766      Y:     4.3380      Z:     0.0002     Total:     4.4070

*** Psi4 exiting successfully. Buy a developer a beer!
