                               Psi4 1.3.2 release

  ==> Input File <==

--------------------------------------------------------------------------
#psi4
#
memory 32 gb

molecule  {
0 1
  O        2.3111590    -1.3984000     0.0000580
  O       -2.2718830    -1.4902890    -0.0001310
  N        1.1826080     0.6255060     0.0000550
  N        0.0153410    -1.3761840    -0.0000340
  C       -1.2227269     0.6887593     0.0447531
  C       -0.0319280     1.2897490     0.0000350
  C        1.2605820    -0.7608720     0.0000310
  C       -1.2542960    -0.7955090    -0.0000670
  C        2.4243390     1.3942650     0.0001240
  C       -2.5504790     1.3758010    -0.0000570
  H        0.0516650     2.3739750     0.0000690
  H        0.0461780    -2.3935470    -0.0000610
  H        2.4800130     2.0209940     0.8935150
  H        2.4798690     2.0213500    -0.8930780
  H        3.2466700     0.6823050    -0.0000520
  H       -3.1653732     1.1180791    -0.8665968
  H       -2.4103180     2.4605130    -0.0000230
  H       -3.1376190     1.0948280     0.8784230
units angstrom
no_reorient  #important for SAPT in psi4, default
symmetry c1  #important for SAPT in psi4, default
}

set PROPERTIES_ORIGIN ["COM"]
properties('MP2/aug-cc-pvtz', properties = ['dipole'])
--------------------------------------------------------------------------

    Molecular point group: c1
  Charge       = 0
  Multiplicity = 1
  Basis Set: AUG-CC-PVTZ
    Blend: AUG-CC-PVTZ
  Basis Set: (AUG-CC-PVTZ AUX)
    Blend: AUG-CC-PVTZ-JKFIT

    Orbital Energies [Eh]
    ---------------------

    Doubly Occupied:

       1A    -20.541070     2A    -20.540459     3A    -15.636695
       4A    -15.624834     5A    -11.413551     6A    -11.378923
       7A    -11.320521     8A    -11.285280     9A    -11.259975
      10A    -11.237430    11A     -1.423936    12A     -1.387787
      13A     -1.306397    14A     -1.242932    15A     -1.110708
      16A     -0.992623    17A     -0.964162    18A     -0.910341
      19A     -0.854755    20A     -0.771028    21A     -0.733734
      22A     -0.691892    23A     -0.681735    24A     -0.650027
      25A     -0.637862    26A     -0.614877    27A     -0.609269
      28A     -0.590599    29A     -0.582232    30A     -0.557496
      31A     -0.547120    32A     -0.542132    33A     -0.488711
      34A     -0.474548    35A     -0.444119    36A     -0.431022
      37A     -0.349040

  @DF-RHF Final Energy:  -490.71121127143908

   => Energetics <=

    Nuclear Repulsion Energy =            530.2117884158361676
    One-Electron Energy =               -1720.1863600167487220
    Two-Electron Energy =                 699.2633603294733575
    Total Energy =                       -490.7112112714390832
  Basis Set: (AUG-CC-PVTZ AUX)
    Blend: AUG-CC-PVTZ-RI
    Molecular point group: c1

    Geometry (in Angstrom), charge = 0, multiplicity = 1:

       Center              X                  Y                   Z               Mass
    ------------   -----------------  -----------------  -----------------  -----------------
         O            2.307610748966    -1.334441548312    -0.003863553976    15.994914619570
         O           -2.275431251034    -1.426330548312    -0.004052553976    15.994914619570
         N            1.179059748966     0.689464451688    -0.003866553976    14.003074004430
         N            0.011792748966    -1.312225548312    -0.003955553976    14.003074004430
         C           -1.226275151034     0.752717751688     0.040831546024    12.000000000000
         C           -0.035476251034     1.353707451688    -0.003886553976    12.000000000000
         C            1.257033748966    -0.696913548312    -0.003890553976    12.000000000000
         C           -1.257844251034    -0.731550548312    -0.003988553976    12.000000000000
         C            2.420790748966     1.458223451688    -0.003797553976    12.000000000000
         C           -2.554027251034     1.439759451688    -0.003978553976    12.000000000000
         H            0.048116748966     2.437933451688    -0.003852553976     1.007825032230
         H            0.042629748966    -2.329588548312    -0.003982553976     1.007825032230
         H            2.476464748966     2.084952451688     0.889593446024     1.007825032230
         H            2.476320748966     2.085308451688    -0.896999553976     1.007825032230
         H            3.243121748966     0.746263451688    -0.003973553976     1.007825032230
         H           -3.168921451034     1.182037551688    -0.870518353976     1.007825032230
         H           -2.413866251034     2.524471451688    -0.003944553976     1.007825032230
         H           -3.141167251034     1.158786451688     0.874501446024     1.007825032230

  Basis Set: AUG-CC-PVTZ
    Blend: AUG-CC-PVTZ
  Basis Set: (AUG-CC-PVTZ AUX)
    Blend: AUG-CC-PVTZ-JKFIT
	 Reference Energy          =    -490.7112112714390832 [Eh]
	 Singles Energy            =      -0.0000000000000000 [Eh]
	 Same-Spin Energy          =      -0.5019267210437285 [Eh]
	 Opposite-Spin Energy      =      -1.5408748072842986 [Eh]
	 Correlation Energy        =      -2.0428015283280270 [Eh]
	 Total Energy              =    -492.7540127997671107 [Eh]

	 ================> DF-SCS-MP2 Energies <==================
	-----------------------------------------------------------
	 SCS Same-Spin Scale       =       0.3333333333333333 [-]
	 SCS Opposite-Spin Scale   =       1.2000000000000000 [-]
	 SCS Same-Spin Energy      =      -0.1673089070145762 [Eh]
	 SCS Opposite-Spin Energy  =      -1.8490497687411582 [Eh]
	 SCS Correlation Energy    =      -2.0163586757557344 [Eh]
	 SCS Total Energy          =    -492.7275699471948087 [Eh]
	-----------------------------------------------------------

  Dipole Moment: [D]
     X:     0.9858      Y:     4.4486      Z:    -0.0261     Total:     4.5566

*** Psi4 exiting successfully. Buy a developer a beer!
