                               Psi4 1.3.2 release

  ==> Input File <==

--------------------------------------------------------------------------
#psi4
#
memory 32 gb

molecule  {
0 1
  O        2.3111590    -1.3984000     0.0000580
  O       -2.2718830    -1.4902890    -0.0001310
  N        1.1883583     0.6361300     0.0000555
  N        0.0153410    -1.3761840    -0.0000340
  C       -1.2400855     0.6752476    -0.0000249
  C       -0.0319280     1.2897490     0.0000350
  C        1.2605820    -0.7608720     0.0000310
  C       -1.2542960    -0.7955090    -0.0000670
  C        2.4243390     1.3942650     0.0001240
  C       -2.5504790     1.3758010    -0.0000570
  H        0.0516650     2.3739750     0.0000690
  H        0.0461780    -2.3935470    -0.0000610
  H        2.4800130     2.0209940     0.8935150
  H        2.4798690     2.0213500    -0.8930780
  H        3.2466700     0.6823050    -0.0000520
  H       -3.1375530     1.0948740    -0.8785960
  H       -2.4103180     2.4605130    -0.0000230
  H       -3.1376190     1.0948280     0.8784230
units angstrom
no_reorient  #important for SAPT in psi4, default
symmetry c1  #important for SAPT in psi4, default
}

set PROPERTIES_ORIGIN ["COM"]
properties('MP2/aug-cc-pvtz', properties = ['dipole'])
--------------------------------------------------------------------------

    Molecular point group: c1
  Charge       = 0
  Multiplicity = 1
  Basis Set: AUG-CC-PVTZ
    Blend: AUG-CC-PVTZ
  Basis Set: (AUG-CC-PVTZ AUX)
    Blend: AUG-CC-PVTZ-JKFIT

    Orbital Energies [Eh]
    ---------------------

    Doubly Occupied:

       1A    -20.541930     2A    -20.539236     3A    -15.637935
       4A    -15.625750     5A    -11.415154     6A    -11.377157
       7A    -11.324021     8A    -11.284708     9A    -11.260017
      10A    -11.236694    11A     -1.423980    12A     -1.387392
      13A     -1.306389    14A     -1.243980    15A     -1.109314
      16A     -0.993956    17A     -0.962677    18A     -0.912130
      19A     -0.853340    20A     -0.769688    21A     -0.735315
      22A     -0.691192    23A     -0.681911    24A     -0.651510
      25A     -0.637800    26A     -0.616004    27A     -0.610405
      28A     -0.588940    29A     -0.584693    30A     -0.557213
      31A     -0.547885    32A     -0.543028    33A     -0.487395
      34A     -0.475337    35A     -0.444351    36A     -0.431196
      37A     -0.345085

  @DF-RHF Final Energy:  -490.71145848170187

   => Energetics <=

    Nuclear Repulsion Energy =            530.0907937189969061
    One-Electron Energy =               -1719.9350872087118205
    Two-Electron Energy =                 699.1328350080129894
    Total Energy =                       -490.7114584817018113
  Basis Set: (AUG-CC-PVTZ AUX)
    Blend: AUG-CC-PVTZ-RI
    Molecular point group: c1

    Geometry (in Angstrom), charge = 0, multiplicity = 1:

       Center              X                  Y                   Z               Mass
    ------------   -----------------  -----------------  -----------------  -----------------
         O            2.308322904061    -1.334179097964     0.000059248200    15.994914619570
         O           -2.274719095939    -1.426068097964    -0.000129751800    15.994914619570
         N            1.185522204061     0.700350902036     0.000056748200    14.003074004430
         N            0.012504904061    -1.311963097964    -0.000032751800    14.003074004430
         C           -1.242921595939     0.739468502036    -0.000023651800    12.000000000000
         C           -0.034764095939     1.353969902036     0.000036248200    12.000000000000
         C            1.257745904061    -0.696651097964     0.000032248200    12.000000000000
         C           -1.257132095939    -0.731288097964    -0.000065751800    12.000000000000
         C            2.421502904061     1.458485902036     0.000125248200    12.000000000000
         C           -2.553315095939     1.440021902036    -0.000055751800    12.000000000000
         H            0.048828904061     2.438195902036     0.000070248200     1.007825032230
         H            0.043341904061    -2.329326097964    -0.000059751800     1.007825032230
         H            2.477176904061     2.085214902036     0.893516248200     1.007825032230
         H            2.477032904061     2.085570902036    -0.893076751800     1.007825032230
         H            3.243833904061     0.746525902036    -0.000050751800     1.007825032230
         H           -3.140389095939     1.159094902036    -0.878594751800     1.007825032230
         H           -2.413154095939     2.524733902036    -0.000021751800     1.007825032230
         H           -3.140455095939     1.159048902036     0.878424248200     1.007825032230

  Basis Set: AUG-CC-PVTZ
    Blend: AUG-CC-PVTZ
  Basis Set: (AUG-CC-PVTZ AUX)
    Blend: AUG-CC-PVTZ-JKFIT
	 Reference Energy          =    -490.7114584817018681 [Eh]
	 Singles Energy            =      -0.0000000000000000 [Eh]
	 Same-Spin Energy          =      -0.5024120592634156 [Eh]
	 Opposite-Spin Energy      =      -1.5415421655117574 [Eh]
	 Correlation Energy        =      -2.0439542247751730 [Eh]
	 Total Energy              =    -492.7554127064770455 [Eh]

	 ================> DF-SCS-MP2 Energies <==================
	-----------------------------------------------------------
	 SCS Same-Spin Scale       =       0.3333333333333333 [-]
	 SCS Opposite-Spin Scale   =       1.2000000000000000 [-]
	 SCS Same-Spin Energy      =      -0.1674706864211385 [Eh]
	 SCS Opposite-Spin Energy  =      -1.8498505986141087 [Eh]
	 SCS Correlation Energy    =      -2.0173212850352473 [Eh]
	 SCS Total Energy          =    -492.7287797667370910 [Eh]
	-----------------------------------------------------------

  Dipole Moment: [D]
     X:     1.0320      Y:     4.4439      Z:     0.0002     Total:     4.5622

*** Psi4 exiting successfully. Buy a developer a beer!
