                               Psi4 1.3.2 release

  ==> Input File <==

--------------------------------------------------------------------------
#psi4
#
memory 32 gb

molecule  {
0 1
  O        2.3111590    -1.3984000     0.0000580
  O       -2.2718830    -1.4902890    -0.0001310
  N        1.1826080     0.6255060     0.0000550
  N        0.0153410    -1.3761840    -0.0000340
  C       -1.2346770     0.6647280    -0.0000250
  C       -0.0433357     1.2684513     0.0000339
  C        1.2605820    -0.7608720     0.0000310
  C       -1.2542960    -0.7955090    -0.0000670
  C        2.4375666     1.3724767     0.0001237
  C       -2.5504790     1.3758010    -0.0000570
  H        0.0516650     2.3739750     0.0000690
  H        0.0461780    -2.3935470    -0.0000610
  H        2.4800130     2.0209940     0.8935150
  H        2.4798690     2.0213500    -0.8930780
  H        3.2466700     0.6823050    -0.0000520
  H       -3.1375530     1.0948740    -0.8785960
  H       -2.4103180     2.4605130    -0.0000230
  H       -3.1376190     1.0948280     0.8784230
units angstrom
no_reorient  #important for SAPT in psi4, default
symmetry c1  #important for SAPT in psi4, default
}

set PROPERTIES_ORIGIN ["COM"]
properties('MP2/aug-cc-pvtz', properties = ['dipole'])
--------------------------------------------------------------------------

    Molecular point group: c1
  Charge       = 0
  Multiplicity = 1
  Basis Set: AUG-CC-PVTZ
    Blend: AUG-CC-PVTZ
  Basis Set: (AUG-CC-PVTZ AUX)
    Blend: AUG-CC-PVTZ-JKFIT

    Orbital Energies [Eh]
    ---------------------

    Doubly Occupied:

       1A    -20.540147     2A    -20.538943     3A    -15.637698
       4A    -15.624392     5A    -11.412663     6A    -11.376344
       7A    -11.323901     8A    -11.286689     9A    -11.257801
      10A    -11.237835    11A     -1.424189    12A     -1.387277
      13A     -1.306756    14A     -1.242664    15A     -1.113224
      16A     -0.994070    17A     -0.962807    18A     -0.912815
      19A     -0.854609    20A     -0.772169    21A     -0.734767
      22A     -0.687776    23A     -0.680971    24A     -0.649951
      25A     -0.637114    26A     -0.612920    27A     -0.610145
      28A     -0.591649    29A     -0.583957    30A     -0.558573
      31A     -0.549423    32A     -0.542453    33A     -0.487790
      34A     -0.474433    35A     -0.444402    36A     -0.430600
      37A     -0.348911

  @DF-RHF Final Energy:  -490.71138711863841

   => Energetics <=

    Nuclear Repulsion Energy =            530.8213807351020250
    One-Electron Energy =               -1721.3998826309523338
    Two-Electron Energy =                 699.8671147772120094
    Total Energy =                       -490.7113871186384131
  Basis Set: (AUG-CC-PVTZ AUX)
    Blend: AUG-CC-PVTZ-RI
    Molecular point group: c1

    Geometry (in Angstrom), charge = 0, multiplicity = 1:

       Center              X                  Y                   Z               Mass
    ------------   -----------------  -----------------  -----------------  -----------------
         O            2.308278501757    -1.328524065103     0.000059426708    15.994914619570
         O           -2.274763498243    -1.420413065103    -0.000129573292    15.994914619570
         N            1.179727501757     0.695381934897     0.000056426708    14.003074004430
         N            0.012460501757    -1.306308065103    -0.000032573292    14.003074004430
         C           -1.237557498243     0.734603934897    -0.000023573292    12.000000000000
         C           -0.046216198243     1.338327234897     0.000035326708    12.000000000000
         C            1.257701501757    -0.690996065103     0.000032426708    12.000000000000
         C           -1.257176498243    -0.725633065103    -0.000065573292    12.000000000000
         C            2.434686101757     1.442352634897     0.000125126708    12.000000000000
         C           -2.553359498243     1.445676934897    -0.000055573292    12.000000000000
         H            0.048784501757     2.443850934897     0.000070426708     1.007825032230
         H            0.043297501757    -2.323671065103    -0.000059573292     1.007825032230
         H            2.477132501757     2.090869934897     0.893516426708     1.007825032230
         H            2.476988501757     2.091225934897    -0.893076573292     1.007825032230
         H            3.243789501757     0.752180934897    -0.000050573292     1.007825032230
         H           -3.140433498243     1.164749934897    -0.878594573292     1.007825032230
         H           -2.413198498243     2.530388934897    -0.000021573292     1.007825032230
         H           -3.140499498243     1.164703934897     0.878424426708     1.007825032230

  Basis Set: AUG-CC-PVTZ
    Blend: AUG-CC-PVTZ
  Basis Set: (AUG-CC-PVTZ AUX)
    Blend: AUG-CC-PVTZ-JKFIT
	 Reference Energy          =    -490.7113871186384131 [Eh]
	 Singles Energy            =      -0.0000000000000000 [Eh]
	 Same-Spin Energy          =      -0.5021076869534313 [Eh]
	 Opposite-Spin Energy      =      -1.5409411443593251 [Eh]
	 Correlation Energy        =      -2.0430488313127562 [Eh]
	 Total Energy              =    -492.7544359499511870 [Eh]

	 ================> DF-SCS-MP2 Energies <==================
	-----------------------------------------------------------
	 SCS Same-Spin Scale       =       0.3333333333333333 [-]
	 SCS Opposite-Spin Scale   =       1.2000000000000000 [-]
	 SCS Same-Spin Energy      =      -0.1673692289844771 [Eh]
	 SCS Opposite-Spin Energy  =      -1.8491293732311900 [Eh]
	 SCS Correlation Energy    =      -2.0164986022156670 [Eh]
	 SCS Total Energy          =    -492.7278857208540899 [Eh]
	-----------------------------------------------------------

  Dipole Moment: [D]
     X:     1.0283      Y:     4.4985      Z:     0.0002     Total:     4.6145

*** Psi4 exiting successfully. Buy a developer a beer!
