                               Psi4 1.3.2 release

  ==> Input File <==

--------------------------------------------------------------------------
#psi4
#
memory 32 gb

molecule  {
0 1
  O        2.3111590    -1.3984000     0.0000580
  O       -2.2718830    -1.4902890    -0.0001310
  N        1.1708304     0.6044106     0.0000539
  N        0.0153410    -1.3761840    -0.0000340
  C       -1.2235857     0.6438323    -0.0000253
  C       -0.0319280     1.2897490     0.0000350
  C        1.2605820    -0.7608720     0.0000310
  C       -1.2542960    -0.7955090    -0.0000670
  C        2.4243390     1.3942650     0.0001240
  C       -2.5504790     1.3758010    -0.0000570
  H        0.0516650     2.3739750     0.0000690
  H        0.0461780    -2.3935470    -0.0000610
  H        2.4800130     2.0209940     0.8935150
  H        2.4798690     2.0213500    -0.8930780
  H        3.2466700     0.6823050    -0.0000520
  H       -3.1375530     1.0948740    -0.8785960
  H       -2.4103180     2.4605130    -0.0000230
  H       -3.1376190     1.0948280     0.8784230
units angstrom
no_reorient  #important for SAPT in psi4, default
symmetry c1  #important for SAPT in psi4, default
}

set PROPERTIES_ORIGIN ["COM"]
properties('MP2/aug-cc-pvtz', properties = ['dipole'])
--------------------------------------------------------------------------

    Molecular point group: c1
  Charge       = 0
  Multiplicity = 1
  Basis Set: AUG-CC-PVTZ
    Blend: AUG-CC-PVTZ
  Basis Set: (AUG-CC-PVTZ AUX)
    Blend: AUG-CC-PVTZ-JKFIT

    Orbital Energies [Eh]
    ---------------------

    Doubly Occupied:

       1A    -20.537675     2A    -20.537181     3A    -15.638664
       4A    -15.622301     5A    -11.410755     6A    -11.374245
       7A    -11.326977     8A    -11.288517     9A    -11.259019
      10A    -11.238017    11A     -1.424486    12A     -1.386243
      13A     -1.307755    14A     -1.240797    15A     -1.108769
      16A     -0.991976    17A     -0.965954    18A     -0.918496
      19A     -0.851560    20A     -0.772728    21A     -0.734102
      22A     -0.694743    23A     -0.682863    24A     -0.645728
      25A     -0.637752    26A     -0.615109    27A     -0.607993
      28A     -0.589336    29A     -0.582770    30A     -0.552840
      31A     -0.546086    32A     -0.543557    33A     -0.489076
      34A     -0.475173    35A     -0.444072    36A     -0.429375
      37A     -0.347559

  @DF-RHF Final Energy:  -490.71079312016786

   => Energetics <=

    Nuclear Repulsion Energy =            530.9681687388226692
    One-Electron Energy =               -1721.7174305172932236
    Two-Electron Energy =                 700.0384686583026905
    Total Energy =                       -490.7107931201678639
  Basis Set: (AUG-CC-PVTZ AUX)
    Blend: AUG-CC-PVTZ-RI
    Molecular point group: c1

    Geometry (in Angstrom), charge = 0, multiplicity = 1:

       Center              X                  Y                   Z               Mass
    ------------   -----------------  -----------------  -----------------  -----------------
         O            2.308661668610    -1.328316174606     0.000059442440    15.994914619570
         O           -2.274380331390    -1.420205174606    -0.000129557560    15.994914619570
         N            1.168333068610     0.674494425394     0.000055342440    14.003074004430
         N            0.012843668610    -1.306100174606    -0.000032557560    14.003074004430
         C           -1.226083031390     0.713916125394    -0.000023857560    12.000000000000
         C           -0.034425331390     1.359832825394     0.000036442440    12.000000000000
         C            1.258084668610    -0.690788174606     0.000032442440    12.000000000000
         C           -1.256793331390    -0.725425174606    -0.000065557560    12.000000000000
         C            2.421841668610     1.464348825394     0.000125442440    12.000000000000
         C           -2.552976331390     1.445884825394    -0.000055557560    12.000000000000
         H            0.049167668610     2.444058825394     0.000070442440     1.007825032230
         H            0.043680668610    -2.323463174606    -0.000059557560     1.007825032230
         H            2.477515668610     2.091077825394     0.893516442440     1.007825032230
         H            2.477371668610     2.091433825394    -0.893076557560     1.007825032230
         H            3.244172668610     0.752388825394    -0.000050557560     1.007825032230
         H           -3.140050331390     1.164957825394    -0.878594557560     1.007825032230
         H           -2.412815331390     2.530596825394    -0.000021557560     1.007825032230
         H           -3.140116331390     1.164911825394     0.878424442440     1.007825032230

  Basis Set: AUG-CC-PVTZ
    Blend: AUG-CC-PVTZ
  Basis Set: (AUG-CC-PVTZ AUX)
    Blend: AUG-CC-PVTZ-JKFIT
	 Reference Energy          =    -490.7107931201678639 [Eh]
	 Singles Energy            =      -0.0000000000000000 [Eh]
	 Same-Spin Energy          =      -0.5024329230839770 [Eh]
	 Opposite-Spin Energy      =      -1.5414851675049923 [Eh]
	 Correlation Energy        =      -2.0439180905889693 [Eh]
	 Total Energy              =    -492.7547112107568523 [Eh]

	 ================> DF-SCS-MP2 Energies <==================
	-----------------------------------------------------------
	 SCS Same-Spin Scale       =       0.3333333333333333 [-]
	 SCS Opposite-Spin Scale   =       1.2000000000000000 [-]
	 SCS Same-Spin Energy      =      -0.1674776410279923 [Eh]
	 SCS Opposite-Spin Energy  =      -1.8497822010059908 [Eh]
	 SCS Correlation Energy    =      -2.0172598420339831 [Eh]
	 SCS Total Energy          =    -492.7280529622018435 [Eh]
	-----------------------------------------------------------

  Dipole Moment: [D]
     X:     1.0800      Y:     4.6780      Z:     0.0002     Total:     4.8010

*** Psi4 exiting successfully. Buy a developer a beer!
