                               Psi4 1.3.2 release

  ==> Input File <==

--------------------------------------------------------------------------
#psi4
#
memory 32 gb

molecule  {
0 1
  O        2.3111590    -1.3984000     0.0000580
  O       -2.2718830    -1.4902890    -0.0001310
  N        1.1826080     0.6255060     0.0000550
  N        0.0153410    -1.3761840    -0.0000340
  C       -1.2346770     0.6647280    -0.0000250
  C       -0.0319280     1.2897490     0.0000350
  C        1.2549666    -0.6610298     0.0000327
  C       -1.2542960    -0.7955090    -0.0000670
  C        2.4243390     1.3942650     0.0001240
  C       -2.5504790     1.3758010    -0.0000570
  H        0.0516650     2.3739750     0.0000690
  H        0.0461780    -2.3935470    -0.0000610
  H        2.4800130     2.0209940     0.8935150
  H        2.4798690     2.0213500    -0.8930780
  H        3.2466700     0.6823050    -0.0000520
  H       -3.1375530     1.0948740    -0.8785960
  H       -2.4103180     2.4605130    -0.0000230
  H       -3.1376190     1.0948280     0.8784230
units angstrom
no_reorient  #important for SAPT in psi4, default
symmetry c1  #important for SAPT in psi4, default
}

set PROPERTIES_ORIGIN ["COM"]
properties('MP2/aug-cc-pvtz', properties = ['dipole'])
--------------------------------------------------------------------------

    Molecular point group: c1
  Charge       = 0
  Multiplicity = 1
  Basis Set: AUG-CC-PVTZ
    Blend: AUG-CC-PVTZ
  Basis Set: (AUG-CC-PVTZ AUX)
    Blend: AUG-CC-PVTZ-JKFIT

    Orbital Energies [Eh]
    ---------------------

    Doubly Occupied:

       1A    -20.537506     2A    -20.522563     3A    -15.651401
       4A    -15.620790     5A    -11.409015     6A    -11.373960
       7A    -11.329596     8A    -11.293733     9A    -11.270882
      10A    -11.242579    11A     -1.415575    12A     -1.382064
      13A     -1.304493    14A     -1.231873    15A     -1.116760
      16A     -1.008619    17A     -0.982590    18A     -0.916826
      19A     -0.844676    20A     -0.780595    21A     -0.736433
      22A     -0.694708    23A     -0.694403    24A     -0.654761
      25A     -0.618430    26A     -0.615966    27A     -0.604994
      28A     -0.597018    29A     -0.582681    30A     -0.562137
      31A     -0.551995    32A     -0.543617    33A     -0.482367
      34A     -0.464126    35A     -0.435071    36A     -0.420781
      37A     -0.356367

  @DF-RHF Final Energy:  -490.69536899372167

   => Energetics <=

    Nuclear Repulsion Energy =            530.9977274727931444
    One-Electron Energy =               -1721.6822939279873026
    Two-Electron Energy =                 699.9891974614725996
    Total Energy =                       -490.6953689937216723
  Basis Set: (AUG-CC-PVTZ AUX)
    Blend: AUG-CC-PVTZ-RI
    Molecular point group: c1

    Geometry (in Angstrom), charge = 0, multiplicity = 1:

       Center              X                  Y                   Z               Mass
    ------------   -----------------  -----------------  -----------------  -----------------
         O            2.308915546639    -1.340769929873     0.000059161105    15.994914619570
         O           -2.274126453361    -1.432658929873    -0.000129838895    15.994914619570
         N            1.180364546639     0.683136070127     0.000056161105    14.003074004430
         N            0.013097546639    -1.318553929873    -0.000032838895    14.003074004430
         C           -1.236920453361     0.722358070127    -0.000023838895    12.000000000000
         C           -0.034171453361     1.347379070127     0.000036161105    12.000000000000
         C            1.252723146639    -0.603399729873     0.000033861105    12.000000000000
         C           -1.256539453361    -0.737878929873    -0.000065838895    12.000000000000
         C            2.422095546639     1.451895070127     0.000125161105    12.000000000000
         C           -2.552722453361     1.433431070127    -0.000055838895    12.000000000000
         H            0.049421546639     2.431605070127     0.000070161105     1.007825032230
         H            0.043934546639    -2.335916929873    -0.000059838895     1.007825032230
         H            2.477769546639     2.078624070127     0.893516161105     1.007825032230
         H            2.477625546639     2.078980070127    -0.893076838895     1.007825032230
         H            3.244426546639     0.739935070127    -0.000050838895     1.007825032230
         H           -3.139796453361     1.152504070127    -0.878594838895     1.007825032230
         H           -2.412561453361     2.518143070127    -0.000021838895     1.007825032230
         H           -3.139862453361     1.152458070127     0.878424161105     1.007825032230

  Basis Set: AUG-CC-PVTZ
    Blend: AUG-CC-PVTZ
  Basis Set: (AUG-CC-PVTZ AUX)
    Blend: AUG-CC-PVTZ-JKFIT
	 Reference Energy          =    -490.6953689937216723 [Eh]
	 Singles Energy            =      -0.0000000000000000 [Eh]
	 Same-Spin Energy          =      -0.5030847043969175 [Eh]
	 Opposite-Spin Energy      =      -1.5433679706536565 [Eh]
	 Correlation Energy        =      -2.0464526750505740 [Eh]
	 Total Energy              =    -492.7418216687722179 [Eh]

	 ================> DF-SCS-MP2 Energies <==================
	-----------------------------------------------------------
	 SCS Same-Spin Scale       =       0.3333333333333333 [-]
	 SCS Opposite-Spin Scale   =       1.2000000000000000 [-]
	 SCS Same-Spin Energy      =      -0.1676949014656392 [Eh]
	 SCS Opposite-Spin Energy  =      -1.8520415647843878 [Eh]
	 SCS Correlation Energy    =      -2.0197364662500270 [Eh]
	 SCS Total Energy          =    -492.7151054599717099 [Eh]
	-----------------------------------------------------------

  Dipole Moment: [D]
     X:     0.7085      Y:     5.3000      Z:     0.0002     Total:     5.3472

*** Psi4 exiting successfully. Buy a developer a beer!
