                               Psi4 1.4a3.dev225

  ==> Input File <==

--------------------------------------------------------------------------
#psi4
#
memory 32 gb

molecule  {
0 1
  O        2.3212770    -1.3580180     0.0000020
  O       -2.2717460    -1.4962290     0.0000010
  N        1.1724310     0.6334210    -0.0000020
  N        0.0162060    -1.3769820    -0.0000020
  C       -1.2398930     0.6613320     0.0000000
  C       -0.0398910     1.2934770    -0.0000010
  C        1.2527440    -0.7526170    -0.0000010
  C       -1.2589250    -0.7964470     0.0000000
  C        2.4447950     1.3519700     0.0000010
  C       -2.5550880     1.3760200     0.0000010
  H        0.0310140     2.3780990    -0.0000010
  H        0.0451319    -2.3737734    -0.0000010
  H        2.2343430     2.4214070    -0.0000200
  H        3.0241620     1.0875710    -0.8862110
  H        3.0241420     1.0876020     0.8862360
  H       -3.1432670     1.0977880    -0.8790540
  H       -2.4120010     2.4600010     0.0000010
  H       -3.1432670     1.0977870     0.8790540
units angstrom
no_reorient  #important for SAPT in psi4, default
symmetry c1  #important for SAPT in psi4, default
}

set PROPERTIES_ORIGIN ["COM"]
properties('MP2/aug-cc-pvtz', properties = ['dipole'])
--------------------------------------------------------------------------

    Molecular point group: c1
  Charge       = 0
  Multiplicity = 1
  Basis Set: AUG-CC-PVTZ
    Blend: AUG-CC-PVTZ
  Basis Set: (AUG-CC-PVTZ AUX)
    Blend: AUG-CC-PVTZ-JKFIT

    Orbital Energies [Eh]
    ---------------------

    Doubly Occupied:

       1A    -20.541379     2A    -20.538281     3A    -15.638694
       4A    -15.623319     5A    -11.411728     6A    -11.376083
       7A    -11.326582     8A    -11.288811     9A    -11.257253
      10A    -11.236539    11A     -1.425412    12A     -1.387572
      13A     -1.306751    14A     -1.245763    15A     -1.108970
      16A     -0.993971    17A     -0.962707    18A     -0.916272
      19A     -0.853381    20A     -0.771617    21A     -0.738994
      22A     -0.694431    23A     -0.683264    24A     -0.650755
      25A     -0.636919    26A     -0.612927    27A     -0.609614
      28A     -0.591084    29A     -0.581482    30A     -0.558338
      31A     -0.548050    32A     -0.540355    33A     -0.492191
      34A     -0.475695    35A     -0.444456    36A     -0.430782
      37A     -0.343994

  @DF-RHF Final Energy:  -490.71296296145351

   => Energetics <=

    Nuclear Repulsion Energy =            530.8812630574776676
    One-Electron Energy =               -1721.4996208532450055
    Two-Electron Energy =                 699.9053948343137108
    Total Energy =                       -490.7129629614535133
  Basis Set: (AUG-CC-PVTZ AUX)
    Blend: AUG-CC-PVTZ-RI
    Molecular point group: c1

    Geometry (in Angstrom), charge = 0, multiplicity = 1:

       Center              X                  Y                   Z               Mass
    ------------   -----------------  -----------------  -----------------  -----------------
         O            2.318854303693    -1.292817831087     0.000002028533    15.994914619570
         O           -2.274168696307    -1.431028831087     0.000001028533    15.994914619570
         N            1.170008303693     0.698621168913    -0.000001971467    14.003074004430
         N            0.013783303693    -1.311781831087    -0.000001971467    14.003074004430
         C           -1.242315696307     0.726532168913     0.000000028533    12.000000000000
         C           -0.042313696307     1.358677168913    -0.000000971467    12.000000000000
         C            1.250321303693    -0.687416831087    -0.000000971467    12.000000000000
         C           -1.261347696307    -0.731246831087     0.000000028533    12.000000000000
         C            2.442372303693     1.417170168913     0.000001028533    12.000000000000
         C           -2.557510696307     1.441220168913     0.000001028533    12.000000000000
         H            0.028591303693     2.443299168913    -0.000000971467     1.007825032230
         H            0.042709203693    -2.308573231087    -0.000000971467     1.007825032230
         H            2.231920303693     2.486607168913    -0.000019971467     1.007825032230
         H            3.021739303693     1.152771168913    -0.886210971467     1.007825032230
         H            3.021719303693     1.152802168913     0.886236028533     1.007825032230
         H           -3.145689696307     1.162988168913    -0.879053971467     1.007825032230
         H           -2.414423696307     2.525201168913     0.000001028533     1.007825032230
         H           -3.145689696307     1.162987168913     0.879054028533     1.007825032230

  Basis Set: AUG-CC-PVTZ
    Blend: AUG-CC-PVTZ
  Basis Set: (AUG-CC-PVTZ AUX)
    Blend: AUG-CC-PVTZ-JKFIT
	 Reference Energy          =    -490.7129629614535133 [Eh]
	 Singles Energy            =      -0.0000000000000000 [Eh]
	 Same-Spin Energy          =      -0.5021943168972250 [Eh]
	 Opposite-Spin Energy      =      -1.5409559666750132 [Eh]
	 Correlation Energy        =      -2.0431502835722384 [Eh]
	 Total Energy              =    -492.7561132450257446 [Eh]

	 ================> DF-SCS-MP2 Energies <==================
	-----------------------------------------------------------
	 SCS Same-Spin Scale       =       0.3333333333333333 [-]
	 SCS Opposite-Spin Scale   =       1.2000000000000000 [-]
	 SCS Same-Spin Energy      =      -0.1673981056324083 [Eh]
	 SCS Opposite-Spin Energy  =      -1.8491471600100158 [Eh]
	 SCS Correlation Energy    =      -2.0165452656424243 [Eh]
	 SCS Total Energy          =    -492.7295082270959483 [Eh]
	-----------------------------------------------------------

  Dipole Moment: [D]
     X:     1.0958      Y:     4.5363      Z:    -0.0000     Total:     4.6667

*** Psi4 exiting successfully. Buy a developer a beer!
