                               Psi4 1.3.2 release

  ==> Input File <==

--------------------------------------------------------------------------
#psi4
#
memory 32 gb

molecule  {
0 1
  O        2.3111590    -1.3984000     0.0000580
  O       -2.2718830    -1.4902890    -0.0001310
  N        1.1826080     0.6255060     0.0000550
  N        0.0153410    -1.3761840    -0.0000340
  C       -1.2346770     0.6647280    -0.0000250
  C       -0.0008653     1.2259454     0.0000343
  C        1.2605820    -0.7608720     0.0000310
  C       -1.1778462    -0.7945346    -0.0000643
  C        2.4243390     1.3942650     0.0001240
  C       -2.5504790     1.3758010    -0.0000570
  H        0.0516650     2.3739750     0.0000690
  H        0.0461780    -2.3935470    -0.0000610
  H        2.4800130     2.0209940     0.8935150
  H        2.4798690     2.0213500    -0.8930780
  H        3.2466700     0.6823050    -0.0000520
  H       -3.1375530     1.0948740    -0.8785960
  H       -2.4103180     2.4605130    -0.0000230
  H       -3.1376190     1.0948280     0.8784230
units angstrom
no_reorient  #important for SAPT in psi4, default
symmetry c1  #important for SAPT in psi4, default
}

set PROPERTIES_ORIGIN ["COM"]
properties('MP2/aug-cc-pvtz', properties = ['dipole'])
--------------------------------------------------------------------------

    Molecular point group: c1
  Charge       = 0
  Multiplicity = 1
  Basis Set: AUG-CC-PVTZ
    Blend: AUG-CC-PVTZ
  Basis Set: (AUG-CC-PVTZ AUX)
    Blend: AUG-CC-PVTZ-JKFIT

    Orbital Energies [Eh]
    ---------------------

    Doubly Occupied:

       1A    -20.551017     2A    -20.517721     3A    -15.648611
       4A    -15.637357     5A    -11.423310     6A    -11.369191
       7A    -11.325884     8A    -11.294184     9A    -11.257207
      10A    -11.236598    11A     -1.437534    12A     -1.358379
      13A     -1.323059    14A     -1.255123    15A     -1.107505
      16A     -1.004822    17A     -0.969333    18A     -0.920686
      19A     -0.871282    20A     -0.778076    21A     -0.745286
      22A     -0.696291    23A     -0.689715    24A     -0.656028
      25A     -0.624092    26A     -0.621945    27A     -0.596539
      28A     -0.584299    29A     -0.583046    30A     -0.564489
      31A     -0.539391    32A     -0.537613    33A     -0.502006
      34A     -0.477111    35A     -0.430104    36A     -0.423683
      37A     -0.342368

  @DF-RHF Final Energy:  -490.69327335746624

   => Energetics <=

    Nuclear Repulsion Energy =            532.1565716415161660
    One-Electron Energy =               -1723.8979218354472778
    Two-Electron Energy =                 701.0480768364648156
    Total Energy =                       -490.6932733574662961
  Basis Set: (AUG-CC-PVTZ AUX)
    Blend: AUG-CC-PVTZ-RI
    Molecular point group: c1

    Geometry (in Angstrom), charge = 0, multiplicity = 1:

       Center              X                  Y                   Z               Mass
    ------------   -----------------  -----------------  -----------------  -----------------
         O            2.299222924993    -1.326832498587     0.000059135401    15.994914619570
         O           -2.283819075007    -1.418721498587    -0.000129864599    15.994914619570
         N            1.170671924993     0.697073501413     0.000056135401    14.003074004430
         N            0.003404924993    -1.304616498587    -0.000032864599    14.003074004430
         C           -1.246613075007     0.736295501413    -0.000023864599    12.000000000000
         C           -0.012801375007     1.297512901413     0.000035435401    12.000000000000
         C            1.248645924993    -0.689304498587     0.000032135401    12.000000000000
         C           -1.189782275007    -0.722967098587    -0.000063164599    12.000000000000
         C            2.412402924993     1.465832501413     0.000125135401    12.000000000000
         C           -2.562415075007     1.447368501413    -0.000055864599    12.000000000000
         H            0.039728924993     2.445542501413     0.000070135401     1.007825032230
         H            0.034241924993    -2.321979498587    -0.000059864599     1.007825032230
         H            2.468076924993     2.092561501413     0.893516135401     1.007825032230
         H            2.467932924993     2.092917501413    -0.893076864599     1.007825032230
         H            3.234733924993     0.753872501413    -0.000050864599     1.007825032230
         H           -3.149489075007     1.166441501413    -0.878594864599     1.007825032230
         H           -2.422254075007     2.532080501413    -0.000021864599     1.007825032230
         H           -3.149555075007     1.166395501413     0.878424135401     1.007825032230

  Basis Set: AUG-CC-PVTZ
    Blend: AUG-CC-PVTZ
  Basis Set: (AUG-CC-PVTZ AUX)
    Blend: AUG-CC-PVTZ-JKFIT
	 Reference Energy          =    -490.6932733574662393 [Eh]
	 Singles Energy            =      -0.0000000000000000 [Eh]
	 Same-Spin Energy          =      -0.5043303323408159 [Eh]
	 Opposite-Spin Energy      =      -1.5438221959569711 [Eh]
	 Correlation Energy        =      -2.0481525282977868 [Eh]
	 Total Energy              =    -492.7414258857640448 [Eh]

	 ================> DF-SCS-MP2 Energies <==================
	-----------------------------------------------------------
	 SCS Same-Spin Scale       =       0.3333333333333333 [-]
	 SCS Opposite-Spin Scale   =       1.2000000000000000 [-]
	 SCS Same-Spin Energy      =      -0.1681101107802720 [Eh]
	 SCS Opposite-Spin Energy  =      -1.8525866351483653 [Eh]
	 SCS Correlation Energy    =      -2.0206967459286371 [Eh]
	 SCS Total Energy          =    -492.7139701033948995 [Eh]
	-----------------------------------------------------------

  Dipole Moment: [D]
     X:     1.9553      Y:     4.5965      Z:     0.0002     Total:     4.9951

*** Psi4 exiting successfully. Buy a developer a beer!
