                               Psi4 1.4a3.dev225

  ==> Input File <==

--------------------------------------------------------------------------
#psi4
#
memory 32 gb

molecule  {
0 1
  O        2.3212770    -1.3580180     0.0000020
  O       -2.2717460    -1.4962290     0.0000010
  N        1.1724310     0.6334210    -0.0000020
  N        0.0162060    -1.3769820    -0.0000020
  C       -1.2398930     0.6613320     0.0000000
  C        0.0043463     1.3167806    -0.0000010
  C        1.2527440    -0.7526170    -0.0000010
  C       -1.2589250    -0.7964470     0.0000000
  C        2.4447950     1.3519700     0.0000010
  C       -2.5550880     1.3760200     0.0000010
  H        0.0310140     2.3780990    -0.0000010
  H        0.0457120    -2.3937650    -0.0000010
  H        2.2343430     2.4214070    -0.0000200
  H        3.0241620     1.0875710    -0.8862110
  H        3.0241420     1.0876020     0.8862360
  H       -3.1432670     1.0977880    -0.8790540
  H       -2.4120010     2.4600010     0.0000010
  H       -3.1432670     1.0977870     0.8790540
units angstrom
no_reorient  #important for SAPT in psi4, default
symmetry c1  #important for SAPT in psi4, default
}

set PROPERTIES_ORIGIN ["COM"]
properties('MP2/aug-cc-pvtz', properties = ['dipole'])
--------------------------------------------------------------------------

    Molecular point group: c1
  Charge       = 0
  Multiplicity = 1
  Basis Set: AUG-CC-PVTZ
    Blend: AUG-CC-PVTZ
  Basis Set: (AUG-CC-PVTZ AUX)
    Blend: AUG-CC-PVTZ-JKFIT

    Orbital Energies [Eh]
    ---------------------

    Doubly Occupied:

       1A    -20.543655     2A    -20.534508     3A    -15.643433
       4A    -15.625230     5A    -11.414640     6A    -11.373158
       7A    -11.330974     8A    -11.290600     9A    -11.259035
      10A    -11.234508    11A     -1.427513    12A     -1.385139
      13A     -1.314312    14A     -1.245498    15A     -1.098542
      16A     -0.996298    17A     -0.965797    18A     -0.916639
      19A     -0.851421    20A     -0.771243    21A     -0.735573
      22A     -0.701291    23A     -0.686413    24A     -0.651558
      25A     -0.637971    26A     -0.612470    27A     -0.607657
      28A     -0.592985    29A     -0.579852    30A     -0.556761
      31A     -0.543807    32A     -0.539788    33A     -0.495329
      34A     -0.478104    35A     -0.442115    36A     -0.430080
      37A     -0.334080

  @DF-RHF Final Energy:  -490.70676144349795

   => Energetics <=

    Nuclear Repulsion Energy =            530.3969947317725655
    One-Electron Energy =               -1720.5115510408670616
    Two-Electron Energy =                 699.4077948655965429
    Total Energy =                       -490.7067614434979532
  Basis Set: (AUG-CC-PVTZ AUX)
    Blend: AUG-CC-PVTZ-RI
    Molecular point group: c1

    Geometry (in Angstrom), charge = 0, multiplicity = 1:

       Center              X                  Y                   Z               Mass
    ------------   -----------------  -----------------  -----------------  -----------------
         O            2.315059946726    -1.294670592765     0.000002028533    15.994914619570
         O           -2.277963053274    -1.432881592765     0.000001028533    15.994914619570
         N            1.166213946726     0.696768407235    -0.000001971467    14.003074004430
         N            0.009988946726    -1.313634592765    -0.000001971467    14.003074004430
         C           -1.246110053274     0.724679407235     0.000000028533    12.000000000000
         C           -0.001870753274     1.380128007235    -0.000000971467    12.000000000000
         C            1.246526946726    -0.689269592765    -0.000000971467    12.000000000000
         C           -1.265142053274    -0.733099592765     0.000000028533    12.000000000000
         C            2.438577946726     1.415317407235     0.000001028533    12.000000000000
         C           -2.561305053274     1.439367407235     0.000001028533    12.000000000000
         H            0.024796946726     2.441446407235    -0.000000971467     1.007825032230
         H            0.039494946726    -2.330417592765    -0.000000971467     1.007825032230
         H            2.228125946726     2.484754407235    -0.000019971467     1.007825032230
         H            3.017944946726     1.150918407235    -0.886210971467     1.007825032230
         H            3.017924946726     1.150949407235     0.886236028533     1.007825032230
         H           -3.149484053274     1.161135407235    -0.879053971467     1.007825032230
         H           -2.418218053274     2.523348407235     0.000001028533     1.007825032230
         H           -3.149484053274     1.161134407235     0.879054028533     1.007825032230

  Basis Set: AUG-CC-PVTZ
    Blend: AUG-CC-PVTZ
  Basis Set: (AUG-CC-PVTZ AUX)
    Blend: AUG-CC-PVTZ-JKFIT
	 Reference Energy          =    -490.7067614434979532 [Eh]
	 Singles Energy            =      -0.0000000000000000 [Eh]
	 Same-Spin Energy          =      -0.5033019196573596 [Eh]
	 Opposite-Spin Energy      =      -1.5425847654537315 [Eh]
	 Correlation Energy        =      -2.0458866851110908 [Eh]
	 Total Energy              =    -492.7526481286090529 [Eh]

	 ================> DF-SCS-MP2 Energies <==================
	-----------------------------------------------------------
	 SCS Same-Spin Scale       =       0.3333333333333333 [-]
	 SCS Opposite-Spin Scale   =       1.2000000000000000 [-]
	 SCS Same-Spin Energy      =      -0.1677673065524532 [Eh]
	 SCS Opposite-Spin Energy  =      -1.8511017185444776 [Eh]
	 SCS Correlation Energy    =      -2.0188690250969308 [Eh]
	 SCS Total Energy          =    -492.7256304685948862 [Eh]
	-----------------------------------------------------------

  Dipole Moment: [D]
     X:     1.2895      Y:     4.5439      Z:    -0.0000     Total:     4.7233

*** Psi4 exiting successfully. Buy a developer a beer!
