                               Psi4 1.3.2 release

  ==> Input File <==

--------------------------------------------------------------------------
#psi4
#
memory 32 gb

molecule  {
0 1
  O        2.3111590    -1.3984000     0.0000580
  O       -2.2718830    -1.4902890    -0.0001310
  N        1.1826080     0.6255060     0.0000550
  N        0.0153410    -1.3761840    -0.0000340
  C       -1.2412542     0.6530354    -0.0224175
  C       -0.0319280     1.2897490     0.0000350
  C        1.2605820    -0.7608720     0.0000310
  C       -1.2542960    -0.7955090    -0.0000670
  C        2.4243390     1.3942650     0.0001240
  C       -2.5504790     1.3758010    -0.0000570
  H        0.0516650     2.3739750     0.0000690
  H        0.0461780    -2.3935470    -0.0000610
  H        2.4800130     2.0209940     0.8935150
  H        2.4798690     2.0213500    -0.8930780
  H        3.2466700     0.6823050    -0.0000520
  H       -3.1233725     1.0833981    -0.8841951
  H       -2.4103180     2.4605130    -0.0000230
  H       -3.1376190     1.0948280     0.8784230
units angstrom
no_reorient  #important for SAPT in psi4, default
symmetry c1  #important for SAPT in psi4, default
}

set PROPERTIES_ORIGIN ["COM"]
properties('MP2/aug-cc-pvtz', properties = ['dipole'])
--------------------------------------------------------------------------

    Molecular point group: c1
  Charge       = 0
  Multiplicity = 1
  Basis Set: AUG-CC-PVTZ
    Blend: AUG-CC-PVTZ
  Basis Set: (AUG-CC-PVTZ AUX)
    Blend: AUG-CC-PVTZ-JKFIT

    Orbital Energies [Eh]
    ---------------------

    Doubly Occupied:

       1A    -20.540615     2A    -20.537193     3A    -15.639077
       4A    -15.624490     5A    -11.413853     6A    -11.374783
       7A    -11.327400     8A    -11.286383     9A    -11.259618
      10A    -11.236968    11A     -1.424217    12A     -1.386576
      13A     -1.307033    14A     -1.242895    15A     -1.108152
      16A     -0.993479    17A     -0.963745    18A     -0.916122
      19A     -0.851722    20A     -0.770386    21A     -0.735474
      22A     -0.692466    23A     -0.682404    24A     -0.649269
      25A     -0.637791    26A     -0.616160    27A     -0.609824
      28A     -0.588919    29A     -0.584364    30A     -0.556049
      31A     -0.546820    32A     -0.542979    33A     -0.487579
      34A     -0.475643    35A     -0.444239    36A     -0.430373
      37A     -0.344294

  @DF-RHF Final Energy:  -490.71088810963045

   => Energetics <=

    Nuclear Repulsion Energy =            530.4372975986274241
    One-Electron Energy =               -1720.6376602404038749
    Two-Electron Energy =                 699.4894745321458913
    Total Energy =                       -490.7108881096304458
  Basis Set: (AUG-CC-PVTZ AUX)
    Blend: AUG-CC-PVTZ-RI
    Molecular point group: c1

    Geometry (in Angstrom), charge = 0, multiplicity = 1:

       Center              X                  Y                   Z               Mass
    ------------   -----------------  -----------------  -----------------  -----------------
         O            2.308895912976    -1.331131224959     0.002018150822    15.994914619570
         O           -2.274146087024    -1.423020224959     0.001829150822    15.994914619570
         N            1.180344912976     0.692774775041     0.002015150822    14.003074004430
         N            0.013077912976    -1.308915224959     0.001926150822    14.003074004430
         C           -1.243517287024     0.720304175041    -0.020457349178    12.000000000000
         C           -0.034191087024     1.357017775041     0.001995150822    12.000000000000
         C            1.258318912976    -0.693603224959     0.001991150822    12.000000000000
         C           -1.256559087024    -0.728240224959     0.001893150822    12.000000000000
         C            2.422075912976     1.461533775041     0.002084150822    12.000000000000
         C           -2.552742087024     1.443069775041     0.001903150822    12.000000000000
         H            0.049401912976     2.441243775041     0.002029150822     1.007825032230
         H            0.043914912976    -2.326278224959     0.001899150822     1.007825032230
         H            2.477749912976     2.088262775041     0.895475150822     1.007825032230
         H            2.477605912976     2.088618775041    -0.891117849178     1.007825032230
         H            3.244406912976     0.749573775041     0.001908150822     1.007825032230
         H           -3.125635587024     1.150666875041    -0.882234949178     1.007825032230
         H           -2.412581087024     2.527781775041     0.001937150822     1.007825032230
         H           -3.139882087024     1.162096775041     0.880383150822     1.007825032230

  Basis Set: AUG-CC-PVTZ
    Blend: AUG-CC-PVTZ
  Basis Set: (AUG-CC-PVTZ AUX)
    Blend: AUG-CC-PVTZ-JKFIT
	 Reference Energy          =    -490.7108881096304458 [Eh]
	 Singles Energy            =      -0.0000000000000000 [Eh]
	 Same-Spin Energy          =      -0.5026802861993944 [Eh]
	 Opposite-Spin Energy      =      -1.5418790895987928 [Eh]
	 Correlation Energy        =      -2.0445593757981873 [Eh]
	 Total Energy              =    -492.7554474854286468 [Eh]

	 ================> DF-SCS-MP2 Energies <==================
	-----------------------------------------------------------
	 SCS Same-Spin Scale       =       0.3333333333333333 [-]
	 SCS Opposite-Spin Scale   =       1.2000000000000000 [-]
	 SCS Same-Spin Energy      =      -0.1675600953997981 [Eh]
	 SCS Opposite-Spin Energy  =      -1.8502549075185513 [Eh]
	 SCS Correlation Energy    =      -2.0178150029183493 [Eh]
	 SCS Total Energy          =    -492.7287031125487715 [Eh]
	-----------------------------------------------------------

  Dipole Moment: [D]
     X:     1.0822      Y:     4.5573      Z:     0.0130     Total:     4.6841

*** Psi4 exiting successfully. Buy a developer a beer!
