                               Psi4 1.4a3.dev225

  ==> Input File <==

--------------------------------------------------------------------------
#psi4
#
memory 32 gb

molecule  {
0 1
  O        2.3212770    -1.3580180     0.0000020
  O       -2.2717460    -1.4962290     0.0000010
  N        1.1724310     0.6334210    -0.0000020
  N        0.0162060    -1.3769820    -0.0000020
  C       -1.2398930     0.6613320     0.0000000
  C       -0.0398910     1.2934770    -0.0000010
  C        1.2527440    -0.7526170    -0.0000010
  C       -1.2589250    -0.7964470     0.0000000
  C        2.4447950     1.3519700     0.0000010
  C       -2.5550880     1.3760200     0.0000010
  H        0.0297093     2.3581416    -0.0000010
  H        0.0457120    -2.3937650    -0.0000010
  H        2.2343430     2.4214070    -0.0000200
  H        3.0241620     1.0875710    -0.8862110
  H        3.0241420     1.0876020     0.8862360
  H       -3.1432670     1.0977880    -0.8790540
  H       -2.4120010     2.4600010     0.0000010
  H       -3.1432670     1.0977870     0.8790540
units angstrom
no_reorient  #important for SAPT in psi4, default
symmetry c1  #important for SAPT in psi4, default
}

set PROPERTIES_ORIGIN ["COM"]
properties('MP2/aug-cc-pvtz', properties = ['dipole'])
--------------------------------------------------------------------------

    Molecular point group: c1
  Charge       = 0
  Multiplicity = 1
  Basis Set: AUG-CC-PVTZ
    Blend: AUG-CC-PVTZ
  Basis Set: (AUG-CC-PVTZ AUX)
    Blend: AUG-CC-PVTZ-JKFIT

    Orbital Energies [Eh]
    ---------------------

    Doubly Occupied:

       1A    -20.541048     2A    -20.538003     3A    -15.638431
       4A    -15.624803     5A    -11.411406     6A    -11.375811
       7A    -11.324272     8A    -11.288758     9A    -11.257123
      10A    -11.236513    11A     -1.424838    12A     -1.387220
      13A     -1.306575    14A     -1.243571    15A     -1.109005
      16A     -0.993740    17A     -0.963115    18A     -0.915861
      19A     -0.852930    20A     -0.771031    21A     -0.735540
      22A     -0.696775    23A     -0.683022    24A     -0.650228
      25A     -0.637290    26A     -0.612706    27A     -0.610256
      28A     -0.590946    29A     -0.581344    30A     -0.557971
      31A     -0.547883    32A     -0.540140    33A     -0.491998
      34A     -0.475646    35A     -0.444224    36A     -0.430263
      37A     -0.343837

  @DF-RHF Final Energy:  -490.71271174462521

   => Energetics <=

    Nuclear Repulsion Energy =            530.8604782137491611
    One-Electron Energy =               -1721.4781351717640518
    Two-Electron Energy =                 699.9049452133896239
    Total Energy =                       -490.7127117446251532
  Basis Set: (AUG-CC-PVTZ AUX)
    Blend: AUG-CC-PVTZ-RI
    Molecular point group: c1

    Geometry (in Angstrom), charge = 0, multiplicity = 1:

       Center              X                  Y                   Z               Mass
    ------------   -----------------  -----------------  -----------------  -----------------
         O            2.318859517725    -1.292530368491     0.000002028533    15.994914619570
         O           -2.274163482275    -1.430741368491     0.000001028533    15.994914619570
         N            1.170013517725     0.698908631509    -0.000001971467    14.003074004430
         N            0.013788517725    -1.311494368491    -0.000001971467    14.003074004430
         C           -1.242310482275     0.726819631509     0.000000028533    12.000000000000
         C           -0.042308482275     1.358964631509    -0.000000971467    12.000000000000
         C            1.250326517725    -0.687129368491    -0.000000971467    12.000000000000
         C           -1.261342482275    -0.730959368491     0.000000028533    12.000000000000
         C            2.442377517725     1.417457631509     0.000001028533    12.000000000000
         C           -2.557505482275     1.441507631509     0.000001028533    12.000000000000
         H            0.027291817725     2.423629231509    -0.000000971467     1.007825032230
         H            0.043294517725    -2.328277368491    -0.000000971467     1.007825032230
         H            2.231925517725     2.486894631509    -0.000019971467     1.007825032230
         H            3.021744517725     1.153058631509    -0.886210971467     1.007825032230
         H            3.021724517725     1.153089631509     0.886236028533     1.007825032230
         H           -3.145684482275     1.163275631509    -0.879053971467     1.007825032230
         H           -2.414418482275     2.525488631509     0.000001028533     1.007825032230
         H           -3.145684482275     1.163274631509     0.879054028533     1.007825032230

  Basis Set: AUG-CC-PVTZ
    Blend: AUG-CC-PVTZ
  Basis Set: (AUG-CC-PVTZ AUX)
    Blend: AUG-CC-PVTZ-JKFIT
	 Reference Energy          =    -490.7127117446252100 [Eh]
	 Singles Energy            =      -0.0000000000000000 [Eh]
	 Same-Spin Energy          =      -0.5022927120556229 [Eh]
	 Opposite-Spin Energy      =      -1.5411355310717028 [Eh]
	 Correlation Energy        =      -2.0434282431273258 [Eh]
	 Total Energy              =    -492.7561399877525332 [Eh]

	 ================> DF-SCS-MP2 Energies <==================
	-----------------------------------------------------------
	 SCS Same-Spin Scale       =       0.3333333333333333 [-]
	 SCS Opposite-Spin Scale   =       1.2000000000000000 [-]
	 SCS Same-Spin Energy      =      -0.1674309040185409 [Eh]
	 SCS Opposite-Spin Energy  =      -1.8493626372860432 [Eh]
	 SCS Correlation Energy    =      -2.0167935413045841 [Eh]
	 SCS Total Energy          =    -492.7295052859298039 [Eh]
	-----------------------------------------------------------

  Dipole Moment: [D]
     X:     1.0946      Y:     4.5140      Z:    -0.0000     Total:     4.6448

*** Psi4 exiting successfully. Buy a developer a beer!
