                               Psi4 1.3.2 release

  ==> Input File <==

--------------------------------------------------------------------------
#psi4
#
memory 32 gb

molecule  {
0 1
  O        2.3111590    -1.3984000     0.0000580
  O       -2.2718830    -1.4902890    -0.0001310
  N        1.1826080     0.6255060     0.0000550
  N        0.0153410    -1.3761840    -0.0000340
  C       -1.2346770     0.6647280    -0.0000250
  C       -0.0319280     1.2897490     0.0000350
  C        1.2605820    -0.7608720     0.0000310
  C       -1.2542960    -0.7955090    -0.0000670
  C        2.4243390     1.3942650     0.0001240
  C       -2.5504790     1.3758010    -0.0000570
  H        0.0516650     2.3739750     0.0000690
  H        0.0461780    -2.3935470    -0.0000610
  H        2.4800130     2.0209940     0.8935150
  H        2.4798690     2.0213500    -0.8930780
  H        3.2466700     0.6823050    -0.0000520
  H       -3.1370704     1.0857225    -0.8759403
  H       -2.4053253     2.4598256     0.0080825
  H       -3.1376190     1.0948280     0.8784230
units angstrom
no_reorient  #important for SAPT in psi4, default
symmetry c1  #important for SAPT in psi4, default
}

set PROPERTIES_ORIGIN ["COM"]
properties('MP2/aug-cc-pvtz', properties = ['dipole'])
--------------------------------------------------------------------------

    Molecular point group: c1
  Charge       = 0
  Multiplicity = 1
  Basis Set: AUG-CC-PVTZ
    Blend: AUG-CC-PVTZ
  Basis Set: (AUG-CC-PVTZ AUX)
    Blend: AUG-CC-PVTZ-JKFIT

    Orbital Energies [Eh]
    ---------------------

    Doubly Occupied:

       1A    -20.540489     2A    -20.538604     3A    -15.638151
       4A    -15.624609     5A    -11.413693     6A    -11.376222
       7A    -11.324883     8A    -11.285952     9A    -11.259579
      10A    -11.237174    11A     -1.424082    12A     -1.387047
      13A     -1.306754    14A     -1.242907    15A     -1.109072
      16A     -0.993155    17A     -0.963859    18A     -0.914232
      19A     -0.852686    20A     -0.770754    21A     -0.734818
      22A     -0.692241    23A     -0.682151    24A     -0.649478
      25A     -0.637753    26A     -0.615654    27A     -0.610044
      28A     -0.588625    29A     -0.583797    30A     -0.555053
      31A     -0.549015    32A     -0.543068    33A     -0.487940
      34A     -0.475309    35A     -0.444357    36A     -0.430604
      37A     -0.345833

  @DF-RHF Final Energy:  -490.71195620348163

   => Energetics <=

    Nuclear Repulsion Energy =            530.3997053930559105
    One-Electron Energy =               -1720.5640377237307348
    Two-Electron Energy =                 699.4523761271931335
    Total Energy =                       -490.7119562034816909
  Basis Set: (AUG-CC-PVTZ AUX)
    Blend: AUG-CC-PVTZ-RI
    Molecular point group: c1

    Geometry (in Angstrom), charge = 0, multiplicity = 1:

       Center              X                  Y                   Z               Mass
    ------------   -----------------  -----------------  -----------------  -----------------
         O            2.308395029112    -1.332144808076    -0.000018128033    15.994914619570
         O           -2.274646970888    -1.424033808076    -0.000207128033    15.994914619570
         N            1.179844029112     0.691761191924    -0.000021128033    14.003074004430
         N            0.012577029112    -1.309928808076    -0.000110128033    14.003074004430
         C           -1.237440970888     0.730983191924    -0.000101128033    12.000000000000
         C           -0.034691970888     1.356004191924    -0.000041128033    12.000000000000
         C            1.257818029112    -0.694616808076    -0.000045128033    12.000000000000
         C           -1.257059970888    -0.729253808076    -0.000143128033    12.000000000000
         C            2.421575029112     1.460520191924     0.000047871967    12.000000000000
         C           -2.553242970888     1.442056191924    -0.000133128033    12.000000000000
         H            0.048901029112     2.440230191924    -0.000007128033     1.007825032230
         H            0.043414029112    -2.327291808076    -0.000137128033     1.007825032230
         H            2.477249029112     2.087249191924     0.893438871967     1.007825032230
         H            2.477105029112     2.087605191924    -0.893154128033     1.007825032230
         H            3.243906029112     0.748560191924    -0.000128128033     1.007825032230
         H           -3.139834370888     1.151977691924    -0.876016428033     1.007825032230
         H           -2.408089270888     2.526080791924     0.008006371967     1.007825032230
         H           -3.140382970888     1.161083191924     0.878346871967     1.007825032230

  Basis Set: AUG-CC-PVTZ
    Blend: AUG-CC-PVTZ
  Basis Set: (AUG-CC-PVTZ AUX)
    Blend: AUG-CC-PVTZ-JKFIT
	 Reference Energy          =    -490.7119562034816340 [Eh]
	 Singles Energy            =      -0.0000000000000000 [Eh]
	 Same-Spin Energy          =      -0.5024001647775547 [Eh]
	 Opposite-Spin Energy      =      -1.5414783939788599 [Eh]
	 Correlation Energy        =      -2.0438785587564148 [Eh]
	 Total Energy              =    -492.7558347622380666 [Eh]

	 ================> DF-SCS-MP2 Energies <==================
	-----------------------------------------------------------
	 SCS Same-Spin Scale       =       0.3333333333333333 [-]
	 SCS Opposite-Spin Scale   =       1.2000000000000000 [-]
	 SCS Same-Spin Energy      =      -0.1674667215925182 [Eh]
	 SCS Opposite-Spin Energy  =      -1.8497740727746317 [Eh]
	 SCS Correlation Energy    =      -2.0172407943671500 [Eh]
	 SCS Total Energy          =    -492.7291969978487600 [Eh]
	-----------------------------------------------------------

  Dipole Moment: [D]
     X:     1.0469      Y:     4.5187      Z:     0.0049     Total:     4.6384

*** Psi4 exiting successfully. Buy a developer a beer!
