                               Psi4 1.3.2 release

  ==> Input File <==

--------------------------------------------------------------------------
#psi4
#
memory 32 gb

molecule  {
0 1
  O        2.3111590    -1.3984000     0.0000580
  O       -2.2718830    -1.4902890    -0.0001310
  N        1.1826080     0.6255060     0.0000550
  N        0.0153410    -1.3761840    -0.0000340
  C       -1.2346770     0.6647280    -0.0000250
  C       -0.0260852     1.3003224     0.0000356
  C        1.2605820    -0.7608720     0.0000310
  C       -1.2542960    -0.7955090    -0.0000670
  C        2.4175831     1.4050717     0.0001241
  C       -2.5504790     1.3758010    -0.0000570
  H        0.0516650     2.3739750     0.0000690
  H        0.0461780    -2.3935470    -0.0000610
  H        2.4800130     2.0209940     0.8935150
  H        2.4798690     2.0213500    -0.8930780
  H        3.2466700     0.6823050    -0.0000520
  H       -3.1375530     1.0948740    -0.8785960
  H       -2.4103180     2.4605130    -0.0000230
  H       -3.1376190     1.0948280     0.8784230
units angstrom
no_reorient  #important for SAPT in psi4, default
symmetry c1  #important for SAPT in psi4, default
}

set PROPERTIES_ORIGIN ["COM"]
properties('MP2/aug-cc-pvtz', properties = ['dipole'])
--------------------------------------------------------------------------

    Molecular point group: c1
  Charge       = 0
  Multiplicity = 1
  Basis Set: AUG-CC-PVTZ
    Blend: AUG-CC-PVTZ
  Basis Set: (AUG-CC-PVTZ AUX)
    Blend: AUG-CC-PVTZ-JKFIT

    Orbital Energies [Eh]
    ---------------------

    Doubly Occupied:

       1A    -20.540724     2A    -20.538378     3A    -15.638492
       4A    -15.624746     5A    -11.414267     6A    -11.376179
       7A    -11.325532     8A    -11.285708     9A    -11.260598
      10A    -11.236797    11A     -1.424086    12A     -1.386898
      13A     -1.306847    14A     -1.243068    15A     -1.106994
      16A     -0.992767    17A     -0.964492    18A     -0.914951
      19A     -0.851912    20A     -0.770025    21A     -0.735123
      22A     -0.694649    23A     -0.682901    24A     -0.649533
      25A     -0.638097    26A     -0.617098    27A     -0.609920
      28A     -0.586833    29A     -0.583996    30A     -0.553897
      31A     -0.546843    32A     -0.543531    33A     -0.488126
      34A     -0.475721    35A     -0.444319    36A     -0.430614
      37A     -0.344407

  @DF-RHF Final Energy:  -490.71095700007197

   => Energetics <=

    Nuclear Repulsion Energy =            530.1626250608311466
    One-Electron Energy =               -1720.0890284077315755
    Two-Electron Energy =                 699.2154463468283438
    Total Energy =                       -490.7109570000719714
  Basis Set: (AUG-CC-PVTZ AUX)
    Blend: AUG-CC-PVTZ-RI
    Molecular point group: c1

    Geometry (in Angstrom), charge = 0, multiplicity = 1:

       Center              X                  Y                   Z               Mass
    ------------   -----------------  -----------------  -----------------  -----------------
         O            2.308512660925    -1.334047419786     0.000059246783    15.994914619570
         O           -2.274529339075    -1.425936419786    -0.000129753217    15.994914619570
         N            1.179961660925     0.689858580214     0.000056246783    14.003074004430
         N            0.012694660925    -1.311831419786    -0.000032753217    14.003074004430
         C           -1.237323339075     0.729080580214    -0.000023753217    12.000000000000
         C           -0.028731539075     1.364674980214     0.000036846783    12.000000000000
         C            1.257935660925    -0.696519419786     0.000032246783    12.000000000000
         C           -1.256942339075    -0.731156419786    -0.000065753217    12.000000000000
         C            2.414936760925     1.469424280214     0.000125346783    12.000000000000
         C           -2.553125339075     1.440153580214    -0.000055753217    12.000000000000
         H            0.049018660925     2.438327580214     0.000070246783     1.007825032230
         H            0.043531660925    -2.329194419786    -0.000059753217     1.007825032230
         H            2.477366660925     2.085346580214     0.893516246783     1.007825032230
         H            2.477222660925     2.085702580214    -0.893076753217     1.007825032230
         H            3.244023660925     0.746657580214    -0.000050753217     1.007825032230
         H           -3.140199339075     1.159226580214    -0.878594753217     1.007825032230
         H           -2.412964339075     2.524865580214    -0.000021753217     1.007825032230
         H           -3.140265339075     1.159180580214     0.878424246783     1.007825032230

  Basis Set: AUG-CC-PVTZ
    Blend: AUG-CC-PVTZ
  Basis Set: (AUG-CC-PVTZ AUX)
    Blend: AUG-CC-PVTZ-JKFIT
	 Reference Energy          =    -490.7109570000719714 [Eh]
	 Singles Energy            =      -0.0000000000000000 [Eh]
	 Same-Spin Energy          =      -0.5025626790195208 [Eh]
	 Opposite-Spin Energy      =      -1.5418104973047519 [Eh]
	 Correlation Energy        =      -2.0443731763242727 [Eh]
	 Total Energy              =    -492.7553301763962281 [Eh]

	 ================> DF-SCS-MP2 Energies <==================
	-----------------------------------------------------------
	 SCS Same-Spin Scale       =       0.3333333333333333 [-]
	 SCS Opposite-Spin Scale   =       1.2000000000000000 [-]
	 SCS Same-Spin Energy      =      -0.1675208930065069 [Eh]
	 SCS Opposite-Spin Energy  =      -1.8501725967657023 [Eh]
	 SCS Correlation Energy    =      -2.0176934897722094 [Eh]
	 SCS Total Energy          =    -492.7286504898441990 [Eh]
	-----------------------------------------------------------

  Dipole Moment: [D]
     X:     1.0563      Y:     4.5319      Z:     0.0002     Total:     4.6534

*** Psi4 exiting successfully. Buy a developer a beer!
