                               Psi4 1.4a3.dev225

  ==> Input File <==

--------------------------------------------------------------------------
#psi4
#
memory 32 gb

molecule  {
0 1
  O        2.3212770    -1.3580180     0.0000020
  O       -2.2717460    -1.4962290     0.0000010
  N        1.1724310     0.6334210    -0.0000020
  N        0.0162060    -1.3769820    -0.0000020
  C       -1.2398930     0.6613320     0.0000000
  C       -0.0398910     1.2934770    -0.0000010
  C        1.2527440    -0.7526170    -0.0000010
  C       -1.2589250    -0.7964470     0.0000000
  C        2.4447950     1.3519700     0.0000010
  C       -2.5375150     1.3664707     0.0000010
  H        0.0310140     2.3780990    -0.0000010
  H        0.0457120    -2.3937650    -0.0000010
  H        2.2343430     2.4214070    -0.0000200
  H        3.0241620     1.0875710    -0.8862110
  H        3.0241420     1.0876020     0.8862360
  H       -3.1432670     1.0977880    -0.8790540
  H       -2.4120010     2.4600010     0.0000010
  H       -3.1432670     1.0977870     0.8790540
units angstrom
no_reorient  #important for SAPT in psi4, default
symmetry c1  #important for SAPT in psi4, default
}

set PROPERTIES_ORIGIN ["COM"]
properties('MP2/aug-cc-pvtz', properties = ['dipole'])
--------------------------------------------------------------------------

    Molecular point group: c1
  Charge       = 0
  Multiplicity = 1
  Basis Set: AUG-CC-PVTZ
    Blend: AUG-CC-PVTZ
  Basis Set: (AUG-CC-PVTZ AUX)
    Blend: AUG-CC-PVTZ-JKFIT

    Orbital Energies [Eh]
    ---------------------

    Doubly Occupied:

       1A    -20.541235     2A    -20.538280     3A    -15.638750
       4A    -15.624979     5A    -11.411643     6A    -11.376032
       7A    -11.326587     8A    -11.288821     9A    -11.256521
      10A    -11.236819    11A     -1.425045    12A     -1.387488
      13A     -1.306717    14A     -1.243726    15A     -1.111139
      16A     -0.994192    17A     -0.962509    18A     -0.914645
      19A     -0.852632    20A     -0.771424    21A     -0.735924
      22A     -0.693893    23A     -0.683248    24A     -0.650559
      25A     -0.637018    26A     -0.612771    27A     -0.609127
      28A     -0.592312    29A     -0.579826    30A     -0.562892
      31A     -0.543572    32A     -0.539553    33A     -0.491577
      34A     -0.475729    35A     -0.444485    36A     -0.430385
      37A     -0.343411

  @DF-RHF Final Energy:  -490.71178843957114

   => Energetics <=

    Nuclear Repulsion Energy =            531.1271176612565341
    One-Electron Energy =               -1722.0068837990884276
    Two-Electron Energy =                 700.1679776982607564
    Total Energy =                       -490.7117884395711371
  Basis Set: (AUG-CC-PVTZ AUX)
    Blend: AUG-CC-PVTZ-RI
    Molecular point group: c1

    Geometry (in Angstrom), charge = 0, multiplicity = 1:

       Center              X                  Y                   Z               Mass
    ------------   -----------------  -----------------  -----------------  -----------------
         O            2.317344502272    -1.291855807644     0.000002028533    15.994914619570
         O           -2.275678497728    -1.430066807644     0.000001028533    15.994914619570
         N            1.168498502272     0.699583192356    -0.000001971467    14.003074004430
         N            0.012273502272    -1.310819807644    -0.000001971467    14.003074004430
         C           -1.243825497728     0.727494192356     0.000000028533    12.000000000000
         C           -0.043823497728     1.359639192356    -0.000000971467    12.000000000000
         C            1.248811502272    -0.686454807644    -0.000000971467    12.000000000000
         C           -1.262857497728    -0.730284807644     0.000000028533    12.000000000000
         C            2.440862502272     1.418132192356     0.000001028533    12.000000000000
         C           -2.541447497728     1.432632892356     0.000001028533    12.000000000000
         H            0.027081502272     2.444261192356    -0.000000971467     1.007825032230
         H            0.041779502272    -2.327602807644    -0.000000971467     1.007825032230
         H            2.230410502272     2.487569192356    -0.000019971467     1.007825032230
         H            3.020229502272     1.153733192356    -0.886210971467     1.007825032230
         H            3.020209502272     1.153764192356     0.886236028533     1.007825032230
         H           -3.147199497728     1.163950192356    -0.879053971467     1.007825032230
         H           -2.415933497728     2.526163192356     0.000001028533     1.007825032230
         H           -3.147199497728     1.163949192356     0.879054028533     1.007825032230

  Basis Set: AUG-CC-PVTZ
    Blend: AUG-CC-PVTZ
  Basis Set: (AUG-CC-PVTZ AUX)
    Blend: AUG-CC-PVTZ-JKFIT
	 Reference Energy          =    -490.7117884395711371 [Eh]
	 Singles Energy            =      -0.0000000000000000 [Eh]
	 Same-Spin Energy          =      -0.5025764369936953 [Eh]
	 Opposite-Spin Energy      =      -1.5415126696686170 [Eh]
	 Correlation Energy        =      -2.0440891066623124 [Eh]
	 Total Energy              =    -492.7558775462334779 [Eh]

	 ================> DF-SCS-MP2 Energies <==================
	-----------------------------------------------------------
	 SCS Same-Spin Scale       =       0.3333333333333333 [-]
	 SCS Opposite-Spin Scale   =       1.2000000000000000 [-]
	 SCS Same-Spin Energy      =      -0.1675254789978984 [Eh]
	 SCS Opposite-Spin Energy  =      -1.8498152036023403 [Eh]
	 SCS Correlation Energy    =      -2.0173406826002389 [Eh]
	 SCS Total Energy          =    -492.7291291221714005 [Eh]
	-----------------------------------------------------------

  Dipole Moment: [D]
     X:     1.0998      Y:     4.5051      Z:    -0.0000     Total:     4.6374

*** Psi4 exiting successfully. Buy a developer a beer!
