                               Psi4 1.4a3.dev225

  ==> Input File <==

--------------------------------------------------------------------------
#psi4
#
memory 32 gb

molecule  {
0 1
  O        2.3212770    -1.3580180     0.0000020
  O       -2.2717460    -1.4962290     0.0000010
  N        1.1724310     0.6334210    -0.0000020
  N        0.0162060    -1.3769820    -0.0000020
  C       -1.2398930     0.6613320     0.0000000
  C       -0.0838042     1.3173858    -0.0000010
  C        1.2527440    -0.7526170    -0.0000010
  C       -1.2589250    -0.7964470     0.0000000
  C        2.4447950     1.3519700     0.0000010
  C       -2.5550880     1.3760200     0.0000010
  H        0.0310140     2.3780990    -0.0000010
  H        0.0457120    -2.3937650    -0.0000010
  H        2.2343430     2.4214070    -0.0000200
  H        3.0241620     1.0875710    -0.8862110
  H        3.0241420     1.0876020     0.8862360
  H       -3.1432670     1.0977880    -0.8790540
  H       -2.4120010     2.4600010     0.0000010
  H       -3.1432670     1.0977870     0.8790540
units angstrom
no_reorient  #important for SAPT in psi4, default
symmetry c1  #important for SAPT in psi4, default
}

set PROPERTIES_ORIGIN ["COM"]
properties('MP2/aug-cc-pvtz', properties = ['dipole'])
--------------------------------------------------------------------------

    Molecular point group: c1
  Charge       = 0
  Multiplicity = 1
  Basis Set: AUG-CC-PVTZ
    Blend: AUG-CC-PVTZ
  Basis Set: (AUG-CC-PVTZ AUX)
    Blend: AUG-CC-PVTZ-JKFIT

    Orbital Energies [Eh]
    ---------------------

    Doubly Occupied:

       1A    -20.542664     2A    -20.538196     3A    -15.632815
       4A    -15.624504     5A    -11.408492     6A    -11.380199
       7A    -11.324002     8A    -11.285003     9A    -11.259299
      10A    -11.238131    11A     -1.421543    12A     -1.389798
      13A     -1.295030    14A     -1.240073    15A     -1.116589
      16A     -0.988098    17A     -0.961229    18A     -0.915384
      19A     -0.850678    20A     -0.768513    21A     -0.735810
      22A     -0.696168    23A     -0.677639    24A     -0.646846
      25A     -0.636989    26A     -0.615176    27A     -0.612589
      28A     -0.588396    29A     -0.582387    30A     -0.555792
      31A     -0.548845    32A     -0.540504    33A     -0.485037
      34A     -0.474435    35A     -0.447064    36A     -0.430495
      37A     -0.351454

  @DF-RHF Final Energy:  -490.71021979205369

   => Energetics <=

    Nuclear Repulsion Energy =            530.2419185613937316
    One-Electron Energy =               -1720.2925453349546387
    Two-Electron Energy =                 699.3404069815071580
    Total Energy =                       -490.7102197920537492
  Basis Set: (AUG-CC-PVTZ AUX)
    Blend: AUG-CC-PVTZ-RI
    Molecular point group: c1

    Geometry (in Angstrom), charge = 0, multiplicity = 1:

       Center              X                  Y                   Z               Mass
    ------------   -----------------  -----------------  -----------------  -----------------
         O            2.322612543781    -1.294722445355     0.000002028533    15.994914619570
         O           -2.270410456219    -1.432933445355     0.000001028533    15.994914619570
         N            1.173766543781     0.696716554645    -0.000001971467    14.003074004430
         N            0.017541543781    -1.313686445355    -0.000001971467    14.003074004430
         C           -1.238557456219     0.724627554645     0.000000028533    12.000000000000
         C           -0.082468656219     1.380681354645    -0.000000971467    12.000000000000
         C            1.254079543781    -0.689321445355    -0.000000971467    12.000000000000
         C           -1.257589456219    -0.733151445355     0.000000028533    12.000000000000
         C            2.446130543781     1.415265554645     0.000001028533    12.000000000000
         C           -2.553752456219     1.439315554645     0.000001028533    12.000000000000
         H            0.032349543781     2.441394554645    -0.000000971467     1.007825032230
         H            0.047047543781    -2.330469445355    -0.000000971467     1.007825032230
         H            2.235678543781     2.484702554645    -0.000019971467     1.007825032230
         H            3.025497543781     1.150866554645    -0.886210971467     1.007825032230
         H            3.025477543781     1.150897554645     0.886236028533     1.007825032230
         H           -3.141931456219     1.161083554645    -0.879053971467     1.007825032230
         H           -2.410665456219     2.523296554645     0.000001028533     1.007825032230
         H           -3.141931456219     1.161082554645     0.879054028533     1.007825032230

  Basis Set: AUG-CC-PVTZ
    Blend: AUG-CC-PVTZ
  Basis Set: (AUG-CC-PVTZ AUX)
    Blend: AUG-CC-PVTZ-JKFIT
	 Reference Energy          =    -490.7102197920536923 [Eh]
	 Singles Energy            =      -0.0000000000000000 [Eh]
	 Same-Spin Energy          =      -0.5017284263375643 [Eh]
	 Opposite-Spin Energy      =      -1.5410390226720350 [Eh]
	 Correlation Energy        =      -2.0427674490095993 [Eh]
	 Total Energy              =    -492.7529872410632947 [Eh]

	 ================> DF-SCS-MP2 Energies <==================
	-----------------------------------------------------------
	 SCS Same-Spin Scale       =       0.3333333333333333 [-]
	 SCS Opposite-Spin Scale   =       1.2000000000000000 [-]
	 SCS Same-Spin Energy      =      -0.1672428087791881 [Eh]
	 SCS Opposite-Spin Energy  =      -1.8492468272064420 [Eh]
	 SCS Correlation Energy    =      -2.0164896359856299 [Eh]
	 SCS Total Energy          =    -492.7267094280393280 [Eh]
	-----------------------------------------------------------

  Dipole Moment: [D]
     X:     0.8044      Y:     4.5082      Z:    -0.0000     Total:     4.5794

*** Psi4 exiting successfully. Buy a developer a beer!
