                               Psi4 1.3.2 release

  ==> Input File <==

--------------------------------------------------------------------------
#psi4
#
memory 32 gb

molecule  {
0 1
  O        2.3111590    -1.3984000     0.0000580
  O       -2.2470156    -1.5253790    -0.0001311
  N        1.1826080     0.6255060     0.0000550
  N       -0.0056977    -1.4201400    -0.0000363
  C       -1.2346770     0.6647280    -0.0000250
  C       -0.0319280     1.2897490     0.0000350
  C        1.2605820    -0.7608720     0.0000310
  C       -1.2542960    -0.7955090    -0.0000670
  C        2.4243390     1.3942650     0.0001240
  C       -2.5504790     1.3758010    -0.0000570
  H        0.0516650     2.3739750     0.0000690
  H        0.0461780    -2.3935470    -0.0000610
  H        2.4800130     2.0209940     0.8935150
  H        2.4798690     2.0213500    -0.8930780
  H        3.2466700     0.6823050    -0.0000520
  H       -3.1375530     1.0948740    -0.8785960
  H       -2.4103180     2.4605130    -0.0000230
  H       -3.1376190     1.0948280     0.8784230
units angstrom
no_reorient  #important for SAPT in psi4, default
symmetry c1  #important for SAPT in psi4, default
}

set PROPERTIES_ORIGIN ["COM"]
properties('MP2/aug-cc-pvtz', properties = ['dipole'])
--------------------------------------------------------------------------

    Molecular point group: c1
  Charge       = 0
  Multiplicity = 1
  Basis Set: AUG-CC-PVTZ
    Blend: AUG-CC-PVTZ
  Basis Set: (AUG-CC-PVTZ AUX)
    Blend: AUG-CC-PVTZ-JKFIT

    Orbital Energies [Eh]
    ---------------------

    Doubly Occupied:

       1A    -20.542741     2A    -20.533973     3A    -15.640546
       4A    -15.618291     5A    -11.416027     6A    -11.373715
       7A    -11.327000     8A    -11.287551     9A    -11.262420
      10A    -11.238779    11A     -1.421869    12A     -1.386040
      13A     -1.306375    14A     -1.236627    15A     -1.110650
      16A     -0.994328    17A     -0.963023    18A     -0.915747
      19A     -0.844943    20A     -0.770358    21A     -0.743782
      22A     -0.695294    23A     -0.680591    24A     -0.649331
      25A     -0.637224    26A     -0.614240    27A     -0.609597
      28A     -0.589938    29A     -0.583654    30A     -0.558491
      31A     -0.549824    32A     -0.543528    33A     -0.488941
      34A     -0.476162    35A     -0.440645    36A     -0.426369
      37A     -0.347370

  @DF-RHF Final Energy:  -490.70893538608414

   => Energetics <=

    Nuclear Repulsion Energy =            529.4556458052149992
    One-Electron Energy =               -1718.6771958903227642
    Two-Electron Energy =                 698.5126146990236293
    Total Energy =                       -490.7089353860841356
  Basis Set: (AUG-CC-PVTZ AUX)
    Blend: AUG-CC-PVTZ-RI
    Molecular point group: c1

    Geometry (in Angstrom), charge = 0, multiplicity = 1:

       Center              X                  Y                   Z               Mass
    ------------   -----------------  -----------------  -----------------  -----------------
         O            2.307697982747    -1.323813545500     0.000059548133    15.994914619570
         O           -2.250476617253    -1.450792545500    -0.000129551867    15.994914619570
         N            1.179146982747     0.700092454500     0.000056548133    14.003074004430
         N           -0.009158717253    -1.345553545500    -0.000034751867    14.003074004430
         C           -1.238138017253     0.739314454500    -0.000023451867    12.000000000000
         C           -0.035389017253     1.364335454500     0.000036548133    12.000000000000
         C            1.257120982747    -0.686285545500     0.000032548133    12.000000000000
         C           -1.257757017253    -0.720922545500    -0.000065451867    12.000000000000
         C            2.420877982747     1.468851454500     0.000125548133    12.000000000000
         C           -2.553940017253     1.450387454500    -0.000055451867    12.000000000000
         H            0.048203982747     2.448561454500     0.000070548133     1.007825032230
         H            0.042716982747    -2.318960545500    -0.000059451867     1.007825032230
         H            2.476551982747     2.095580454500     0.893516548133     1.007825032230
         H            2.476407982747     2.095936454500    -0.893076451867     1.007825032230
         H            3.243208982747     0.756891454500    -0.000050451867     1.007825032230
         H           -3.141014017253     1.169460454500    -0.878594451867     1.007825032230
         H           -2.413779017253     2.535099454500    -0.000021451867     1.007825032230
         H           -3.141080017253     1.169414454500     0.878424548133     1.007825032230

  Basis Set: AUG-CC-PVTZ
    Blend: AUG-CC-PVTZ
  Basis Set: (AUG-CC-PVTZ AUX)
    Blend: AUG-CC-PVTZ-JKFIT
	 Reference Energy          =    -490.7089353860841356 [Eh]
	 Singles Energy            =      -0.0000000000000000 [Eh]
	 Same-Spin Energy          =      -0.5017397938232295 [Eh]
	 Opposite-Spin Energy      =      -1.5409496747799798 [Eh]
	 Correlation Energy        =      -2.0426894686032093 [Eh]
	 Total Energy              =    -492.7516248546873499 [Eh]

	 ================> DF-SCS-MP2 Energies <==================
	-----------------------------------------------------------
	 SCS Same-Spin Scale       =       0.3333333333333333 [-]
	 SCS Opposite-Spin Scale   =       1.2000000000000000 [-]
	 SCS Same-Spin Energy      =      -0.1672465979410765 [Eh]
	 SCS Opposite-Spin Energy  =      -1.8491396097359756 [Eh]
	 SCS Correlation Energy    =      -2.0163862076770522 [Eh]
	 SCS Total Energy          =    -492.7253215937611799 [Eh]
	-----------------------------------------------------------

  Dipole Moment: [D]
     X:     1.1297      Y:     4.7054      Z:     0.0002     Total:     4.8391

*** Psi4 exiting successfully. Buy a developer a beer!
