                               Psi4 1.3.2 release

  ==> Input File <==

--------------------------------------------------------------------------
#psi4
#
memory 32 gb

molecule  {
0 1
  O        2.3111590    -1.3984000     0.0000580
  O       -2.2718830    -1.4902890    -0.0001310
  N        1.1893889     0.6149738     0.0222539
  N        0.0153410    -1.3761840    -0.0000340
  C       -1.2346770     0.6647280    -0.0000250
  C       -0.0319280     1.2897490     0.0000350
  C        1.2605820    -0.7608720     0.0000310
  C       -1.2542960    -0.7955090    -0.0000670
  C        2.4243390     1.3942650     0.0001240
  C       -2.5504790     1.3758010    -0.0000570
  H        0.0516650     2.3739750     0.0000690
  H        0.0461780    -2.3935470    -0.0000610
  H        2.4800130     2.0209940     0.8935150
  H        2.4967816     2.0279252    -0.8872067
  H        3.2466700     0.6823050    -0.0000520
  H       -3.1375530     1.0948740    -0.8785960
  H       -2.4103180     2.4605130    -0.0000230
  H       -3.1376190     1.0948280     0.8784230
units angstrom
no_reorient  #important for SAPT in psi4, default
symmetry c1  #important for SAPT in psi4, default
}

set PROPERTIES_ORIGIN ["COM"]
properties('MP2/aug-cc-pvtz', properties = ['dipole'])
--------------------------------------------------------------------------

    Molecular point group: c1
  Charge       = 0
  Multiplicity = 1
  Basis Set: AUG-CC-PVTZ
    Blend: AUG-CC-PVTZ
  Basis Set: (AUG-CC-PVTZ AUX)
    Blend: AUG-CC-PVTZ-JKFIT

    Orbital Energies [Eh]
    ---------------------

    Doubly Occupied:

       1A    -20.539323     2A    -20.538315     3A    -15.638069
       4A    -15.624233     5A    -11.411884     6A    -11.376846
       7A    -11.325725     8A    -11.285588     9A    -11.261339
      10A    -11.237967    11A     -1.423970    12A     -1.387412
      13A     -1.305146    14A     -1.242407    15A     -1.109917
      16A     -0.992872    17A     -0.965259    18A     -0.914395
      19A     -0.852037    20A     -0.770952    21A     -0.735480
      22A     -0.691579    23A     -0.681838    24A     -0.649428
      25A     -0.637189    26A     -0.615250    27A     -0.609971
      28A     -0.589793    29A     -0.584304    30A     -0.555081
      31A     -0.548317    32A     -0.543445    33A     -0.485984
      34A     -0.474616    35A     -0.444556    36A     -0.430431
      37A     -0.347729

  @DF-RHF Final Energy:  -490.71193082804075

   => Energetics <=

    Nuclear Repulsion Energy =            530.3796548994251907
    One-Electron Energy =               -1720.5258810060322503
    Two-Electron Energy =                 699.4342952785664238
    Total Energy =                       -490.7119308280407495
  Basis Set: (AUG-CC-PVTZ AUX)
    Blend: AUG-CC-PVTZ-RI
    Molecular point group: c1

    Geometry (in Angstrom), charge = 0, multiplicity = 1:

       Center              X                  Y                   Z               Mass
    ------------   -----------------  -----------------  -----------------  -----------------
         O            2.307634774055    -1.331209908996    -0.002202390371    15.994914619570
         O           -2.275407225945    -1.423098908996    -0.002391390371    15.994914619570
         N            1.185864674055     0.682163891004     0.019993509629    14.003074004430
         N            0.011816774055    -1.308993908996    -0.002294390371    14.003074004430
         C           -1.238201225945     0.731918091004    -0.002285390371    12.000000000000
         C           -0.035452225945     1.356939091004    -0.002225390371    12.000000000000
         C            1.257057774055    -0.693681908996    -0.002229390371    12.000000000000
         C           -1.257820225945    -0.728318908996    -0.002327390371    12.000000000000
         C            2.420814774055     1.461455091004    -0.002136390371    12.000000000000
         C           -2.554003225945     1.442991091004    -0.002317390371    12.000000000000
         H            0.048140774055     2.441165091004    -0.002191390371     1.007825032230
         H            0.042653774055    -2.326356908996    -0.002321390371     1.007825032230
         H            2.476488774055     2.088184091004     0.891254609629     1.007825032230
         H            2.493257374055     2.095115291004    -0.889467090371     1.007825032230
         H            3.243145774055     0.749495091004    -0.002312390371     1.007825032230
         H           -3.141077225945     1.162064091004    -0.880856390371     1.007825032230
         H           -2.413842225945     2.527703091004    -0.002283390371     1.007825032230
         H           -3.141143225945     1.162018091004     0.876162609629     1.007825032230

  Basis Set: AUG-CC-PVTZ
    Blend: AUG-CC-PVTZ
  Basis Set: (AUG-CC-PVTZ AUX)
    Blend: AUG-CC-PVTZ-JKFIT
	 Reference Energy          =    -490.7119308280407495 [Eh]
	 Singles Energy            =      -0.0000000000000000 [Eh]
	 Same-Spin Energy          =      -0.5022112545581995 [Eh]
	 Opposite-Spin Energy      =      -1.5412863462245658 [Eh]
	 Correlation Energy        =      -2.0434976007827652 [Eh]
	 Total Energy              =    -492.7554284288235067 [Eh]

	 ================> DF-SCS-MP2 Energies <==================
	-----------------------------------------------------------
	 SCS Same-Spin Scale       =       0.3333333333333333 [-]
	 SCS Opposite-Spin Scale   =       1.2000000000000000 [-]
	 SCS Same-Spin Energy      =      -0.1674037515193998 [Eh]
	 SCS Opposite-Spin Energy  =      -1.8495436154694789 [Eh]
	 SCS Correlation Energy    =      -2.0169473669888789 [Eh]
	 SCS Total Energy          =    -492.7288781950296084 [Eh]
	-----------------------------------------------------------

  Dipole Moment: [D]
     X:     0.9643      Y:     4.5656      Z:    -0.0164     Total:     4.6664

*** Psi4 exiting successfully. Buy a developer a beer!
