                               Psi4 1.3.2 release

  ==> Input File <==

--------------------------------------------------------------------------
#psi4
#
memory 32 gb

molecule  {
0 1
  O        2.3111590    -1.3984000     0.0000580
  O       -2.2718830    -1.4902890    -0.0001310
  N        1.1826080     0.6255060     0.0000550
  N        0.0153410    -1.3761840    -0.0000340
  C       -1.2346770     0.6647280    -0.0000250
  C       -0.0319280     1.2897490     0.0000350
  C        1.2605820    -0.7608720     0.0000310
  C       -1.2593149    -0.8066106    -0.0000675
  C        2.4243390     1.3942650     0.0001240
  C       -2.5504790     1.3758010    -0.0000570
  H        0.0516650     2.3739750     0.0000690
  H        0.0372988    -2.3937774    -0.0000613
  H        2.4800130     2.0209940     0.8935150
  H        2.4798690     2.0213500    -0.8930780
  H        3.2466700     0.6823050    -0.0000520
  H       -3.1375530     1.0948740    -0.8785960
  H       -2.4103180     2.4605130    -0.0000230
  H       -3.1376190     1.0948280     0.8784230
units angstrom
no_reorient  #important for SAPT in psi4, default
symmetry c1  #important for SAPT in psi4, default
}

set PROPERTIES_ORIGIN ["COM"]
properties('MP2/aug-cc-pvtz', properties = ['dipole'])
--------------------------------------------------------------------------

    Molecular point group: c1
  Charge       = 0
  Multiplicity = 1
  Basis Set: AUG-CC-PVTZ
    Blend: AUG-CC-PVTZ
  Basis Set: (AUG-CC-PVTZ AUX)
    Blend: AUG-CC-PVTZ-JKFIT

    Orbital Energies [Eh]
    ---------------------

    Doubly Occupied:

       1A    -20.540726     2A    -20.540143     3A    -15.637095
       4A    -15.624007     5A    -11.413656     6A    -11.376231
       7A    -11.323244     8A    -11.285323     9A    -11.259492
      10A    -11.236753    11A     -1.424352    12A     -1.393233
      13A     -1.306195    14A     -1.243432    15A     -1.106976
      16A     -0.992588    17A     -0.963357    18A     -0.911698
      19A     -0.853049    20A     -0.770085    21A     -0.733161
      22A     -0.691884    23A     -0.681572    24A     -0.651094
      25A     -0.638108    26A     -0.616020    27A     -0.610858
      28A     -0.588391    29A     -0.583625    30A     -0.554984
      31A     -0.547958    32A     -0.545487    33A     -0.487234
      34A     -0.475065    35A     -0.444843    36A     -0.431939
      37A     -0.345035

  @DF-RHF Final Energy:  -490.71273174166140

   => Energetics <=

    Nuclear Repulsion Energy =            530.3250144873475165
    One-Electron Energy =               -1720.4177055382790513
    Two-Electron Energy =                 699.3799593092701343
    Total Energy =                       -490.7127317416614005
  Basis Set: (AUG-CC-PVTZ AUX)
    Blend: AUG-CC-PVTZ-RI
    Molecular point group: c1

    Geometry (in Angstrom), charge = 0, multiplicity = 1:

       Center              X                  Y                   Z               Mass
    ------------   -----------------  -----------------  -----------------  -----------------
         O            2.308928331861    -1.331262780603     0.000059351756    15.994914619570
         O           -2.274113668139    -1.423151780603    -0.000129648244    15.994914619570
         N            1.180377331861     0.692643219397     0.000056351756    14.003074004430
         N            0.013110331861    -1.309046780603    -0.000032648244    14.003074004430
         C           -1.236907668139     0.731865219397    -0.000023648244    12.000000000000
         C           -0.034158668139     1.356886219397     0.000036351756    12.000000000000
         C            1.258351331861    -0.693734780603     0.000032351756    12.000000000000
         C           -1.261545568139    -0.739473380603    -0.000066148244    12.000000000000
         C            2.422108331861     1.461402219397     0.000125351756    12.000000000000
         C           -2.552709668139     1.442938219397    -0.000055648244    12.000000000000
         H            0.049434331861     2.441112219397     0.000070351756     1.007825032230
         H            0.035068131861    -2.326640180603    -0.000059948244     1.007825032230
         H            2.477782331861     2.088131219397     0.893516351756     1.007825032230
         H            2.477638331861     2.088487219397    -0.893076648244     1.007825032230
         H            3.244439331861     0.749442219397    -0.000050648244     1.007825032230
         H           -3.139783668139     1.162011219397    -0.878594648244     1.007825032230
         H           -2.412548668139     2.527650219397    -0.000021648244     1.007825032230
         H           -3.139849668139     1.161965219397     0.878424351756     1.007825032230

  Basis Set: AUG-CC-PVTZ
    Blend: AUG-CC-PVTZ
  Basis Set: (AUG-CC-PVTZ AUX)
    Blend: AUG-CC-PVTZ-JKFIT
	 Reference Energy          =    -490.7127317416614005 [Eh]
	 Singles Energy            =      -0.0000000000000000 [Eh]
	 Same-Spin Energy          =      -0.5020665723245004 [Eh]
	 Opposite-Spin Energy      =      -1.5409371105647345 [Eh]
	 Correlation Energy        =      -2.0430036828892346 [Eh]
	 Total Energy              =    -492.7557354245506076 [Eh]

	 ================> DF-SCS-MP2 Energies <==================
	-----------------------------------------------------------
	 SCS Same-Spin Scale       =       0.3333333333333333 [-]
	 SCS Opposite-Spin Scale   =       1.2000000000000000 [-]
	 SCS Same-Spin Energy      =      -0.1673555241081668 [Eh]
	 SCS Opposite-Spin Energy  =      -1.8491245326776813 [Eh]
	 SCS Correlation Energy    =      -2.0164800567858481 [Eh]
	 SCS Total Energy          =    -492.7292117984472384 [Eh]
	-----------------------------------------------------------

  Dipole Moment: [D]
     X:     0.9785      Y:     4.4517      Z:     0.0002     Total:     4.5580

*** Psi4 exiting successfully. Buy a developer a beer!
