                               Psi4 1.3.2 release

  ==> Input File <==

--------------------------------------------------------------------------
#psi4
#
memory 32 gb

molecule  {
0 1
  O        2.3221254    -1.3799678     0.0000588
  O       -2.2718830    -1.4902890    -0.0001310
  N        1.2068155     0.6266557     0.0000559
  N        0.0153410    -1.3761840    -0.0000340
  C       -1.2346770     0.6647280    -0.0000250
  C       -0.0319280     1.2897490     0.0000350
  C        1.2605820    -0.7608720     0.0000310
  C       -1.2542960    -0.7955090    -0.0000670
  C        2.4243390     1.3942650     0.0001240
  C       -2.5504790     1.3758010    -0.0000570
  H        0.0516650     2.3739750     0.0000690
  H        0.0461780    -2.3935470    -0.0000610
  H        2.4800130     2.0209940     0.8935150
  H        2.4798690     2.0213500    -0.8930780
  H        3.2466700     0.6823050    -0.0000520
  H       -3.1375530     1.0948740    -0.8785960
  H       -2.4103180     2.4605130    -0.0000230
  H       -3.1376190     1.0948280     0.8784230
units angstrom
no_reorient  #important for SAPT in psi4, default
symmetry c1  #important for SAPT in psi4, default
}

set PROPERTIES_ORIGIN ["COM"]
properties('MP2/aug-cc-pvtz', properties = ['dipole'])
--------------------------------------------------------------------------

    Molecular point group: c1
  Charge       = 0
  Multiplicity = 1
  Basis Set: AUG-CC-PVTZ
    Blend: AUG-CC-PVTZ
  Basis Set: (AUG-CC-PVTZ AUX)
    Blend: AUG-CC-PVTZ-JKFIT

    Orbital Energies [Eh]
    ---------------------

    Doubly Occupied:

       1A    -20.540632     2A    -20.538967     3A    -15.636348
       4A    -15.626559     5A    -11.413101     6A    -11.378086
       7A    -11.326009     8A    -11.282402     9A    -11.261932
      10A    -11.238354    11A     -1.423768    12A     -1.388618
      13A     -1.302908    14A     -1.244937    15A     -1.110406
      16A     -0.993285    17A     -0.962779    18A     -0.914115
      19A     -0.851850    20A     -0.770167    21A     -0.736766
      22A     -0.690192    23A     -0.681922    24A     -0.652125
      25A     -0.637324    26A     -0.616319    27A     -0.612324
      28A     -0.588614    29A     -0.584555    30A     -0.553871
      31A     -0.548758    32A     -0.543457    33A     -0.483051
      34A     -0.474333    35A     -0.445890    36A     -0.431947
      37A     -0.347660

  @DF-RHF Final Energy:  -490.71113502475055

   => Energetics <=

    Nuclear Repulsion Energy =            530.2162086586059786
    One-Electron Energy =               -1720.1860301532140056
    Two-Electron Energy =                 699.2586864698573663
    Total Energy =                       -490.7111350247505470
  Basis Set: (AUG-CC-PVTZ AUX)
    Blend: AUG-CC-PVTZ-RI
    Molecular point group: c1

    Geometry (in Angstrom), charge = 0, multiplicity = 1:

       Center              X                  Y                   Z               Mass
    ------------   -----------------  -----------------  -----------------  -----------------
         O            2.315728178580    -1.316003340246     0.000059925415    15.994914619570
         O           -2.278280221420    -1.426324540246    -0.000129874585    15.994914619570
         N            1.200418278580     0.690620159754     0.000057025415    14.003074004430
         N            0.008943778580    -1.312219540246    -0.000032874585    14.003074004430
         C           -1.241074221420     0.728692459754    -0.000023874585    12.000000000000
         C           -0.038325221420     1.353713459754     0.000036125415    12.000000000000
         C            1.254184778580    -0.696907540246     0.000032125415    12.000000000000
         C           -1.260693221420    -0.731544540246    -0.000065874585    12.000000000000
         C            2.417941778580     1.458229459754     0.000125125415    12.000000000000
         C           -2.556876221420     1.439765459754    -0.000055874585    12.000000000000
         H            0.045267778580     2.437939459754     0.000070125415     1.007825032230
         H            0.039780778580    -2.329582540246    -0.000059874585     1.007825032230
         H            2.473615778580     2.084958459754     0.893516125415     1.007825032230
         H            2.473471778580     2.085314459754    -0.893076874585     1.007825032230
         H            3.240272778580     0.746269459754    -0.000050874585     1.007825032230
         H           -3.143950221420     1.158838459754    -0.878594874585     1.007825032230
         H           -2.416715221420     2.524477459754    -0.000021874585     1.007825032230
         H           -3.144016221420     1.158792459754     0.878424125415     1.007825032230

  Basis Set: AUG-CC-PVTZ
    Blend: AUG-CC-PVTZ
  Basis Set: (AUG-CC-PVTZ AUX)
    Blend: AUG-CC-PVTZ-JKFIT
	 Reference Energy          =    -490.7111350247505470 [Eh]
	 Singles Energy            =      -0.0000000000000000 [Eh]
	 Same-Spin Energy          =      -0.5022876351639035 [Eh]
	 Opposite-Spin Energy      =      -1.5414527129417652 [Eh]
	 Correlation Energy        =      -2.0437403481056688 [Eh]
	 Total Energy              =    -492.7548753728561906 [Eh]

	 ================> DF-SCS-MP2 Energies <==================
	-----------------------------------------------------------
	 SCS Same-Spin Scale       =       0.3333333333333333 [-]
	 SCS Opposite-Spin Scale   =       1.2000000000000000 [-]
	 SCS Same-Spin Energy      =      -0.1674292117213012 [Eh]
	 SCS Opposite-Spin Energy  =      -1.8497432555301181 [Eh]
	 SCS Correlation Energy    =      -2.0171724672514193 [Eh]
	 SCS Total Energy          =    -492.7283074920019885 [Eh]
	-----------------------------------------------------------

  Dipole Moment: [D]
     X:     0.8837      Y:     4.4464      Z:     0.0002     Total:     4.5333

*** Psi4 exiting successfully. Buy a developer a beer!
