                               Psi4 1.3.2 release

  ==> Input File <==

--------------------------------------------------------------------------
#psi4
#
memory 32 gb

molecule  {
0 1
  O        2.3111590    -1.3984000     0.0000580
  O       -2.2718830    -1.4902890    -0.0001310
  N        1.1826080     0.6255060     0.0000550
  N        0.0153410    -1.3761840    -0.0000340
  C       -1.2346770     0.6647280    -0.0000250
  C       -0.0319280     1.2897490     0.0000350
  C        1.2383494    -0.7177885     0.0000313
  C       -1.2542960    -0.7955090    -0.0000670
  C        2.4243390     1.3942650     0.0001240
  C       -2.5504790     1.3758010    -0.0000570
  H        0.0516650     2.3739750     0.0000690
  H        0.0106538    -2.3940034    -0.0000624
  H        2.4800130     2.0209940     0.8935150
  H        2.4798690     2.0213500    -0.8930780
  H        3.2466700     0.6823050    -0.0000520
  H       -3.1375530     1.0948740    -0.8785960
  H       -2.4103180     2.4605130    -0.0000230
  H       -3.1376190     1.0948280     0.8784230
units angstrom
no_reorient  #important for SAPT in psi4, default
symmetry c1  #important for SAPT in psi4, default
}

set PROPERTIES_ORIGIN ["COM"]
properties('MP2/aug-cc-pvtz', properties = ['dipole'])
--------------------------------------------------------------------------

    Molecular point group: c1
  Charge       = 0
  Multiplicity = 1
  Basis Set: AUG-CC-PVTZ
    Blend: AUG-CC-PVTZ
  Basis Set: (AUG-CC-PVTZ AUX)
    Blend: AUG-CC-PVTZ-JKFIT

    Orbital Energies [Eh]
    ---------------------

    Doubly Occupied:

       1A    -20.540172     2A    -20.528263     3A    -15.645105
       4A    -15.626169     5A    -11.411856     6A    -11.376587
       7A    -11.327659     8A    -11.289484     9A    -11.265019
      10A    -11.240050    11A     -1.415240    12A     -1.382777
      13A     -1.303249    14A     -1.243654    15A     -1.112880
      16A     -1.000282    17A     -0.972220    18A     -0.916527
      19A     -0.853534    20A     -0.777846    21A     -0.737139
      22A     -0.693291    23A     -0.687109    24A     -0.653147
      25A     -0.621934    26A     -0.617085    27A     -0.610455
      28A     -0.593430    29A     -0.583182    30A     -0.558147
      31A     -0.550517    32A     -0.541669    33A     -0.485550
      34A     -0.467189    35A     -0.441358    36A     -0.426535
      37A     -0.350791

  @DF-RHF Final Energy:  -490.70633831414443

   => Energetics <=

    Nuclear Repulsion Energy =            530.7336941790402989
    One-Electron Energy =               -1721.1858633079157244
    Two-Electron Energy =                 699.7458308147311072
    Total Energy =                       -490.7063383141444319
  Basis Set: (AUG-CC-PVTZ AUX)
    Blend: AUG-CC-PVTZ-RI
    Molecular point group: c1

    Geometry (in Angstrom), charge = 0, multiplicity = 1:

       Center              X                  Y                   Z               Mass
    ------------   -----------------  -----------------  -----------------  -----------------
         O            2.310594905249    -1.335903649039     0.000059291129    15.994914619570
         O           -2.272447094751    -1.427792649039    -0.000129708871    15.994914619570
         N            1.182043905249     0.688002350961     0.000056291129    14.003074004430
         N            0.014776905249    -1.313687649039    -0.000032708871    14.003074004430
         C           -1.235241094751     0.727224350961    -0.000023708871    12.000000000000
         C           -0.032492094751     1.352245350961     0.000036291129    12.000000000000
         C            1.237785305249    -0.655292149039     0.000032591129    12.000000000000
         C           -1.254860094751    -0.733012649039    -0.000065708871    12.000000000000
         C            2.423774905249     1.456761350961     0.000125291129    12.000000000000
         C           -2.551043094751     1.438297350961    -0.000055708871    12.000000000000
         H            0.051100905249     2.436471350961     0.000070291129     1.007825032230
         H            0.010089705249    -2.331507049039    -0.000061108871     1.007825032230
         H            2.479448905249     2.083490350961     0.893516291129     1.007825032230
         H            2.479304905249     2.083846350961    -0.893076708871     1.007825032230
         H            3.246105905249     0.744801350961    -0.000050708871     1.007825032230
         H           -3.138117094751     1.157370350961    -0.878594708871     1.007825032230
         H           -2.410882094751     2.523009350961    -0.000021708871     1.007825032230
         H           -3.138183094751     1.157324350961     0.878424291129     1.007825032230

  Basis Set: AUG-CC-PVTZ
    Blend: AUG-CC-PVTZ
  Basis Set: (AUG-CC-PVTZ AUX)
    Blend: AUG-CC-PVTZ-JKFIT
	 Reference Energy          =    -490.7063383141444319 [Eh]
	 Singles Energy            =      -0.0000000000000000 [Eh]
	 Same-Spin Energy          =      -0.5028782927184287 [Eh]
	 Opposite-Spin Energy      =      -1.5425024580422191 [Eh]
	 Correlation Energy        =      -2.0453807507606476 [Eh]
	 Total Energy              =    -492.7517190649051031 [Eh]

	 ================> DF-SCS-MP2 Energies <==================
	-----------------------------------------------------------
	 SCS Same-Spin Scale       =       0.3333333333333333 [-]
	 SCS Opposite-Spin Scale   =       1.2000000000000000 [-]
	 SCS Same-Spin Energy      =      -0.1676260975728096 [Eh]
	 SCS Opposite-Spin Energy  =      -1.8510029496506628 [Eh]
	 SCS Correlation Energy    =      -2.0186290472234725 [Eh]
	 SCS Total Energy          =    -492.7249673613679306 [Eh]
	-----------------------------------------------------------

  Dipole Moment: [D]
     X:     0.7132      Y:     4.8933      Z:     0.0002     Total:     4.9450

*** Psi4 exiting successfully. Buy a developer a beer!
