                               Psi4 1.3.2 release

  ==> Input File <==

--------------------------------------------------------------------------
#psi4
#
memory 32 gb

molecule  {
0 1
  O        2.3430849    -1.3425433     0.0000606
  O       -2.2718830    -1.4902890    -0.0001310
  N        1.1826080     0.6255060     0.0000550
  N       -0.0151554    -1.3101699    -0.0000336
  C       -1.2346770     0.6647280    -0.0000250
  C       -0.0319280     1.2897490     0.0000350
  C        1.2605820    -0.7608720     0.0000310
  C       -1.2542960    -0.7955090    -0.0000670
  C        2.4243390     1.3942650     0.0001240
  C       -2.5504790     1.3758010    -0.0000570
  H        0.0516650     2.3739750     0.0000690
  H        0.0461780    -2.3935470    -0.0000610
  H        2.4800130     2.0209940     0.8935150
  H        2.4798690     2.0213500    -0.8930780
  H        3.2466700     0.6823050    -0.0000520
  H       -3.1375530     1.0948740    -0.8785960
  H       -2.4103180     2.4605130    -0.0000230
  H       -3.1376190     1.0948280     0.8784230
units angstrom
no_reorient  #important for SAPT in psi4, default
symmetry c1  #important for SAPT in psi4, default
}

set PROPERTIES_ORIGIN ["COM"]
properties('MP2/aug-cc-pvtz', properties = ['dipole'])
--------------------------------------------------------------------------

    Molecular point group: c1
  Charge       = 0
  Multiplicity = 1
  Basis Set: AUG-CC-PVTZ
    Blend: AUG-CC-PVTZ
  Basis Set: (AUG-CC-PVTZ AUX)
    Blend: AUG-CC-PVTZ-JKFIT

    Orbital Energies [Eh]
    ---------------------

    Doubly Occupied:

       1A    -20.547299     2A    -20.534180     3A    -15.634814
       4A    -15.634772     5A    -11.419095     6A    -11.371994
       7A    -11.321365     8A    -11.283072     9A    -11.256347
      10A    -11.234823    11A     -1.429206    12A     -1.388990
      13A     -1.308891    14A     -1.250307    15A     -1.106806
      16A     -0.993222    17A     -0.967136    18A     -0.914089
      19A     -0.861283    20A     -0.769409    21A     -0.724978
      22A     -0.686976    23A     -0.684878    24A     -0.648771
      25A     -0.642498    26A     -0.619006    27A     -0.604510
      28A     -0.585679    29A     -0.582974    30A     -0.550631
      31A     -0.546199    32A     -0.544669    33A     -0.486320
      34A     -0.476729    35A     -0.445651    36A     -0.434574
      37A     -0.343838

  @DF-RHF Final Energy:  -490.69974348272086

   => Energetics <=

    Nuclear Repulsion Energy =            531.9195453662686077
    One-Electron Energy =               -1723.5666179063071013
    Two-Electron Energy =                 700.9473290573178019
    Total Energy =                       -490.6997434827208053
  Basis Set: (AUG-CC-PVTZ AUX)
    Blend: AUG-CC-PVTZ-RI
    Molecular point group: c1

    Geometry (in Angstrom), charge = 0, multiplicity = 1:

       Center              X                  Y                   Z               Mass
    ------------   -----------------  -----------------  -----------------  -----------------
         O            2.339763372727    -1.289337929067     0.000061569842    15.994914619570
         O           -2.275204527273    -1.437083629067    -0.000130030158    15.994914619570
         N            1.179286472727     0.678711370933     0.000055969842    14.003074004430
         N           -0.018476927273    -1.256964529067    -0.000032630158    14.003074004430
         C           -1.237998527273     0.717933370933    -0.000024030158    12.000000000000
         C           -0.035249527273     1.342954370933     0.000035969842    12.000000000000
         C            1.257260472727    -0.707666629067     0.000031969842    12.000000000000
         C           -1.257617527273    -0.742303629067    -0.000066030158    12.000000000000
         C            2.421017472727     1.447470370933     0.000124969842    12.000000000000
         C           -2.553800527273     1.429006370933    -0.000056030158    12.000000000000
         H            0.048343472727     2.427180370933     0.000069969842     1.007825032230
         H            0.042856472727    -2.340341629067    -0.000060030158     1.007825032230
         H            2.476691472727     2.074199370933     0.893515969842     1.007825032230
         H            2.476547472727     2.074555370933    -0.893077030158     1.007825032230
         H            3.243348472727     0.735510370933    -0.000051030158     1.007825032230
         H           -3.140874527273     1.148079370933    -0.878595030158     1.007825032230
         H           -2.413639527273     2.513718370933    -0.000022030158     1.007825032230
         H           -3.140940527273     1.148033370933     0.878423969842     1.007825032230

  Basis Set: AUG-CC-PVTZ
    Blend: AUG-CC-PVTZ
  Basis Set: (AUG-CC-PVTZ AUX)
    Blend: AUG-CC-PVTZ-JKFIT
	 Reference Energy          =    -490.6997434827208622 [Eh]
	 Singles Energy            =      -0.0000000000000000 [Eh]
	 Same-Spin Energy          =      -0.5039671731066904 [Eh]
	 Opposite-Spin Energy      =      -1.5435371053561187 [Eh]
	 Correlation Energy        =      -2.0475042784628092 [Eh]
	 Total Energy              =    -492.7472477611836439 [Eh]

	 ================> DF-SCS-MP2 Energies <==================
	-----------------------------------------------------------
	 SCS Same-Spin Scale       =       0.3333333333333333 [-]
	 SCS Opposite-Spin Scale   =       1.2000000000000000 [-]
	 SCS Same-Spin Energy      =      -0.1679890577022301 [Eh]
	 SCS Opposite-Spin Energy  =      -1.8522445264273424 [Eh]
	 SCS Correlation Energy    =      -2.0202335841295724 [Eh]
	 SCS Total Energy          =    -492.7199770668504470 [Eh]
	-----------------------------------------------------------

  Dipole Moment: [D]
     X:     1.2414      Y:     4.2733      Z:     0.0002     Total:     4.4499

*** Psi4 exiting successfully. Buy a developer a beer!
