                               Psi4 1.3.2 release

  ==> Input File <==

--------------------------------------------------------------------------
#psi4
#
memory 32 gb

molecule  {
0 1
  O        2.3111590    -1.3984000     0.0000580
  O       -2.2718830    -1.4902890    -0.0001310
  N        1.1826080     0.6255060     0.0000550
  N        0.0153410    -1.3761840    -0.0000340
  C       -1.2346770     0.6647280    -0.0000250
  C       -0.0319280     1.2897490     0.0000350
  C        1.2605820    -0.7608720     0.0000310
  C       -1.2542960    -0.7955090    -0.0000670
  C        2.4243390     1.3942650     0.0001240
  C       -2.5504790     1.3758010    -0.0000570
  H        0.0516650     2.3739750     0.0000690
  H        0.0461780    -2.3935470    -0.0000610
  H        2.4800130     2.0209940     0.8935150
  H        2.4798690     2.0213500    -0.8930780
  H        3.2466700     0.6823050    -0.0000520
  H       -3.1395086     1.1502076    -0.8931183
  H       -2.4404852     2.4629012    -0.0486343
  H       -3.1376190     1.0948280     0.8784230
units angstrom
no_reorient  #important for SAPT in psi4, default
symmetry c1  #important for SAPT in psi4, default
}

set PROPERTIES_ORIGIN ["COM"]
properties('MP2/aug-cc-pvtz', properties = ['dipole'])
--------------------------------------------------------------------------

    Molecular point group: c1
  Charge       = 0
  Multiplicity = 1
  Basis Set: AUG-CC-PVTZ
    Blend: AUG-CC-PVTZ
  Basis Set: (AUG-CC-PVTZ AUX)
    Blend: AUG-CC-PVTZ-JKFIT

    Orbital Energies [Eh]
    ---------------------

    Doubly Occupied:

       1A    -20.540662     2A    -20.538306     3A    -15.638386
       4A    -15.624650     5A    -11.413849     6A    -11.376243
       7A    -11.325359     8A    -11.286087     9A    -11.260131
      10A    -11.236922    11A     -1.424195    12A     -1.386832
      13A     -1.306942    14A     -1.242956    15A     -1.108753
      16A     -0.993162    17A     -0.963877    18A     -0.914487
      19A     -0.853157    20A     -0.770458    21A     -0.735700
      22A     -0.692341    23A     -0.682295    24A     -0.649586
      25A     -0.638014    26A     -0.616039    27A     -0.608449
      28A     -0.590647    29A     -0.585124    30A     -0.557201
      31A     -0.545159    32A     -0.539541    33A     -0.488279
      34A     -0.475423    35A     -0.444277    36A     -0.430565
      37A     -0.346359

  @DF-RHF Final Energy:  -490.71107157018241

   => Energetics <=

    Nuclear Repulsion Energy =            530.2535552213811343
    One-Electron Energy =               -1720.2684300423557033
    Two-Electron Energy =                 699.3038032507920434
    Total Energy =                       -490.7110715701824120
  Basis Set: (AUG-CC-PVTZ AUX)
    Blend: AUG-CC-PVTZ-RI
    Molecular point group: c1

    Geometry (in Angstrom), charge = 0, multiplicity = 1:

       Center              X                  Y                   Z               Mass
    ------------   -----------------  -----------------  -----------------  -----------------
         O            2.308665575243    -1.332630957270     0.000513599695    15.994914619570
         O           -2.274376424757    -1.424519957270     0.000324599695    15.994914619570
         N            1.180114575243     0.691275042730     0.000510599695    14.003074004430
         N            0.012847575243    -1.310414957270     0.000421599695    14.003074004430
         C           -1.237170424757     0.730497042730     0.000430599695    12.000000000000
         C           -0.034421424757     1.355518042730     0.000490599695    12.000000000000
         C            1.258088575243    -0.695102957270     0.000486599695    12.000000000000
         C           -1.256789424757    -0.729739957270     0.000388599695    12.000000000000
         C            2.421845575243     1.460034042730     0.000579599695    12.000000000000
         C           -2.552972424757     1.441570042730     0.000398599695    12.000000000000
         H            0.049171575243     2.439744042730     0.000524599695     1.007825032230
         H            0.043684575243    -2.327777957270     0.000394599695     1.007825032230
         H            2.477519575243     2.086763042730     0.893970599695     1.007825032230
         H            2.477375575243     2.087119042730    -0.892622400305     1.007825032230
         H            3.244176575243     0.748074042730     0.000403599695     1.007825032230
         H           -3.142002024757     1.215976642730    -0.892662700305     1.007825032230
         H           -2.442978624757     2.528670242730    -0.048178700305     1.007825032230
         H           -3.140112424757     1.160597042730     0.878878599695     1.007825032230

  Basis Set: AUG-CC-PVTZ
    Blend: AUG-CC-PVTZ
  Basis Set: (AUG-CC-PVTZ AUX)
    Blend: AUG-CC-PVTZ-JKFIT
	 Reference Energy          =    -490.7110715701824120 [Eh]
	 Singles Energy            =      -0.0000000000000000 [Eh]
	 Same-Spin Energy          =      -0.5023657926133069 [Eh]
	 Opposite-Spin Energy      =      -1.5414401499737109 [Eh]
	 Correlation Energy        =      -2.0438059425870181 [Eh]
	 Total Energy              =    -492.7548775127694398 [Eh]

	 ================> DF-SCS-MP2 Energies <==================
	-----------------------------------------------------------
	 SCS Same-Spin Scale       =       0.3333333333333333 [-]
	 SCS Opposite-Spin Scale   =       1.2000000000000000 [-]
	 SCS Same-Spin Energy      =      -0.1674552642044356 [Eh]
	 SCS Opposite-Spin Energy  =      -1.8497281799684531 [Eh]
	 SCS Correlation Energy    =      -2.0171834441728889 [Eh]
	 SCS Total Energy          =    -492.7282550143552839 [Eh]
	-----------------------------------------------------------

  Dipole Moment: [D]
     X:     1.0549      Y:     4.5434      Z:    -0.0283     Total:     4.6643

*** Psi4 exiting successfully. Buy a developer a beer!
