                               Psi4 1.3.2 release

  ==> Input File <==

--------------------------------------------------------------------------
#psi4
#
memory 32 gb

molecule  {
0 1
  O        2.3111590    -1.3984000     0.0000580
  O       -2.2779073    -1.4813825    -0.0001310
  N        1.1826080     0.6255060     0.0000550
  N        0.0203599    -1.3650824    -0.0000334
  C       -1.2346770     0.6647280    -0.0000250
  C       -0.0319280     1.2897490     0.0000350
  C        1.2605820    -0.7608720     0.0000310
  C       -1.2542960    -0.7955090    -0.0000670
  C        2.4243390     1.3942650     0.0001240
  C       -2.5504790     1.3758010    -0.0000570
  H        0.0516650     2.3739750     0.0000690
  H        0.0461780    -2.3935470    -0.0000610
  H        2.4800130     2.0209940     0.8935150
  H        2.4798690     2.0213500    -0.8930780
  H        3.2466700     0.6823050    -0.0000520
  H       -3.1375530     1.0948740    -0.8785960
  H       -2.4103180     2.4605130    -0.0000230
  H       -3.1376190     1.0948280     0.8784230
units angstrom
no_reorient  #important for SAPT in psi4, default
symmetry c1  #important for SAPT in psi4, default
}

set PROPERTIES_ORIGIN ["COM"]
properties('MP2/aug-cc-pvtz', properties = ['dipole'])
--------------------------------------------------------------------------

    Molecular point group: c1
  Charge       = 0
  Multiplicity = 1
  Basis Set: AUG-CC-PVTZ
    Blend: AUG-CC-PVTZ
  Basis Set: (AUG-CC-PVTZ AUX)
    Blend: AUG-CC-PVTZ-JKFIT

    Orbital Energies [Eh]
    ---------------------

    Doubly Occupied:

       1A    -20.539936     2A    -20.539713     3A    -15.637570
       4A    -15.626154     5A    -11.413070     6A    -11.376951
       7A    -11.324454     8A    -11.285559     9A    -11.258967
      10A    -11.236730    11A     -1.424729    12A     -1.387337
      13A     -1.306990    14A     -1.244402    15A     -1.108665
      16A     -0.992893    17A     -0.964192    18A     -0.914093
      19A     -0.854526    20A     -0.770640    21A     -0.732924
      22A     -0.691350    23A     -0.682655    24A     -0.649486
      25A     -0.637968    26A     -0.616037    27A     -0.609657
      28A     -0.588432    29A     -0.584089    30A     -0.554609
      31A     -0.547617    32A     -0.543132    33A     -0.487751
      34A     -0.475071    35A     -0.445083    36A     -0.431601
      37A     -0.345553

  @DF-RHF Final Energy:  -490.71135147865124

   => Energetics <=

    Nuclear Repulsion Energy =            530.6203186068826199
    One-Electron Energy =               -1721.0021678258576685
    Two-Electron Energy =                 699.6704977403237535
    Total Energy =                       -490.7113514786512951
  Basis Set: (AUG-CC-PVTZ AUX)
    Blend: AUG-CC-PVTZ-RI
    Molecular point group: c1

    Geometry (in Angstrom), charge = 0, multiplicity = 1:

       Center              X                  Y                   Z               Mass
    ------------   -----------------  -----------------  -----------------  -----------------
         O            2.308620622438    -1.334342682198     0.000059246770    15.994914619570
         O           -2.280445677562    -1.417325182198    -0.000129753230    15.994914619570
         N            1.180069622438     0.689563317802     0.000056246770    14.003074004430
         N            0.017821522438    -1.301025082198    -0.000032153230    14.003074004430
         C           -1.237215377562     0.728785317802    -0.000023753230    12.000000000000
         C           -0.034466377562     1.353806317802     0.000036246770    12.000000000000
         C            1.258043622438    -0.696814682198     0.000032246770    12.000000000000
         C           -1.256834377562    -0.731451682198    -0.000065753230    12.000000000000
         C            2.421800622438     1.458322317802     0.000125246770    12.000000000000
         C           -2.553017377562     1.439858317802    -0.000055753230    12.000000000000
         H            0.049126622438     2.438032317802     0.000070246770     1.007825032230
         H            0.043639622438    -2.329489682198    -0.000059753230     1.007825032230
         H            2.477474622438     2.085051317802     0.893516246770     1.007825032230
         H            2.477330622438     2.085407317802    -0.893076753230     1.007825032230
         H            3.244131622438     0.746362317802    -0.000050753230     1.007825032230
         H           -3.140091377562     1.158931317802    -0.878594753230     1.007825032230
         H           -2.412856377562     2.524570317802    -0.000021753230     1.007825032230
         H           -3.140157377562     1.158885317802     0.878424246770     1.007825032230

  Basis Set: AUG-CC-PVTZ
    Blend: AUG-CC-PVTZ
  Basis Set: (AUG-CC-PVTZ AUX)
    Blend: AUG-CC-PVTZ-JKFIT
	 Reference Energy          =    -490.7113514786512383 [Eh]
	 Singles Energy            =      -0.0000000000000000 [Eh]
	 Same-Spin Energy          =      -0.5025899473863923 [Eh]
	 Opposite-Spin Energy      =      -1.5416864262758896 [Eh]
	 Correlation Energy        =      -2.0442763736622820 [Eh]
	 Total Energy              =    -492.7556278523135234 [Eh]

	 ================> DF-SCS-MP2 Energies <==================
	-----------------------------------------------------------
	 SCS Same-Spin Scale       =       0.3333333333333333 [-]
	 SCS Opposite-Spin Scale   =       1.2000000000000000 [-]
	 SCS Same-Spin Energy      =      -0.1675299824621307 [Eh]
	 SCS Opposite-Spin Energy  =      -1.8500237115310674 [Eh]
	 SCS Correlation Energy    =      -2.0175536939931979 [Eh]
	 SCS Total Energy          =    -492.7289051726444313 [Eh]
	-----------------------------------------------------------

  Dipole Moment: [D]
     X:     1.0260      Y:     4.4773      Z:     0.0002     Total:     4.5933

*** Psi4 exiting successfully. Buy a developer a beer!
