                               Psi4 1.3.2 release

  ==> Input File <==

--------------------------------------------------------------------------
#psi4
#
memory 32 gb

molecule  {
0 1
  O        2.3111590    -1.3984000     0.0000580
  O       -2.2718830    -1.4902890    -0.0001310
  N        1.1826080     0.6255060     0.0000550
  N        0.0153410    -1.3761840    -0.0000340
  C       -1.2346770     0.6647280    -0.0000250
  C       -0.0544736     1.3313436     0.0000352
  C        1.2605820    -0.7608720     0.0000310
  C       -1.2542960    -0.7955090    -0.0000670
  C        2.4243390     1.3942650     0.0001240
  C       -2.5248614     1.4212887    -0.0000549
  H        0.0516650     2.3739750     0.0000690
  H        0.0461780    -2.3935470    -0.0000610
  H        2.4800130     2.0209940     0.8935150
  H        2.4798690     2.0213500    -0.8930780
  H        3.2466700     0.6823050    -0.0000520
  H       -3.1375530     1.0948740    -0.8785960
  H       -2.4103180     2.4605130    -0.0000230
  H       -3.1376190     1.0948280     0.8784230
units angstrom
no_reorient  #important for SAPT in psi4, default
symmetry c1  #important for SAPT in psi4, default
}

set PROPERTIES_ORIGIN ["COM"]
properties('MP2/aug-cc-pvtz', properties = ['dipole'])
--------------------------------------------------------------------------

    Molecular point group: c1
  Charge       = 0
  Multiplicity = 1
  Basis Set: AUG-CC-PVTZ
    Blend: AUG-CC-PVTZ
  Basis Set: (AUG-CC-PVTZ AUX)
    Blend: AUG-CC-PVTZ-JKFIT

    Orbital Energies [Eh]
    ---------------------

    Doubly Occupied:

       1A    -20.542222     2A    -20.538468     3A    -15.633965
       4A    -15.624967     5A    -11.412063     6A    -11.380751
       7A    -11.323733     8A    -11.282554     9A    -11.264247
      10A    -11.238473    11A     -1.421581    12A     -1.389031
      13A     -1.297140    14A     -1.240745    15A     -1.111885
      16A     -0.987823    17A     -0.963110    18A     -0.917872
      19A     -0.849397    20A     -0.767485    21A     -0.736752
      22A     -0.700060    23A     -0.677424    24A     -0.646842
      25A     -0.639587    26A     -0.616397    27A     -0.613904
      28A     -0.588666    29A     -0.576180    30A     -0.567873
      31A     -0.541993    32A     -0.540808    33A     -0.479725
      34A     -0.475999    35A     -0.447016    36A     -0.430946
      37A     -0.347139

  @DF-RHF Final Energy:  -490.70523297434215

   => Energetics <=

    Nuclear Repulsion Energy =            529.4637040878752714
    One-Electron Energy =               -1718.7082338751040425
    Two-Electron Energy =                 698.5392968128865050
    Total Energy =                       -490.7052329743421524
  Basis Set: (AUG-CC-PVTZ AUX)
    Blend: AUG-CC-PVTZ-RI
    Molecular point group: c1

    Geometry (in Angstrom), charge = 0, multiplicity = 1:

       Center              X                  Y                   Z               Mass
    ------------   -----------------  -----------------  -----------------  -----------------
         O            2.308171223786    -1.339676681585     0.000059109698    15.994914619570
         O           -2.274870776214    -1.431565681585    -0.000129890302    15.994914619570
         N            1.179620223786     0.684229318415     0.000056109698    14.003074004430
         N            0.012353223786    -1.317460681585    -0.000032890302    14.003074004430
         C           -1.237664776214     0.723451318415    -0.000023890302    12.000000000000
         C           -0.057461376214     1.390066918415     0.000036309698    12.000000000000
         C            1.257594223786    -0.702148681585     0.000032109698    12.000000000000
         C           -1.257283776214    -0.736785681585    -0.000065890302    12.000000000000
         C            2.421351223786     1.452988318415     0.000125109698    12.000000000000
         C           -2.527849176214     1.480012018415    -0.000053790302    12.000000000000
         H            0.048677223786     2.432698318415     0.000070109698     1.007825032230
         H            0.043190223786    -2.334823681585    -0.000059890302     1.007825032230
         H            2.477025223786     2.079717318415     0.893516109698     1.007825032230
         H            2.476881223786     2.080073318415    -0.893076890302     1.007825032230
         H            3.243682223786     0.741028318415    -0.000050890302     1.007825032230
         H           -3.140540776214     1.153597318415    -0.878594890302     1.007825032230
         H           -2.413305776214     2.519236318415    -0.000021890302     1.007825032230
         H           -3.140606776214     1.153551318415     0.878424109698     1.007825032230

  Basis Set: AUG-CC-PVTZ
    Blend: AUG-CC-PVTZ
  Basis Set: (AUG-CC-PVTZ AUX)
    Blend: AUG-CC-PVTZ-JKFIT
	 Reference Energy          =    -490.7052329743421524 [Eh]
	 Singles Energy            =      -0.0000000000000000 [Eh]
	 Same-Spin Energy          =      -0.5022721297838775 [Eh]
	 Opposite-Spin Energy      =      -1.5420613825133884 [Eh]
	 Correlation Energy        =      -2.0443335122972659 [Eh]
	 Total Energy              =    -492.7495664866394236 [Eh]

	 ================> DF-SCS-MP2 Energies <==================
	-----------------------------------------------------------
	 SCS Same-Spin Scale       =       0.3333333333333333 [-]
	 SCS Opposite-Spin Scale   =       1.2000000000000000 [-]
	 SCS Same-Spin Energy      =      -0.1674240432612925 [Eh]
	 SCS Opposite-Spin Energy  =      -1.8504736590160660 [Eh]
	 SCS Correlation Energy    =      -2.0178977022773585 [Eh]
	 SCS Total Energy          =    -492.7231306766195189 [Eh]
	-----------------------------------------------------------

  Dipole Moment: [D]
     X:     0.8354      Y:     4.5563      Z:     0.0002     Total:     4.6323

*** Psi4 exiting successfully. Buy a developer a beer!
