                               Psi4 1.3.2 release

  ==> Input File <==

--------------------------------------------------------------------------
#psi4
#
memory 32 gb

molecule  {
0 1
  O        2.3111590    -1.3984000     0.0000580
  O       -2.2718830    -1.4902890    -0.0001310
  N        1.1826080     0.6255060     0.0000550
  N        0.0153410    -1.3761840    -0.0000340
  C       -1.2346770     0.6647280    -0.0000250
  C       -0.0319280     1.2897490     0.0000350
  C        1.2605820    -0.7608720     0.0000310
  C       -1.2542960    -0.7955090    -0.0000670
  C        2.4243390     1.3942650     0.0001240
  C       -2.5504790     1.3758010    -0.0000570
  H        0.0516650     2.3739750     0.0000690
  H        0.0461780    -2.3935470    -0.0000610
  H        2.4800130     2.0209940     0.8935150
  H        2.4720359     2.0259967    -0.8902518
  H        3.2435572     0.6787709     0.0081893
  H       -3.1375530     1.0948740    -0.8785960
  H       -2.4103180     2.4605130    -0.0000230
  H       -3.1376190     1.0948280     0.8784230
units angstrom
no_reorient  #important for SAPT in psi4, default
symmetry c1  #important for SAPT in psi4, default
}

set PROPERTIES_ORIGIN ["COM"]
properties('MP2/aug-cc-pvtz', properties = ['dipole'])
--------------------------------------------------------------------------

    Molecular point group: c1
  Charge       = 0
  Multiplicity = 1
  Basis Set: AUG-CC-PVTZ
    Blend: AUG-CC-PVTZ
  Basis Set: (AUG-CC-PVTZ AUX)
    Blend: AUG-CC-PVTZ-JKFIT

    Orbital Energies [Eh]
    ---------------------

    Doubly Occupied:

       1A    -20.540553     2A    -20.538560     3A    -15.638067
       4A    -15.624619     5A    -11.413723     6A    -11.376227
       7A    -11.324931     8A    -11.285997     9A    -11.259659
      10A    -11.237138    11A     -1.424133    12A     -1.387026
      13A     -1.306795    14A     -1.242934    15A     -1.109032
      16A     -0.993171    17A     -0.963867    18A     -0.914280
      19A     -0.852643    20A     -0.770789    21A     -0.734854
      22A     -0.692219    23A     -0.682103    24A     -0.649320
      25A     -0.637843    26A     -0.615540    27A     -0.609725
      28A     -0.589555    29A     -0.583981    30A     -0.555515
      31A     -0.548068    32A     -0.543144    33A     -0.487860
      34A     -0.475344    35A     -0.444354    36A     -0.430617
      37A     -0.345878

  @DF-RHF Final Energy:  -490.71194767476288

   => Energetics <=

    Nuclear Repulsion Energy =            530.3984457295858874
    One-Electron Energy =               -1720.5606606848507454
    Two-Electron Energy =                 699.4502672805020893
    Total Energy =                       -490.7119476747628823
  Basis Set: (AUG-CC-PVTZ AUX)
    Blend: AUG-CC-PVTZ-RI
    Molecular point group: c1

    Geometry (in Angstrom), charge = 0, multiplicity = 1:

       Center              X                  Y                   Z               Mass
    ------------   -----------------  -----------------  -----------------  -----------------
         O            2.308513191789    -1.332223612216    -0.000020332088    15.994914619570
         O           -2.274528808211    -1.424112612216    -0.000209332088    15.994914619570
         N            1.179962191789     0.691682387784    -0.000023332088    14.003074004430
         N            0.012695191789    -1.310007612216    -0.000112332088    14.003074004430
         C           -1.237322808211     0.730904387784    -0.000103332088    12.000000000000
         C           -0.034573808211     1.355925387784    -0.000043332088    12.000000000000
         C            1.257936191789    -0.694695612216    -0.000047332088    12.000000000000
         C           -1.256941808211    -0.729332612216    -0.000145332088    12.000000000000
         C            2.421693191789     1.460441387784     0.000045667912    12.000000000000
         C           -2.553124808211     1.441977387784    -0.000135332088    12.000000000000
         H            0.049019191789     2.440151387784    -0.000009332088     1.007825032230
         H            0.043532191789    -2.327370612216    -0.000139332088     1.007825032230
         H            2.477367191789     2.087170387784     0.893436667912     1.007825032230
         H            2.469390091789     2.092173087784    -0.890330132088     1.007825032230
         H            3.240911391789     0.744947287784     0.008110967912     1.007825032230
         H           -3.140198808211     1.161050387784    -0.878674332088     1.007825032230
         H           -2.412963808211     2.526689387784    -0.000101332088     1.007825032230
         H           -3.140264808211     1.161004387784     0.878344667912     1.007825032230

  Basis Set: AUG-CC-PVTZ
    Blend: AUG-CC-PVTZ
  Basis Set: (AUG-CC-PVTZ AUX)
    Blend: AUG-CC-PVTZ-JKFIT
	 Reference Energy          =    -490.7119476747628823 [Eh]
	 Singles Energy            =      -0.0000000000000000 [Eh]
	 Same-Spin Energy          =      -0.5023987743451677 [Eh]
	 Opposite-Spin Energy      =      -1.5414766377152747 [Eh]
	 Correlation Energy        =      -2.0438754120604425 [Eh]
	 Total Energy              =    -492.7558230868233409 [Eh]

	 ================> DF-SCS-MP2 Energies <==================
	-----------------------------------------------------------
	 SCS Same-Spin Scale       =       0.3333333333333333 [-]
	 SCS Opposite-Spin Scale   =       1.2000000000000000 [-]
	 SCS Same-Spin Energy      =      -0.1674662581150559 [Eh]
	 SCS Opposite-Spin Energy  =      -1.8497719652583295 [Eh]
	 SCS Correlation Energy    =      -2.0172382233733854 [Eh]
	 SCS Total Energy          =    -492.7291858981362793 [Eh]
	-----------------------------------------------------------

  Dipole Moment: [D]
     X:     1.0435      Y:     4.5233      Z:     0.0056     Total:     4.6421

*** Psi4 exiting successfully. Buy a developer a beer!
