                               Psi4 1.3.2 release

  ==> Input File <==

--------------------------------------------------------------------------
#psi4
#
memory 32 gb

molecule  {
0 1
  O        2.3111590    -1.3984000     0.0000580
  O       -2.2718830    -1.4902890    -0.0001310
  N        1.1826080     0.6255060     0.0000550
  N        0.0153410    -1.3761840    -0.0000340
  C       -1.2346770     0.6647280    -0.0000250
  C       -0.0319280     1.2897490     0.0000350
  C        1.2605820    -0.7608720     0.0000310
  C       -1.3052456    -0.7939348    -0.0000690
  C        2.4243390     1.3942650     0.0001240
  C       -2.5744935     1.3294470    -0.0000593
  H        0.0516650     2.3739750     0.0000690
  H        0.0461780    -2.3935470    -0.0000610
  H        2.4800130     2.0209940     0.8935150
  H        2.4798690     2.0213500    -0.8930780
  H        3.2466700     0.6823050    -0.0000520
  H       -3.1375530     1.0948740    -0.8785960
  H       -2.4103180     2.4605130    -0.0000230
  H       -3.1376190     1.0948280     0.8784230
units angstrom
no_reorient  #important for SAPT in psi4, default
symmetry c1  #important for SAPT in psi4, default
}

set PROPERTIES_ORIGIN ["COM"]
properties('MP2/aug-cc-pvtz', properties = ['dipole'])
--------------------------------------------------------------------------

    Molecular point group: c1
  Charge       = 0
  Multiplicity = 1
  Basis Set: AUG-CC-PVTZ
    Blend: AUG-CC-PVTZ
  Basis Set: (AUG-CC-PVTZ AUX)
    Blend: AUG-CC-PVTZ-JKFIT

    Orbital Energies [Eh]
    ---------------------

    Doubly Occupied:

       1A    -20.548800     2A    -20.535500     3A    -15.635497
       4A    -15.614817     5A    -11.408540     6A    -11.376261
       7A    -11.326561     8A    -11.284051     9A    -11.258396
      10A    -11.237512    11A     -1.426932    12A     -1.407277
      13A     -1.303663    14A     -1.230846    15A     -1.108489
      16A     -0.991902    17A     -0.961812    18A     -0.909086
      19A     -0.844434    20A     -0.768808    21A     -0.726863
      22A     -0.693753    23A     -0.678663    24A     -0.655329
      25A     -0.636949    26A     -0.618664    27A     -0.614457
      28A     -0.591036    29A     -0.588096    30A     -0.556489
      31A     -0.553518    32A     -0.534756    33A     -0.487010
      34A     -0.475149    35A     -0.443947    36A     -0.429887
      37A     -0.347043

  @DF-RHF Final Energy:  -490.70783265018304

   => Energetics <=

    Nuclear Repulsion Energy =            530.2674030649868655
    One-Electron Energy =               -1720.3288853698727507
    Two-Electron Energy =                 699.3536496547028491
    Total Energy =                       -490.7078326501830361
  Basis Set: (AUG-CC-PVTZ AUX)
    Blend: AUG-CC-PVTZ-RI
    Molecular point group: c1

    Geometry (in Angstrom), charge = 0, multiplicity = 1:

       Center              X                  Y                   Z               Mass
    ------------   -----------------  -----------------  -----------------  -----------------
         O            2.314857234858    -1.328378942966     0.000059675175    15.994914619570
         O           -2.268184765142    -1.420267942966    -0.000129324825    15.994914619570
         N            1.186306234858     0.695527057034     0.000056675175    14.003074004430
         N            0.019039234858    -1.306162942966    -0.000032324825    14.003074004430
         C           -1.230978765142     0.734749057034    -0.000023324825    12.000000000000
         C           -0.028229765142     1.359770057034     0.000036675175    12.000000000000
         C            1.264280234858    -0.690850942966     0.000032675175    12.000000000000
         C           -1.301547365142    -0.723913742966    -0.000067324825    12.000000000000
         C            2.428037234858     1.464286057034     0.000125675175    12.000000000000
         C           -2.570795265142     1.399468057034    -0.000057624825    12.000000000000
         H            0.055363234858     2.443996057034     0.000070675175     1.007825032230
         H            0.049876234858    -2.323525942966    -0.000059324825     1.007825032230
         H            2.483711234858     2.091015057034     0.893516675175     1.007825032230
         H            2.483567234858     2.091371057034    -0.893076324825     1.007825032230
         H            3.250368234858     0.752326057034    -0.000050324825     1.007825032230
         H           -3.133854765142     1.164895057034    -0.878594324825     1.007825032230
         H           -2.406619765142     2.530534057034    -0.000021324825     1.007825032230
         H           -3.133920765142     1.164849057034     0.878424675175     1.007825032230

  Basis Set: AUG-CC-PVTZ
    Blend: AUG-CC-PVTZ
  Basis Set: (AUG-CC-PVTZ AUX)
    Blend: AUG-CC-PVTZ-JKFIT
	 Reference Energy          =    -490.7078326501830361 [Eh]
	 Singles Energy            =      -0.0000000000000000 [Eh]
	 Same-Spin Energy          =      -0.5016900121924135 [Eh]
	 Opposite-Spin Energy      =      -1.5403394636960954 [Eh]
	 Correlation Energy        =      -2.0420294758885089 [Eh]
	 Total Energy              =    -492.7498621260715481 [Eh]

	 ================> DF-SCS-MP2 Energies <==================
	-----------------------------------------------------------
	 SCS Same-Spin Scale       =       0.3333333333333333 [-]
	 SCS Opposite-Spin Scale   =       1.2000000000000000 [-]
	 SCS Same-Spin Energy      =      -0.1672300040641378 [Eh]
	 SCS Opposite-Spin Energy  =      -1.8484073564353145 [Eh]
	 SCS Correlation Energy    =      -2.0156373604994524 [Eh]
	 SCS Total Energy          =    -492.7234700106824903 [Eh]
	-----------------------------------------------------------

  Dipole Moment: [D]
     X:     0.6309      Y:     4.4356      Z:     0.0001     Total:     4.4802

*** Psi4 exiting successfully. Buy a developer a beer!
