                               Psi4 1.3.2 release

  ==> Input File <==

--------------------------------------------------------------------------
#psi4
#
memory 32 gb

molecule  {
0 1
  O        2.3111590    -1.3984000     0.0000580
  O       -2.2718830    -1.4902890    -0.0001310
  N        1.1826080     0.6255060     0.0000550
  N        0.0153410    -1.3761840    -0.0000340
  C       -1.2346770     0.6647280    -0.0000250
  C       -0.0319280     1.2897490     0.0000350
  C        1.2605820    -0.7608720     0.0000310
  C       -1.2542960    -0.7955090    -0.0000670
  C        2.4243390     1.3942650     0.0001240
  C       -2.4625036     1.3282582    -0.0000549
  H        0.0516650     2.3739750     0.0000690
  H        0.0461780    -2.3935470    -0.0000610
  H        2.4800130     2.0209940     0.8935150
  H        2.4798690     2.0213500    -0.8930780
  H        3.2466700     0.6823050    -0.0000520
  H       -3.1375530     1.0948740    -0.8785960
  H       -2.4103180     2.4605130    -0.0000230
  H       -3.1376190     1.0948280     0.8784230
units angstrom
no_reorient  #important for SAPT in psi4, default
symmetry c1  #important for SAPT in psi4, default
}

set PROPERTIES_ORIGIN ["COM"]
properties('MP2/aug-cc-pvtz', properties = ['dipole'])
--------------------------------------------------------------------------

    Molecular point group: c1
  Charge       = 0
  Multiplicity = 1
  Basis Set: AUG-CC-PVTZ
    Blend: AUG-CC-PVTZ
  Basis Set: (AUG-CC-PVTZ AUX)
    Blend: AUG-CC-PVTZ-JKFIT

    Orbital Energies [Eh]
    ---------------------

    Doubly Occupied:

       1A    -20.541006     2A    -20.539713     3A    -15.638895
       4A    -15.625208     5A    -11.414217     6A    -11.376797
       7A    -11.325561     8A    -11.286395     9A    -11.255620
      10A    -11.239951    11A     -1.424728    12A     -1.388100
      13A     -1.307539    14A     -1.243553    15A     -1.123183
      16A     -0.995680    17A     -0.964802    18A     -0.913547
      19A     -0.850612    20A     -0.773762    21A     -0.737735
      22A     -0.692878    23A     -0.683017    24A     -0.651455
      25A     -0.639529    26A     -0.616294    27A     -0.611717
      28A     -0.602618    29A     -0.578432    30A     -0.569806
      31A     -0.539342    32A     -0.525574    33A     -0.484951
      34A     -0.476017    35A     -0.445390    36A     -0.430901
      37A     -0.342648

  @DF-RHF Final Energy:  -490.69904070122112

   => Energetics <=

    Nuclear Repulsion Energy =            532.3247957574732254
    One-Electron Energy =               -1724.3333253525213422
    Two-Electron Energy =                 701.3094888938269378
    Total Energy =                       -490.6990407012210653
  Basis Set: (AUG-CC-PVTZ AUX)
    Blend: AUG-CC-PVTZ-RI
    Molecular point group: c1

    Geometry (in Angstrom), charge = 0, multiplicity = 1:

       Center              X                  Y                   Z               Mass
    ------------   -----------------  -----------------  -----------------  -----------------
         O            2.300896833183    -1.328142213445     0.000059126833    15.994914619570
         O           -2.282145166817    -1.420031213445    -0.000129873167    15.994914619570
         N            1.172345833183     0.695763786555     0.000056126833    14.003074004430
         N            0.005078833183    -1.305926213445    -0.000032873167    14.003074004430
         C           -1.244939166817     0.734985786555    -0.000023873167    12.000000000000
         C           -0.042190166817     1.360006786555     0.000036126833    12.000000000000
         C            1.250319833183    -0.690614213445     0.000032126833    12.000000000000
         C           -1.264558166817    -0.725251213445    -0.000065873167    12.000000000000
         C            2.414076833183     1.464522786555     0.000125126833    12.000000000000
         C           -2.472765766817     1.398515986555    -0.000053773167    12.000000000000
         H            0.041402833183     2.444232786555     0.000070126833     1.007825032230
         H            0.035915833183    -2.323289213445    -0.000059873167     1.007825032230
         H            2.469750833183     2.091251786555     0.893516126833     1.007825032230
         H            2.469606833183     2.091607786555    -0.893076873167     1.007825032230
         H            3.236407833183     0.752562786555    -0.000050873167     1.007825032230
         H           -3.147815166817     1.165131786555    -0.878594873167     1.007825032230
         H           -2.420580166817     2.530770786555    -0.000021873167     1.007825032230
         H           -3.147881166817     1.165085786555     0.878424126833     1.007825032230

  Basis Set: AUG-CC-PVTZ
    Blend: AUG-CC-PVTZ
  Basis Set: (AUG-CC-PVTZ AUX)
    Blend: AUG-CC-PVTZ-JKFIT
	 Reference Energy          =    -490.6990407012211222 [Eh]
	 Singles Energy            =      -0.0000000000000000 [Eh]
	 Same-Spin Energy          =      -0.5038210244945586 [Eh]
	 Opposite-Spin Energy      =      -1.5431516445249347 [Eh]
	 Correlation Energy        =      -2.0469726690194934 [Eh]
	 Total Energy              =    -492.7460133702406324 [Eh]

	 ================> DF-SCS-MP2 Energies <==================
	-----------------------------------------------------------
	 SCS Same-Spin Scale       =       0.3333333333333333 [-]
	 SCS Opposite-Spin Scale   =       1.2000000000000000 [-]
	 SCS Same-Spin Energy      =      -0.1679403414981862 [Eh]
	 SCS Opposite-Spin Energy  =      -1.8517819734299215 [Eh]
	 SCS Correlation Energy    =      -2.0197223149281078 [Eh]
	 SCS Total Energy          =    -492.7187630161492393 [Eh]
	-----------------------------------------------------------

  Dipole Moment: [D]
     X:     1.0574      Y:     4.4915      Z:     0.0002     Total:     4.6143

*** Psi4 exiting successfully. Buy a developer a beer!
