                               Psi4 1.4a3.dev225

  ==> Input File <==

--------------------------------------------------------------------------
#psi4
#
memory 32 gb

molecule  {
0 1
  O        2.3212770    -1.3580180     0.0000020
  O       -2.2717460    -1.4962290     0.0000010
  N        1.1724310     0.6334210    -0.0000020
  N        0.0162060    -1.3769820    -0.0000020
  C       -1.2398930     0.6613320     0.0000000
  C       -0.0398910     1.2934770    -0.0000010
  C        1.2527440    -0.7526170    -0.0000010
  C       -1.2595777    -0.8464427     0.0000000
  C        2.4447950     1.3519700     0.0000010
  C       -2.5550880     1.3760200     0.0000010
  H        0.0310140     2.3780990    -0.0000010
  H        0.0457120    -2.3937650    -0.0000010
  H        2.2343430     2.4214070    -0.0000200
  H        3.0241620     1.0875710    -0.8862110
  H        3.0241420     1.0876020     0.8862360
  H       -3.1432670     1.0977880    -0.8790540
  H       -2.4120010     2.4600010     0.0000010
  H       -3.1432670     1.0977870     0.8790540
units angstrom
no_reorient  #important for SAPT in psi4, default
symmetry c1  #important for SAPT in psi4, default
}

set PROPERTIES_ORIGIN ["COM"]
properties('MP2/aug-cc-pvtz', properties = ['dipole'])
--------------------------------------------------------------------------

    Molecular point group: c1
  Charge       = 0
  Multiplicity = 1
  Basis Set: AUG-CC-PVTZ
    Blend: AUG-CC-PVTZ
  Basis Set: (AUG-CC-PVTZ AUX)
    Blend: AUG-CC-PVTZ-JKFIT

    Orbital Energies [Eh]
    ---------------------

    Doubly Occupied:

       1A    -20.543106     2A    -20.541903     3A    -15.634890
       4A    -15.625959     5A    -11.412886     6A    -11.376006
       7A    -11.318929     8A    -11.286633     9A    -11.256926
      10A    -11.234846    11A     -1.428377    12A     -1.403909
      13A     -1.305336    14A     -1.250436    15A     -1.100191
      16A     -0.991918    17A     -0.961421    18A     -0.906812
      19A     -0.857109    20A     -0.768061    21A     -0.731753
      22A     -0.692043    23A     -0.682301    24A     -0.655988
      25A     -0.638166    26A     -0.615293    27A     -0.610103
      28A     -0.589253    29A     -0.580091    30A     -0.557163
      31A     -0.546948    32A     -0.546524    33A     -0.489709
      34A     -0.474566    35A     -0.444354    36A     -0.435712
      37A     -0.340022

  @DF-RHF Final Energy:  -490.71238458242419

   => Energetics <=

    Nuclear Repulsion Energy =            530.6333247958484662
    One-Electron Energy =               -1721.0201319920652168
    Two-Electron Energy =                 699.6744226137925580
    Total Energy =                       -490.7123845824241926
  Basis Set: (AUG-CC-PVTZ AUX)
    Blend: AUG-CC-PVTZ-RI
    Molecular point group: c1

    Geometry (in Angstrom), charge = 0, multiplicity = 1:

       Center              X                  Y                   Z               Mass
    ------------   -----------------  -----------------  -----------------  -----------------
         O            2.318906051760    -1.288390423313     0.000002028533    15.994914619570
         O           -2.274116948240    -1.426601423313     0.000001028533    15.994914619570
         N            1.170060051760     0.703048576687    -0.000001971467    14.003074004430
         N            0.013835051760    -1.307354423313    -0.000001971467    14.003074004430
         C           -1.242263948240     0.730959576687     0.000000028533    12.000000000000
         C           -0.042261948240     1.363104576687    -0.000000971467    12.000000000000
         C            1.250373051760    -0.682989423313    -0.000000971467    12.000000000000
         C           -1.261948648240    -0.776815123313     0.000000028533    12.000000000000
         C            2.442424051760     1.421597576687     0.000001028533    12.000000000000
         C           -2.557458948240     1.445647576687     0.000001028533    12.000000000000
         H            0.028643051760     2.447726576687    -0.000000971467     1.007825032230
         H            0.043341051760    -2.324137423313    -0.000000971467     1.007825032230
         H            2.231972051760     2.491034576687    -0.000019971467     1.007825032230
         H            3.021791051760     1.157198576687    -0.886210971467     1.007825032230
         H            3.021771051760     1.157229576687     0.886236028533     1.007825032230
         H           -3.145637948240     1.167415576687    -0.879053971467     1.007825032230
         H           -2.414371948240     2.529628576687     0.000001028533     1.007825032230
         H           -3.145637948240     1.167414576687     0.879054028533     1.007825032230

  Basis Set: AUG-CC-PVTZ
    Blend: AUG-CC-PVTZ
  Basis Set: (AUG-CC-PVTZ AUX)
    Blend: AUG-CC-PVTZ-JKFIT
	 Reference Energy          =    -490.7123845824241926 [Eh]
	 Singles Energy            =      -0.0000000000000000 [Eh]
	 Same-Spin Energy          =      -0.5013771481899036 [Eh]
	 Opposite-Spin Energy      =      -1.5397502732993038 [Eh]
	 Correlation Energy        =      -2.0411274214892074 [Eh]
	 Total Energy              =    -492.7535120039133858 [Eh]

	 ================> DF-SCS-MP2 Energies <==================
	-----------------------------------------------------------
	 SCS Same-Spin Scale       =       0.3333333333333333 [-]
	 SCS Opposite-Spin Scale   =       1.2000000000000000 [-]
	 SCS Same-Spin Energy      =      -0.1671257160633012 [Eh]
	 SCS Opposite-Spin Energy  =      -1.8477003279591644 [Eh]
	 SCS Correlation Energy    =      -2.0148260440224655 [Eh]
	 SCS Total Energy          =    -492.7272106264466629 [Eh]
	-----------------------------------------------------------

  Dipole Moment: [D]
     X:     0.9794      Y:     4.2190      Z:    -0.0000     Total:     4.3312

*** Psi4 exiting successfully. Buy a developer a beer!
