                               Psi4 1.3.2 release

  ==> Input File <==

--------------------------------------------------------------------------
#psi4
#
memory 32 gb

molecule  {
0 1
  O        2.3111590    -1.3984000     0.0000580
  O       -2.2718830    -1.4902890    -0.0001310
  N        1.1826080     0.6255060     0.0000550
  N        0.0153410    -1.3761840    -0.0000340
  C       -1.2346770     0.6647280    -0.0000250
  C       -0.0319280     1.2897490     0.0000350
  C        1.2121506    -0.7627487     0.0000289
  C       -1.2542960    -0.7955090    -0.0000670
  C        2.3967533     1.4371325     0.0001237
  C       -2.5504790     1.3758010    -0.0000570
  H        0.0516650     2.3739750     0.0000690
  H        0.0461780    -2.3935470    -0.0000610
  H        2.4800130     2.0209940     0.8935150
  H        2.4798690     2.0213500    -0.8930780
  H        3.2466700     0.6823050    -0.0000520
  H       -3.1375530     1.0948740    -0.8785960
  H       -2.4103180     2.4605130    -0.0000230
  H       -3.1376190     1.0948280     0.8784230
units angstrom
no_reorient  #important for SAPT in psi4, default
symmetry c1  #important for SAPT in psi4, default
}

set PROPERTIES_ORIGIN ["COM"]
properties('MP2/aug-cc-pvtz', properties = ['dipole'])
--------------------------------------------------------------------------

    Molecular point group: c1
  Charge       = 0
  Multiplicity = 1
  Basis Set: AUG-CC-PVTZ
    Blend: AUG-CC-PVTZ
  Basis Set: (AUG-CC-PVTZ AUX)
    Blend: AUG-CC-PVTZ-JKFIT

    Orbital Energies [Eh]
    ---------------------

    Doubly Occupied:

       1A    -20.543251     2A    -20.529723     3A    -15.640156
       4A    -15.632646     5A    -11.413305     6A    -11.380591
       7A    -11.325583     8A    -11.285895     9A    -11.260937
      10A    -11.238543    11A     -1.417419    12A     -1.382854
      13A     -1.297292    14A     -1.255881    15A     -1.109990
      16A     -0.994927    17A     -0.965625    18A     -0.919226
      19A     -0.861599    20A     -0.772461    21A     -0.743267
      22A     -0.691457    23A     -0.686536    24A     -0.654361
      25A     -0.625361    26A     -0.622100    27A     -0.610921
      28A     -0.584759    29A     -0.582627    30A     -0.552334
      31A     -0.543368    32A     -0.542036    33A     -0.488183
      34A     -0.466508    35A     -0.445498    36A     -0.430885
      37A     -0.346950

  @DF-RHF Final Energy:  -490.70320488368378

   => Energetics <=

    Nuclear Repulsion Energy =            530.5485130239197815
    One-Electron Energy =               -1720.8133319141791162
    Two-Electron Energy =                 699.5616140065756099
    Total Energy =                       -490.7032048836838385
  Basis Set: (AUG-CC-PVTZ AUX)
    Blend: AUG-CC-PVTZ-RI
    Molecular point group: c1

    Geometry (in Angstrom), charge = 0, multiplicity = 1:

       Center              X                  Y                   Z               Mass
    ------------   -----------------  -----------------  -----------------  -----------------
         O            2.314947454252    -1.335727633909     0.000059512386    15.994914619570
         O           -2.268094545748    -1.427616633909    -0.000129487614    15.994914619570
         N            1.186396454252     0.688178366091     0.000056512386    14.003074004430
         N            0.019129454252    -1.313511633909    -0.000032487614    14.003074004430
         C           -1.230888545748     0.727400366091    -0.000023487614    12.000000000000
         C           -0.028139545748     1.352421366091     0.000036512386    12.000000000000
         C            1.215939054252    -0.700076333909     0.000030412386    12.000000000000
         C           -1.250507545748    -0.732836633909    -0.000065487614    12.000000000000
         C            2.400541754252     1.499804866091     0.000125212386    12.000000000000
         C           -2.546690545748     1.438473366091    -0.000055487614    12.000000000000
         H            0.055453454252     2.436647366091     0.000070512386     1.007825032230
         H            0.049966454252    -2.330874633909    -0.000059487614     1.007825032230
         H            2.483801454252     2.083666366091     0.893516512386     1.007825032230
         H            2.483657454252     2.084022366091    -0.893076487614     1.007825032230
         H            3.250458454252     0.744977366091    -0.000050487614     1.007825032230
         H           -3.133764545748     1.157546366091    -0.878594487614     1.007825032230
         H           -2.406529545748     2.523185366091    -0.000021487614     1.007825032230
         H           -3.133830545748     1.157500366091     0.878424512386     1.007825032230

  Basis Set: AUG-CC-PVTZ
    Blend: AUG-CC-PVTZ
  Basis Set: (AUG-CC-PVTZ AUX)
    Blend: AUG-CC-PVTZ-JKFIT
	 Reference Energy          =    -490.7032048836837816 [Eh]
	 Singles Energy            =      -0.0000000000000000 [Eh]
	 Same-Spin Energy          =      -0.5032083619585384 [Eh]
	 Opposite-Spin Energy      =      -1.5428098248658486 [Eh]
	 Correlation Energy        =      -2.0460181868243872 [Eh]
	 Total Energy              =    -492.7492230705081511 [Eh]

	 ================> DF-SCS-MP2 Energies <==================
	-----------------------------------------------------------
	 SCS Same-Spin Scale       =       0.3333333333333333 [-]
	 SCS Opposite-Spin Scale   =       1.2000000000000000 [-]
	 SCS Same-Spin Energy      =      -0.1677361206528461 [Eh]
	 SCS Opposite-Spin Energy  =      -1.8513717898390183 [Eh]
	 SCS Correlation Energy    =      -2.0191079104918646 [Eh]
	 SCS Total Energy          =    -492.7223127941756502 [Eh]
	-----------------------------------------------------------

  Dipole Moment: [D]
     X:     0.6382      Y:     4.6047      Z:     0.0001     Total:     4.6488

*** Psi4 exiting successfully. Buy a developer a beer!
