                               Psi4 1.3.2 release

  ==> Input File <==

--------------------------------------------------------------------------
#psi4
#
memory 32 gb

molecule  {
0 1
  O        2.2882696    -1.4346762     0.0000564
  O       -2.2718830    -1.4902890    -0.0001310
  N        1.1342716     0.6219402     0.0000531
  N        0.0153410    -1.3761840    -0.0000340
  C       -1.2346770     0.6647280    -0.0000250
  C       -0.0319280     1.2897490     0.0000350
  C        1.2605820    -0.7608720     0.0000310
  C       -1.2542960    -0.7955090    -0.0000670
  C        2.4243390     1.3942650     0.0001240
  C       -2.5504790     1.3758010    -0.0000570
  H        0.0516650     2.3739750     0.0000690
  H        0.0461780    -2.3935470    -0.0000610
  H        2.4800130     2.0209940     0.8935150
  H        2.4798690     2.0213500    -0.8930780
  H        3.2466700     0.6823050    -0.0000520
  H       -3.1375530     1.0948740    -0.8785960
  H       -2.4103180     2.4605130    -0.0000230
  H       -3.1376190     1.0948280     0.8784230
units angstrom
no_reorient  #important for SAPT in psi4, default
symmetry c1  #important for SAPT in psi4, default
}

set PROPERTIES_ORIGIN ["COM"]
properties('MP2/aug-cc-pvtz', properties = ['dipole'])
--------------------------------------------------------------------------

    Molecular point group: c1
  Charge       = 0
  Multiplicity = 1
  Basis Set: AUG-CC-PVTZ
    Blend: AUG-CC-PVTZ
  Basis Set: (AUG-CC-PVTZ AUX)
    Blend: AUG-CC-PVTZ-JKFIT

    Orbital Energies [Eh]
    ---------------------

    Doubly Occupied:

       1A    -20.543620     2A    -20.534310     3A    -15.641743
       4A    -15.620758     5A    -11.415370     6A    -11.372401
       7A    -11.322617     8A    -11.293129     9A    -11.254887
      10A    -11.234571    11A     -1.425300    12A     -1.383769
      13A     -1.315456    14A     -1.239187    15A     -1.106219
      16A     -0.993242    17A     -0.966680    18A     -0.914379
      19A     -0.854119    20A     -0.771592    21A     -0.731206
      22A     -0.696703    23A     -0.683198    24A     -0.646839
      25A     -0.636814    26A     -0.614810    27A     -0.605247
      28A     -0.589096    29A     -0.582867    30A     -0.556879
      31A     -0.545287    32A     -0.542624    33A     -0.497826
      34A     -0.476865    35A     -0.441013    36A     -0.427892
      37A     -0.342033

  @DF-RHF Final Energy:  -490.70773915006322

   => Energetics <=

    Nuclear Repulsion Energy =            530.7738731357084134
    One-Electron Energy =               -1721.3221305965757892
    Two-Electron Energy =                 699.8405183108041001
    Total Energy =                       -490.7077391500631620
  Basis Set: (AUG-CC-PVTZ AUX)
    Blend: AUG-CC-PVTZ-RI
    Molecular point group: c1

    Geometry (in Angstrom), charge = 0, multiplicity = 1:

       Center              X                  Y                   Z               Mass
    ------------   -----------------  -----------------  -----------------  -----------------
         O            2.292991713492    -1.363992496775     0.000058079443    15.994914619570
         O           -2.267160886508    -1.419605296775    -0.000129320557    15.994914619570
         N            1.138993713492     0.692623903225     0.000054779443    14.003074004430
         N            0.020063113492    -1.305500296775    -0.000032320557    14.003074004430
         C           -1.229954886508     0.735411703225    -0.000023320557    12.000000000000
         C           -0.027205886508     1.360432703225     0.000036679443    12.000000000000
         C            1.265304113492    -0.690188296775     0.000032679443    12.000000000000
         C           -1.249573886508    -0.724825296775    -0.000065320557    12.000000000000
         C            2.429061113492     1.464948703225     0.000125679443    12.000000000000
         C           -2.545756886508     1.446484703225    -0.000055320557    12.000000000000
         H            0.056387113492     2.444658703225     0.000070679443     1.007825032230
         H            0.050900113492    -2.322863296775    -0.000059320557     1.007825032230
         H            2.484735113492     2.091677703225     0.893516679443     1.007825032230
         H            2.484591113492     2.092033703225    -0.893076320557     1.007825032230
         H            3.251392113492     0.752988703225    -0.000050320557     1.007825032230
         H           -3.132830886508     1.165557703225    -0.878594320557     1.007825032230
         H           -2.405595886508     2.531196703225    -0.000021320557     1.007825032230
         H           -3.132896886508     1.165511703225     0.878424679443     1.007825032230

  Basis Set: AUG-CC-PVTZ
    Blend: AUG-CC-PVTZ
  Basis Set: (AUG-CC-PVTZ AUX)
    Blend: AUG-CC-PVTZ-JKFIT
	 Reference Energy          =    -490.7077391500632189 [Eh]
	 Singles Energy            =      -0.0000000000000000 [Eh]
	 Same-Spin Energy          =      -0.5028279592957389 [Eh]
	 Opposite-Spin Energy      =      -1.5419372360259311 [Eh]
	 Correlation Energy        =      -2.0447651953216699 [Eh]
	 Total Energy              =    -492.7525043453848639 [Eh]

	 ================> DF-SCS-MP2 Energies <==================
	-----------------------------------------------------------
	 SCS Same-Spin Scale       =       0.3333333333333333 [-]
	 SCS Opposite-Spin Scale   =       1.2000000000000000 [-]
	 SCS Same-Spin Energy      =      -0.1676093197652463 [Eh]
	 SCS Opposite-Spin Energy  =      -1.8503246832311173 [Eh]
	 SCS Correlation Energy    =      -2.0179340029963635 [Eh]
	 SCS Total Energy          =    -492.7256731530595744 [Eh]
	-----------------------------------------------------------

  Dipole Moment: [D]
     X:     1.3797      Y:     4.6699      Z:     0.0002     Total:     4.8695

*** Psi4 exiting successfully. Buy a developer a beer!
