                               Psi4 1.3.2 release

  ==> Input File <==

--------------------------------------------------------------------------
#psi4
#
memory 32 gb

molecule  {
0 1
  O        2.3111590    -1.3984000     0.0000580
  O       -2.2718830    -1.4902890    -0.0001310
  N        1.1826080     0.6255060     0.0000550
  N        0.0153410    -1.3761840    -0.0000340
  C       -1.2346770     0.6647280    -0.0000250
  C       -0.2093960     1.1975259     0.0000261
  C        1.2605820    -0.7608720     0.0000310
  C       -1.2542960    -0.7955090    -0.0000670
  C        2.4243390     1.3942650     0.0001240
  C       -2.5504790     1.3758010    -0.0000570
  H        0.0516650     2.3739750     0.0000690
  H        0.0461780    -2.3935470    -0.0000610
  H        2.4800130     2.0209940     0.8935150
  H        2.4798690     2.0213500    -0.8930780
  H        3.2466700     0.6823050    -0.0000520
  H       -3.1375530     1.0948740    -0.8785960
  H       -2.4103180     2.4605130    -0.0000230
  H       -3.1376190     1.0948280     0.8784230
units angstrom
no_reorient  #important for SAPT in psi4, default
symmetry c1  #important for SAPT in psi4, default
}

set PROPERTIES_ORIGIN ["COM"]
properties('MP2/aug-cc-pvtz', properties = ['dipole'])
--------------------------------------------------------------------------

    Molecular point group: c1
  Charge       = 0
  Multiplicity = 1
  Basis Set: AUG-CC-PVTZ
    Blend: AUG-CC-PVTZ
  Basis Set: (AUG-CC-PVTZ AUX)
    Blend: AUG-CC-PVTZ-JKFIT

    Orbital Energies [Eh]
    ---------------------

    Doubly Occupied:

       1A    -20.550019     2A    -20.532515     3A    -15.623886
       4A    -15.623800     5A    -11.403469     6A    -11.386097
       7A    -11.307767     8A    -11.280484     9A    -11.244390
      10A    -11.242593    11A     -1.418819    12A     -1.392087
      13A     -1.288056    14A     -1.231319    15A     -1.160655
      16A     -0.985964    17A     -0.964307    18A     -0.903074
      19A     -0.852180    20A     -0.774647    21A     -0.734217
      22A     -0.674299    23A     -0.672960    24A     -0.643666
      25A     -0.633475    26A     -0.617961    27A     -0.612124
      28A     -0.590070    29A     -0.585252    30A     -0.558554
      31A     -0.544583    32A     -0.535668    33A     -0.490320
      34A     -0.462164    35A     -0.448842    36A     -0.431502
      37A     -0.381231

  @DF-RHF Final Energy:  -490.64235228378783

   => Energetics <=

    Nuclear Repulsion Energy =            532.3059348770075303
    One-Electron Energy =               -1724.3305500205815406
    Two-Electron Energy =                 701.3822628597861240
    Total Energy =                       -490.6423522837878863
  Basis Set: (AUG-CC-PVTZ AUX)
    Blend: AUG-CC-PVTZ-RI
    Molecular point group: c1

    Geometry (in Angstrom), charge = 0, multiplicity = 1:

       Center              X                  Y                   Z               Mass
    ------------   -----------------  -----------------  -----------------  -----------------
         O            2.323639608790    -1.324314075179     0.000060069296    15.994914619570
         O           -2.259402391210    -1.416203075179    -0.000128930704    15.994914619570
         N            1.195088608790     0.699591924821     0.000057069296    14.003074004430
         N            0.027821608790    -1.302098075179    -0.000031930704    14.003074004430
         C           -1.222196391210     0.738813924821    -0.000022930704    12.000000000000
         C           -0.196915391210     1.271611824821     0.000028169296    12.000000000000
         C            1.273062608790    -0.686786075179     0.000033069296    12.000000000000
         C           -1.241815391210    -0.721423075179    -0.000064930704    12.000000000000
         C            2.436819608790     1.468350924821     0.000126069296    12.000000000000
         C           -2.537998391210     1.449886924821    -0.000054930704    12.000000000000
         H            0.064145608790     2.448060924821     0.000071069296     1.007825032230
         H            0.058658608790    -2.319461075179    -0.000058930704     1.007825032230
         H            2.492493608790     2.095079924821     0.893517069296     1.007825032230
         H            2.492349608790     2.095435924821    -0.893075930704     1.007825032230
         H            3.259150608790     0.756390924821    -0.000049930704     1.007825032230
         H           -3.125072391210     1.168959924821    -0.878593930704     1.007825032230
         H           -2.397837391210     2.534598924821    -0.000020930704     1.007825032230
         H           -3.125138391210     1.168913924821     0.878425069296     1.007825032230

  Basis Set: AUG-CC-PVTZ
    Blend: AUG-CC-PVTZ
  Basis Set: (AUG-CC-PVTZ AUX)
    Blend: AUG-CC-PVTZ-JKFIT
	 Reference Energy          =    -490.6423522837878295 [Eh]
	 Singles Energy            =      -0.0000000000000000 [Eh]
	 Same-Spin Energy          =      -0.5008418529936096 [Eh]
	 Opposite-Spin Energy      =      -1.5399267364755771 [Eh]
	 Correlation Energy        =      -2.0407685894691867 [Eh]
	 Total Energy              =    -492.6831208732569962 [Eh]

	 ================> DF-SCS-MP2 Energies <==================
	-----------------------------------------------------------
	 SCS Same-Spin Scale       =       0.3333333333333333 [-]
	 SCS Opposite-Spin Scale   =       1.2000000000000000 [-]
	 SCS Same-Spin Energy      =      -0.1669472843312032 [Eh]
	 SCS Opposite-Spin Energy  =      -1.8479120837706924 [Eh]
	 SCS Correlation Energy    =      -2.0148593681018956 [Eh]
	 SCS Total Energy          =    -492.6572116518897246 [Eh]
	-----------------------------------------------------------

  Dipole Moment: [D]
     X:     0.2767      Y:     4.3256      Z:     0.0001     Total:     4.3345

*** Psi4 exiting successfully. Buy a developer a beer!
