                               Psi4 1.3.2 release

  ==> Input File <==

--------------------------------------------------------------------------
#psi4
#
memory 32 gb

molecule  {
0 1
  O        2.3111590    -1.3984000     0.0000580
  O       -2.2718830    -1.4902890    -0.0001310
  N        1.1826080     0.6255060     0.0000550
  N        0.0153410    -1.3761840    -0.0000340
  C       -1.2346770     0.6647280    -0.0000250
  C       -0.0319280     1.2897490     0.0000350
  C        1.2711310    -0.7826982     0.0000308
  C       -1.2642368    -0.8177557    -0.0000680
  C        2.4243390     1.3942650     0.0001240
  C       -2.5504790     1.3758010    -0.0000570
  H        0.0516650     2.3739750     0.0000690
  H        0.0461780    -2.3935470    -0.0000610
  H        2.4800130     2.0209940     0.8935150
  H        2.4798690     2.0213500    -0.8930780
  H        3.2466700     0.6823050    -0.0000520
  H       -3.1375530     1.0948740    -0.8785960
  H       -2.4103180     2.4605130    -0.0000230
  H       -3.1376190     1.0948280     0.8784230
units angstrom
no_reorient  #important for SAPT in psi4, default
symmetry c1  #important for SAPT in psi4, default
}

set PROPERTIES_ORIGIN ["COM"]
properties('MP2/aug-cc-pvtz', properties = ['dipole'])
--------------------------------------------------------------------------

    Molecular point group: c1
  Charge       = 0
  Multiplicity = 1
  Basis Set: AUG-CC-PVTZ
    Blend: AUG-CC-PVTZ
  Basis Set: (AUG-CC-PVTZ AUX)
    Blend: AUG-CC-PVTZ-JKFIT

    Orbital Energies [Eh]
    ---------------------

    Doubly Occupied:

       1A    -20.545888     2A    -20.542118     3A    -15.632317
       4A    -15.622784     5A    -11.414344     6A    -11.376070
       7A    -11.320121     8A    -11.282912     9A    -11.256620
      10A    -11.234914    11A     -1.433096    12A     -1.401730
      13A     -1.304943    14A     -1.242989    15A     -1.102973
      16A     -0.988831    17A     -0.958747    18A     -0.907949
      19A     -0.852793    20A     -0.766272    21A     -0.730187
      22A     -0.692316    23A     -0.679182    24A     -0.651707
      25A     -0.645460    26A     -0.615878    27A     -0.611018
      28A     -0.585554    29A     -0.584378    30A     -0.553146
      31A     -0.549139    32A     -0.546594    33A     -0.486888
      34A     -0.478517    35A     -0.445832    36A     -0.435016
      37A     -0.341523

  @DF-RHF Final Energy:  -490.71292648369308

   => Energetics <=

    Nuclear Repulsion Energy =            530.1210159854517769
    One-Electron Energy =               -1720.0263904628022829
    Two-Electron Energy =                 699.1924479936574244
    Total Energy =                       -490.7129264836930815
  Basis Set: (AUG-CC-PVTZ AUX)
    Blend: AUG-CC-PVTZ-RI
    Molecular point group: c1

    Geometry (in Angstrom), charge = 0, multiplicity = 1:

       Center              X                  Y                   Z               Mass
    ------------   -----------------  -----------------  -----------------  -----------------
         O            2.308382318319    -1.328439509054     0.000059409572    15.994914619570
         O           -2.274659681681    -1.420328509054    -0.000129590428    15.994914619570
         N            1.179831318319     0.695466490946     0.000056409572    14.003074004430
         N            0.012564318319    -1.306223509054    -0.000032590428    14.003074004430
         C           -1.237453681681     0.734688490946    -0.000023590428    12.000000000000
         C           -0.034704681681     1.359709490946     0.000036409572    12.000000000000
         C            1.268354318319    -0.712737709054     0.000032209572    12.000000000000
         C           -1.267013481681    -0.747795209054    -0.000066590428    12.000000000000
         C            2.421562318319     1.464225490946     0.000125409572    12.000000000000
         C           -2.553255681681     1.445761490946    -0.000055590428    12.000000000000
         H            0.048888318319     2.443935490946     0.000070409572     1.007825032230
         H            0.043401318319    -2.323586509054    -0.000059590428     1.007825032230
         H            2.477236318319     2.090954490946     0.893516409572     1.007825032230
         H            2.477092318319     2.091310490946    -0.893076590428     1.007825032230
         H            3.243893318319     0.752265490946    -0.000050590428     1.007825032230
         H           -3.140329681681     1.164834490946    -0.878594590428     1.007825032230
         H           -2.413094681681     2.530473490946    -0.000021590428     1.007825032230
         H           -3.140395681681     1.164788490946     0.878424409572     1.007825032230

  Basis Set: AUG-CC-PVTZ
    Blend: AUG-CC-PVTZ
  Basis Set: (AUG-CC-PVTZ AUX)
    Blend: AUG-CC-PVTZ-JKFIT
	 Reference Energy          =    -490.7129264836930815 [Eh]
	 Singles Energy            =      -0.0000000000000000 [Eh]
	 Same-Spin Energy          =      -0.5015432413158778 [Eh]
	 Opposite-Spin Energy      =      -1.5399908946349687 [Eh]
	 Correlation Energy        =      -2.0415341359508465 [Eh]
	 Total Energy              =    -492.7544606196439076 [Eh]

	 ================> DF-SCS-MP2 Energies <==================
	-----------------------------------------------------------
	 SCS Same-Spin Scale       =       0.3333333333333333 [-]
	 SCS Opposite-Spin Scale   =       1.2000000000000000 [-]
	 SCS Same-Spin Energy      =      -0.1671810804386259 [Eh]
	 SCS Opposite-Spin Energy  =      -1.8479890735619624 [Eh]
	 SCS Correlation Energy    =      -2.0151701540005882 [Eh]
	 SCS Total Energy          =    -492.7280966376936817 [Eh]
	-----------------------------------------------------------

  Dipole Moment: [D]
     X:     1.0753      Y:     4.1880      Z:     0.0002     Total:     4.3238

*** Psi4 exiting successfully. Buy a developer a beer!
