                               Psi4 1.3.2 release

  ==> Input File <==

--------------------------------------------------------------------------
#psi4
#
memory 32 gb

molecule  {
0 1
  O        2.3111590    -1.3984000     0.0000580
  O       -2.2718830    -1.4902890    -0.0001310
  N        1.1826080     0.6255060     0.0000550
  N        0.0153410    -1.3761840    -0.0000340
  C       -1.2315386     0.6706557     0.0111717
  C       -0.0319280     1.2897490     0.0000350
  C        1.2605820    -0.7608720     0.0000310
  C       -1.2542960    -0.7955090    -0.0000670
  C        2.4243390     1.3942650     0.0001240
  C       -2.5504790     1.3758010    -0.0000570
  H        0.0516650     2.3739750     0.0000690
  H        0.0461780    -2.3935470    -0.0000610
  H        2.4800130     2.0209940     0.8935150
  H        2.4798690     2.0213500    -0.8930780
  H        3.2466700     0.6823050    -0.0000520
  H       -3.1445764     1.1006443    -0.8756960
  H       -2.4103180     2.4605130    -0.0000230
  H       -3.1376190     1.0948280     0.8784230
units angstrom
no_reorient  #important for SAPT in psi4, default
symmetry c1  #important for SAPT in psi4, default
}

set PROPERTIES_ORIGIN ["COM"]
properties('MP2/aug-cc-pvtz', properties = ['dipole'])
--------------------------------------------------------------------------

    Molecular point group: c1
  Charge       = 0
  Multiplicity = 1
  Basis Set: AUG-CC-PVTZ
    Blend: AUG-CC-PVTZ
  Basis Set: (AUG-CC-PVTZ AUX)
    Blend: AUG-CC-PVTZ-JKFIT

    Orbital Energies [Eh]
    ---------------------

    Doubly Occupied:

       1A    -20.540483     2A    -20.539215     3A    -15.637775
       4A    -15.624673     5A    -11.413661     6A    -11.376924
       7A    -11.323784     8A    -11.285782     9A    -11.259704
      10A    -11.237212    11A     -1.424048    12A     -1.387221
      13A     -1.306670    14A     -1.242921    15A     -1.109449
      16A     -0.993004    17A     -0.963913    18A     -0.913305
      19A     -0.853256    20A     -0.770827    21A     -0.734648
      22A     -0.692157    23A     -0.682059    24A     -0.649612
      25A     -0.637795    26A     -0.615446    27A     -0.609701
      28A     -0.589020    29A     -0.583643    30A     -0.555585
      31A     -0.548125    32A     -0.543157    33A     -0.488200
      34A     -0.475149    35A     -0.444347    36A     -0.430708
      37A     -0.346711

  @DF-RHF Final Energy:  -490.71217631849208

   => Energetics <=

    Nuclear Repulsion Energy =            530.3424250728965035
    One-Electron Energy =               -1720.4494269666695345
    Two-Electron Energy =                 699.3948255752809473
    Total Energy =                       -490.7121763184920837
  Basis Set: (AUG-CC-PVTZ AUX)
    Blend: AUG-CC-PVTZ-RI
    Molecular point group: c1

    Geometry (in Angstrom), charge = 0, multiplicity = 1:

       Center              X                  Y                   Z               Mass
    ------------   -----------------  -----------------  -----------------  -----------------
         O            2.308216073294    -1.332765003883    -0.000920876641    15.994914619570
         O           -2.274825926706    -1.424654003883    -0.001109876641    15.994914619570
         N            1.179665073294     0.691140996117    -0.000923876641    14.003074004430
         N            0.012398073294    -1.310549003883    -0.001012876641    14.003074004430
         C           -1.234481526706     0.736290696117     0.010192823359    12.000000000000
         C           -0.034870926706     1.355383996117    -0.000943876641    12.000000000000
         C            1.257639073294    -0.695237003883    -0.000947876641    12.000000000000
         C           -1.257238926706    -0.729874003883    -0.001045876641    12.000000000000
         C            2.421396073294     1.459899996117    -0.000854876641    12.000000000000
         C           -2.553421926706     1.441435996117    -0.001035876641    12.000000000000
         H            0.048722073294     2.439609996117    -0.000909876641     1.007825032230
         H            0.043235073294    -2.327912003883    -0.001039876641     1.007825032230
         H            2.477070073294     2.086628996117     0.892536123359     1.007825032230
         H            2.476926073294     2.086984996117    -0.894056876641     1.007825032230
         H            3.243727073294     0.747939996117    -0.001030876641     1.007825032230
         H           -3.147519326706     1.166279296117    -0.876674876641     1.007825032230
         H           -2.413260926706     2.526147996117    -0.001001876641     1.007825032230
         H           -3.140561926706     1.160462996117     0.877444123359     1.007825032230

  Basis Set: AUG-CC-PVTZ
    Blend: AUG-CC-PVTZ
  Basis Set: (AUG-CC-PVTZ AUX)
    Blend: AUG-CC-PVTZ-JKFIT
	 Reference Energy          =    -490.7121763184920837 [Eh]
	 Singles Energy            =      -0.0000000000000000 [Eh]
	 Same-Spin Energy          =      -0.5022556637929642 [Eh]
	 Opposite-Spin Energy      =      -1.5412841856750332 [Eh]
	 Correlation Energy        =      -2.0435398494679973 [Eh]
	 Total Energy              =    -492.7557161679600881 [Eh]

	 ================> DF-SCS-MP2 Energies <==================
	-----------------------------------------------------------
	 SCS Same-Spin Scale       =       0.3333333333333333 [-]
	 SCS Opposite-Spin Scale   =       1.2000000000000000 [-]
	 SCS Same-Spin Energy      =      -0.1674185545976547 [Eh]
	 SCS Opposite-Spin Energy  =      -1.8495410228100397 [Eh]
	 SCS Correlation Energy    =      -2.0169595774076945 [Eh]
	 SCS Total Energy          =    -492.7291358958997876 [Eh]
	-----------------------------------------------------------

  Dipole Moment: [D]
     X:     1.0317      Y:     4.5042      Z:    -0.0063     Total:     4.6209

*** Psi4 exiting successfully. Buy a developer a beer!
