                               Psi4 1.3.2 release

  ==> Input File <==

--------------------------------------------------------------------------
#psi4
#
memory 32 gb

molecule  {
0 1
  O        2.3111590    -1.3984000     0.0000580
  O       -2.2718830    -1.4902890    -0.0001310
  N        1.2050499     0.6682973     0.0000571
  N        0.0153410    -1.3761840    -0.0000340
  C       -1.2557572     0.7070841    -0.0000244
  C       -0.0319280     1.2897490     0.0000350
  C        1.2605820    -0.7608720     0.0000310
  C       -1.2542960    -0.7955090    -0.0000670
  C        2.4243390     1.3942650     0.0001240
  C       -2.5504790     1.3758010    -0.0000570
  H        0.0516650     2.3739750     0.0000690
  H        0.0461780    -2.3935470    -0.0000610
  H        2.4800130     2.0209940     0.8935150
  H        2.4798690     2.0213500    -0.8930780
  H        3.2466700     0.6823050    -0.0000520
  H       -3.1375530     1.0948740    -0.8785960
  H       -2.4103180     2.4605130    -0.0000230
  H       -3.1376190     1.0948280     0.8784230
units angstrom
no_reorient  #important for SAPT in psi4, default
symmetry c1  #important for SAPT in psi4, default
}

set PROPERTIES_ORIGIN ["COM"]
properties('MP2/aug-cc-pvtz', properties = ['dipole'])
--------------------------------------------------------------------------

    Molecular point group: c1
  Charge       = 0
  Multiplicity = 1
  Basis Set: AUG-CC-PVTZ
    Blend: AUG-CC-PVTZ
  Basis Set: (AUG-CC-PVTZ AUX)
    Blend: AUG-CC-PVTZ-JKFIT

    Orbital Energies [Eh]
    ---------------------

    Doubly Occupied:

       1A    -20.546141     2A    -20.541196     3A    -15.637157
       4A    -15.629047     5A    -11.419267     6A    -11.379694
       7A    -11.321564     8A    -11.280974     9A    -11.261284
      10A    -11.235404    11A     -1.423885    12A     -1.388471
      13A     -1.305653    14A     -1.247177    15A     -1.110824
      16A     -0.997096    17A     -0.958841    18A     -0.905731
      19A     -0.855108    20A     -0.766665    21A     -0.736267
      22A     -0.688698    23A     -0.681476    24A     -0.657892
      25A     -0.637858    26A     -0.617204    27A     -0.611474
      28A     -0.592076    29A     -0.586999    30A     -0.560470
      31A     -0.546187    32A     -0.542659    33A     -0.485294
      34A     -0.475076    35A     -0.443748    36A     -0.432918
      37A     -0.342578

  @DF-RHF Final Energy:  -490.70533652403122

   => Energetics <=

    Nuclear Repulsion Energy =            529.2604158821710598
    One-Electron Energy =               -1718.2313955489478303
    Two-Electron Energy =                 698.2656431427453754
    Total Energy =                       -490.7053365240312814
  Basis Set: (AUG-CC-PVTZ AUX)
    Blend: AUG-CC-PVTZ-RI
    Molecular point group: c1

    Geometry (in Angstrom), charge = 0, multiplicity = 1:

       Center              X                  Y                   Z               Mass
    ------------   -----------------  -----------------  -----------------  -----------------
         O            2.307996802576    -1.340122890177     0.000059045393    15.994914619570
         O           -2.275045197424    -1.432011890177    -0.000129954607    15.994914619570
         N            1.201887702576     0.726574409823     0.000058145393    14.003074004430
         N            0.012178802576    -1.317906890177    -0.000032954607    14.003074004430
         C           -1.258919397424     0.765361209823    -0.000023354607    12.000000000000
         C           -0.035090197424     1.348026109823     0.000036045393    12.000000000000
         C            1.257419802576    -0.702594890177     0.000032045393    12.000000000000
         C           -1.257458197424    -0.737231890177    -0.000065954607    12.000000000000
         C            2.421176802576     1.452542109823     0.000125045393    12.000000000000
         C           -2.553641197424     1.434078109823    -0.000055954607    12.000000000000
         H            0.048502802576     2.432252109823     0.000070045393     1.007825032230
         H            0.043015802576    -2.335269890177    -0.000059954607     1.007825032230
         H            2.476850802576     2.079271109823     0.893516045393     1.007825032230
         H            2.476706802576     2.079627109823    -0.893076954607     1.007825032230
         H            3.243507802576     0.740582109823    -0.000050954607     1.007825032230
         H           -3.140715197424     1.153151109823    -0.878594954607     1.007825032230
         H           -2.413480197424     2.518790109823    -0.000021954607     1.007825032230
         H           -3.140781197424     1.153105109823     0.878424045393     1.007825032230

  Basis Set: AUG-CC-PVTZ
    Blend: AUG-CC-PVTZ
  Basis Set: (AUG-CC-PVTZ AUX)
    Blend: AUG-CC-PVTZ-JKFIT
	 Reference Energy          =    -490.7053365240312246 [Eh]
	 Singles Energy            =      -0.0000000000000000 [Eh]
	 Same-Spin Energy          =      -0.5026779489038068 [Eh]
	 Opposite-Spin Energy      =      -1.5421430421928966 [Eh]
	 Correlation Energy        =      -2.0448209910967035 [Eh]
	 Total Energy              =    -492.7501575151279098 [Eh]

	 ================> DF-SCS-MP2 Energies <==================
	-----------------------------------------------------------
	 SCS Same-Spin Scale       =       0.3333333333333333 [-]
	 SCS Opposite-Spin Scale   =       1.2000000000000000 [-]
	 SCS Same-Spin Energy      =      -0.1675593163012689 [Eh]
	 SCS Opposite-Spin Energy  =      -1.8505716506314758 [Eh]
	 SCS Correlation Energy    =      -2.0181309669327447 [Eh]
	 SCS Total Energy          =    -492.7234674909639693 [Eh]
	-----------------------------------------------------------

  Dipole Moment: [D]
     X:     0.9833      Y:     4.2084      Z:     0.0002     Total:     4.3217

*** Psi4 exiting successfully. Buy a developer a beer!
