                               Psi4 1.4a3.dev225

  ==> Input File <==

--------------------------------------------------------------------------
#psi4
#
memory 32 gb

molecule  {
0 1
  O        2.3212770    -1.3580180     0.0000020
  O       -2.2717460    -1.4962290     0.0000010
  N        1.1724310     0.6334210    -0.0000020
  N        0.0162060    -1.3769820    -0.0000020
  C       -1.2398930     0.6613320     0.0000000
  C        0.0040222     1.2695682    -0.0000010
  C        1.2527440    -0.7526170    -0.0000010
  C       -1.2589250    -0.7964470     0.0000000
  C        2.4447950     1.3519700     0.0000010
  C       -2.5550880     1.3760200     0.0000010
  H        0.0310140     2.3780990    -0.0000010
  H        0.0457120    -2.3937650    -0.0000010
  H        2.2343430     2.4214070    -0.0000200
  H        3.0241620     1.0875710    -0.8862110
  H        3.0241420     1.0876020     0.8862360
  H       -3.1432670     1.0977880    -0.8790540
  H       -2.4120010     2.4600010     0.0000010
  H       -3.1432670     1.0977870     0.8790540
units angstrom
no_reorient  #important for SAPT in psi4, default
symmetry c1  #important for SAPT in psi4, default
}

set PROPERTIES_ORIGIN ["COM"]
properties('MP2/aug-cc-pvtz', properties = ['dipole'])
--------------------------------------------------------------------------

    Molecular point group: c1
  Charge       = 0
  Multiplicity = 1
  Basis Set: AUG-CC-PVTZ
    Blend: AUG-CC-PVTZ
  Basis Set: (AUG-CC-PVTZ AUX)
    Blend: AUG-CC-PVTZ-JKFIT

    Orbital Energies [Eh]
    ---------------------

    Doubly Occupied:

       1A    -20.544384     2A    -20.532989     3A    -15.644543
       4A    -15.625228     5A    -11.414781     6A    -11.371299
       7A    -11.329278     8A    -11.292759     9A    -11.254588
      10A    -11.234661    11A     -1.429465    12A     -1.384186
      13A     -1.320726    14A     -1.246252    15A     -1.100924
      16A     -1.000141    17A     -0.964425    18A     -0.915176
      19A     -0.854609    20A     -0.772916    21A     -0.735403
      22A     -0.693059    23A     -0.689585    24A     -0.653721
      25A     -0.635403    26A     -0.613130    27A     -0.601802
      28A     -0.593925    29A     -0.580098    30A     -0.560269
      31A     -0.544626    32A     -0.539793    33A     -0.500245
      34A     -0.476818    35A     -0.440538    36A     -0.430032
      37A     -0.335735

  @DF-RHF Final Energy:  -490.70857538268547

   => Energetics <=

    Nuclear Repulsion Energy =            531.3057022354272476
    One-Electron Energy =               -1722.3135308404680472
    Two-Electron Energy =                 700.2992532223552189
    Total Energy =                       -490.7085753826854670
  Basis Set: (AUG-CC-PVTZ AUX)
    Blend: AUG-CC-PVTZ-RI
    Molecular point group: c1

    Geometry (in Angstrom), charge = 0, multiplicity = 1:

       Center              X                  Y                   Z               Mass
    ------------   -----------------  -----------------  -----------------  -----------------
         O            2.315087715107    -1.290625508129     0.000002028533    15.994914619570
         O           -2.277935284893    -1.428836508129     0.000001028533    15.994914619570
         N            1.166241715107     0.700813491871    -0.000001971467    14.003074004430
         N            0.010016715107    -1.309589508129    -0.000001971467    14.003074004430
         C           -1.246082284893     0.728724491871     0.000000028533    12.000000000000
         C           -0.002167084893     1.336960691871    -0.000000971467    12.000000000000
         C            1.246554715107    -0.685224508129    -0.000000971467    12.000000000000
         C           -1.265114284893    -0.729054508129     0.000000028533    12.000000000000
         C            2.438605715107     1.419362491871     0.000001028533    12.000000000000
         C           -2.561277284893     1.443412491871     0.000001028533    12.000000000000
         H            0.024824715107     2.445491491871    -0.000000971467     1.007825032230
         H            0.039522715107    -2.326372508129    -0.000000971467     1.007825032230
         H            2.228153715107     2.488799491871    -0.000019971467     1.007825032230
         H            3.017972715107     1.154963491871    -0.886210971467     1.007825032230
         H            3.017952715107     1.154994491871     0.886236028533     1.007825032230
         H           -3.149456284893     1.165180491871    -0.879053971467     1.007825032230
         H           -2.418190284893     2.527393491871     0.000001028533     1.007825032230
         H           -3.149456284893     1.165179491871     0.879054028533     1.007825032230

  Basis Set: AUG-CC-PVTZ
    Blend: AUG-CC-PVTZ
  Basis Set: (AUG-CC-PVTZ AUX)
    Blend: AUG-CC-PVTZ-JKFIT
	 Reference Energy          =    -490.7085753826854670 [Eh]
	 Singles Energy            =      -0.0000000000000000 [Eh]
	 Same-Spin Energy          =      -0.5031475127332459 [Eh]
	 Opposite-Spin Energy      =      -1.5417980209388591 [Eh]
	 Correlation Energy        =      -2.0449455336721050 [Eh]
	 Total Energy              =    -492.7535209163575587 [Eh]

	 ================> DF-SCS-MP2 Energies <==================
	-----------------------------------------------------------
	 SCS Same-Spin Scale       =       0.3333333333333333 [-]
	 SCS Opposite-Spin Scale   =       1.2000000000000000 [-]
	 SCS Same-Spin Energy      =      -0.1677158375777486 [Eh]
	 SCS Opposite-Spin Energy  =      -1.8501576251266307 [Eh]
	 SCS Correlation Energy    =      -2.0178734627043795 [Eh]
	 SCS Total Energy          =    -492.7264488453898252 [Eh]
	-----------------------------------------------------------

  Dipole Moment: [D]
     X:     1.4006      Y:     4.5186      Z:    -0.0000     Total:     4.7307

*** Psi4 exiting successfully. Buy a developer a beer!
