                               Psi4 1.3.2 release

  ==> Input File <==

--------------------------------------------------------------------------
#psi4
#
memory 32 gb

molecule  {
0 1
  O        2.3111590    -1.3984000     0.0000580
  O       -2.2718830    -1.4902890    -0.0001310
  N        1.1826080     0.6255060     0.0000550
  N        0.0153410    -1.3761840    -0.0000340
  C       -1.2346770     0.6647280    -0.0000250
  C       -0.0319280     1.2897490     0.0000350
  C        1.2605820    -0.7608720     0.0000310
  C       -1.2542960    -0.7955090    -0.0000670
  C        2.4243390     1.3942650     0.0001240
  C       -2.5504790     1.3758010    -0.0000570
  H        0.0516650     2.3739750     0.0000690
  H        0.0461780    -2.3935470    -0.0000610
  H        2.4800130     2.0209940     0.8935150
  H        2.4798690     2.0213500    -0.8930780
  H        3.2466700     0.6823050    -0.0000520
  H       -3.1383840     1.1132404    -0.8837064
  H       -2.4203351     2.4616399    -0.0162334
  H       -3.1376190     1.0948280     0.8784230
units angstrom
no_reorient  #important for SAPT in psi4, default
symmetry c1  #important for SAPT in psi4, default
}

set PROPERTIES_ORIGIN ["COM"]
properties('MP2/aug-cc-pvtz', properties = ['dipole'])
--------------------------------------------------------------------------

    Molecular point group: c1
  Charge       = 0
  Multiplicity = 1
  Basis Set: AUG-CC-PVTZ
    Blend: AUG-CC-PVTZ
  Basis Set: (AUG-CC-PVTZ AUX)
    Blend: AUG-CC-PVTZ-JKFIT

    Orbital Energies [Eh]
    ---------------------

    Doubly Occupied:

       1A    -20.540564     2A    -20.538473     3A    -15.638253
       4A    -15.624626     5A    -11.413760     6A    -11.376231
       7A    -11.325091     8A    -11.286011     9A    -11.259811
      10A    -11.237058    11A     -1.424130    12A     -1.386952
      13A     -1.306835    14A     -1.242928    15A     -1.108923
      16A     -0.993148    17A     -0.963839    18A     -0.914329
      19A     -0.852876    20A     -0.770619    21A     -0.735174
      22A     -0.692284    23A     -0.682212    24A     -0.649517
      25A     -0.637856    26A     -0.615744    27A     -0.609276
      28A     -0.589190    29A     -0.584428    30A     -0.556051
      31A     -0.546317    32A     -0.543064    33A     -0.488116
      34A     -0.475360    35A     -0.444324    36A     -0.430587
      37A     -0.346070

  @DF-RHF Final Energy:  -490.71191775382772

   => Energetics <=

    Nuclear Repulsion Energy =            530.3354158062343231
    One-Electron Energy =               -1720.4346120621655700
    Two-Electron Energy =                 699.3872785021035270
    Total Energy =                       -490.7119177538277199
  Basis Set: (AUG-CC-PVTZ AUX)
    Blend: AUG-CC-PVTZ-RI
    Molecular point group: c1

    Geometry (in Angstrom), charge = 0, multiplicity = 1:

       Center              X                  Y                   Z               Mass
    ------------   -----------------  -----------------  -----------------  -----------------
         O            2.308512488045    -1.332355874945     0.000212725680    15.994914619570
         O           -2.274529511955    -1.424244874945     0.000023725680    15.994914619570
         N            1.179961488045     0.691550125055     0.000209725680    14.003074004430
         N            0.012694488045    -1.310139874945     0.000120725680    14.003074004430
         C           -1.237323511955     0.730772125055     0.000129725680    12.000000000000
         C           -0.034574511955     1.355793125055     0.000189725680    12.000000000000
         C            1.257935488045    -0.694827874945     0.000185725680    12.000000000000
         C           -1.256942511955    -0.729464874945     0.000087725680    12.000000000000
         C            2.421692488045     1.460309125055     0.000278725680    12.000000000000
         C           -2.553125511955     1.441845125055     0.000097725680    12.000000000000
         H            0.049018488045     2.440019125055     0.000223725680     1.007825032230
         H            0.043531488045    -2.327502874945     0.000093725680     1.007825032230
         H            2.477366488045     2.087038125055     0.893669725680     1.007825032230
         H            2.477222488045     2.087394125055    -0.892923274320     1.007825032230
         H            3.244023488045     0.748349125055     0.000102725680     1.007825032230
         H           -3.141030511955     1.179284525055    -0.883551674320     1.007825032230
         H           -2.422981611955     2.527684025055    -0.016078674320     1.007825032230
         H           -3.140265511955     1.160872125055     0.878577725680     1.007825032230

  Basis Set: AUG-CC-PVTZ
    Blend: AUG-CC-PVTZ
  Basis Set: (AUG-CC-PVTZ AUX)
    Blend: AUG-CC-PVTZ-JKFIT
	 Reference Energy          =    -490.7119177538277199 [Eh]
	 Singles Energy            =      -0.0000000000000000 [Eh]
	 Same-Spin Energy          =      -0.5023686948659389 [Eh]
	 Opposite-Spin Energy      =      -1.5414406094982791 [Eh]
	 Correlation Energy        =      -2.0438093043642178 [Eh]
	 Total Energy              =    -492.7557270581919511 [Eh]

	 ================> DF-SCS-MP2 Energies <==================
	-----------------------------------------------------------
	 SCS Same-Spin Scale       =       0.3333333333333333 [-]
	 SCS Opposite-Spin Scale   =       1.2000000000000000 [-]
	 SCS Same-Spin Energy      =      -0.1674562316219796 [Eh]
	 SCS Opposite-Spin Energy  =      -1.8497287313979349 [Eh]
	 SCS Correlation Energy    =      -2.0171849630199148 [Eh]
	 SCS Total Energy          =    -492.7291027168476489 [Eh]
	-----------------------------------------------------------

  Dipole Moment: [D]
     X:     1.0505      Y:     4.5294      Z:    -0.0093     Total:     4.6496

*** Psi4 exiting successfully. Buy a developer a beer!
