                               Psi4 1.3.2 release

  ==> Input File <==

--------------------------------------------------------------------------
#psi4
#
memory 32 gb

molecule  {
0 1
  O        2.3111590    -1.3984000     0.0000580
  O       -2.2718830    -1.4902890    -0.0001310
  N        1.1826080     0.6255060     0.0000550
  N        0.0153410    -1.3761840    -0.0000340
  C       -1.2346770     0.6647280    -0.0000250
  C       -0.0319280     1.2897490     0.0000350
  C        1.2726773    -0.7601388     0.0000315
  C       -1.2542960    -0.7955090    -0.0000670
  C        2.4310003     1.3833997     0.0001241
  C       -2.5504790     1.3758010    -0.0000570
  H        0.0516650     2.3739750     0.0000690
  H        0.0461780    -2.3935470    -0.0000610
  H        2.4800130     2.0209940     0.8935150
  H        2.4798690     2.0213500    -0.8930780
  H        3.2466700     0.6823050    -0.0000520
  H       -3.1375530     1.0948740    -0.8785960
  H       -2.4103180     2.4605130    -0.0000230
  H       -3.1376190     1.0948280     0.8784230
units angstrom
no_reorient  #important for SAPT in psi4, default
symmetry c1  #important for SAPT in psi4, default
}

set PROPERTIES_ORIGIN ["COM"]
properties('MP2/aug-cc-pvtz', properties = ['dipole'])
--------------------------------------------------------------------------

    Molecular point group: c1
  Charge       = 0
  Multiplicity = 1
  Basis Set: AUG-CC-PVTZ
    Blend: AUG-CC-PVTZ
  Basis Set: (AUG-CC-PVTZ AUX)
    Blend: AUG-CC-PVTZ-JKFIT

    Orbital Energies [Eh]
    ---------------------

    Doubly Occupied:

       1A    -20.543223     2A    -20.537384     3A    -15.637785
       4A    -15.622523     5A    -11.413783     6A    -11.375103
       7A    -11.324817     8A    -11.286134     9A    -11.259363
      10A    -11.236797    11A     -1.427949    12A     -1.387198
      13A     -1.308413    14A     -1.239576    15A     -1.108797
      16A     -0.992897    17A     -0.963357    18A     -0.913120
      19A     -0.850677    20A     -0.770313    21A     -0.732942
      22A     -0.692884    23A     -0.681396    24A     -0.648881
      25A     -0.640968    26A     -0.613377    27A     -0.610309
      28A     -0.590044    29A     -0.584026    30A     -0.556605
      31A     -0.547903    32A     -0.543688    33A     -0.487964
      34A     -0.477581    35A     -0.443603    36A     -0.429995
      37A     -0.345653

  @DF-RHF Final Energy:  -490.71204491147955

   => Energetics <=

    Nuclear Repulsion Energy =            530.3503352576597081
    One-Electron Energy =               -1720.4707029912908638
    Two-Electron Energy =                 699.4083228221516038
    Total Energy =                       -490.7120449114795520
  Basis Set: (AUG-CC-PVTZ AUX)
    Blend: AUG-CC-PVTZ-RI
    Molecular point group: c1

    Geometry (in Angstrom), charge = 0, multiplicity = 1:

       Center              X                  Y                   Z               Mass
    ------------   -----------------  -----------------  -----------------  -----------------
         O            2.306827391774    -1.331347503746     0.000059255351    15.994914619570
         O           -2.276214608226    -1.423236503746    -0.000129744649    15.994914619570
         N            1.178276391774     0.692558496254     0.000056255351    14.003074004430
         N            0.011009391774    -1.309131503746    -0.000032744649    14.003074004430
         C           -1.239008608226     0.731780496254    -0.000023744649    12.000000000000
         C           -0.036259608226     1.356801496254     0.000036255351    12.000000000000
         C            1.268345691774    -0.693086303746     0.000032755351    12.000000000000
         C           -1.258627608226    -0.728456503746    -0.000065744649    12.000000000000
         C            2.426668691774     1.450452196254     0.000125355351    12.000000000000
         C           -2.554810608226     1.442853496254    -0.000055744649    12.000000000000
         H            0.047333391774     2.441027496254     0.000070255351     1.007825032230
         H            0.041846391774    -2.326494503746    -0.000059744649     1.007825032230
         H            2.475681391774     2.088046496254     0.893516255351     1.007825032230
         H            2.475537391774     2.088402496254    -0.893076744649     1.007825032230
         H            3.242338391774     0.749357496254    -0.000050744649     1.007825032230
         H           -3.141884608226     1.161926496254    -0.878594744649     1.007825032230
         H           -2.414649608226     2.527565496254    -0.000021744649     1.007825032230
         H           -3.141950608226     1.161880496254     0.878424255351     1.007825032230

  Basis Set: AUG-CC-PVTZ
    Blend: AUG-CC-PVTZ
  Basis Set: (AUG-CC-PVTZ AUX)
    Blend: AUG-CC-PVTZ-JKFIT
	 Reference Energy          =    -490.7120449114795520 [Eh]
	 Singles Energy            =      -0.0000000000000000 [Eh]
	 Same-Spin Energy          =      -0.5022200252980580 [Eh]
	 Opposite-Spin Energy      =      -1.5412203518480649 [Eh]
	 Correlation Energy        =      -2.0434403771461227 [Eh]
	 Total Energy              =    -492.7554852886256640 [Eh]

	 ================> DF-SCS-MP2 Energies <==================
	-----------------------------------------------------------
	 SCS Same-Spin Scale       =       0.3333333333333333 [-]
	 SCS Opposite-Spin Scale   =       1.2000000000000000 [-]
	 SCS Same-Spin Energy      =      -0.1674066750993526 [Eh]
	 SCS Opposite-Spin Energy  =      -1.8494644222176779 [Eh]
	 SCS Correlation Energy    =      -2.0168710973170305 [Eh]
	 SCS Total Energy          =    -492.7289160087966025 [Eh]
	-----------------------------------------------------------

  Dipole Moment: [D]
     X:     1.1506      Y:     4.5016      Z:     0.0002     Total:     4.6463

*** Psi4 exiting successfully. Buy a developer a beer!
