                               Psi4 1.3.2 release

  ==> Input File <==

--------------------------------------------------------------------------
#psi4
#
memory 32 gb

molecule  {
0 1
  O        2.3111590    -1.3984000     0.0000580
  O       -2.2718830    -1.4902890    -0.0001310
  N        1.1940157     0.6468037     0.0000560
  N        0.0153410    -1.3761840    -0.0000340
  C       -1.2346770     0.6647280    -0.0000250
  C       -0.0319280     1.2897490     0.0000350
  C        1.2605820    -0.7608720     0.0000310
  C       -1.2542960    -0.7955090    -0.0000670
  C        2.4243390     1.3942650     0.0001240
  C       -2.5504790     1.3758010    -0.0000570
  H        0.0705746     2.3723510     0.0000696
  H        0.0461780    -2.3935470    -0.0000610
  H        2.4800130     2.0209940     0.8935150
  H        2.4798690     2.0213500    -0.8930780
  H        3.2466700     0.6823050    -0.0000520
  H       -3.1375530     1.0948740    -0.8785960
  H       -2.4103180     2.4605130    -0.0000230
  H       -3.1376190     1.0948280     0.8784230
units angstrom
no_reorient  #important for SAPT in psi4, default
symmetry c1  #important for SAPT in psi4, default
}

set PROPERTIES_ORIGIN ["COM"]
properties('MP2/aug-cc-pvtz', properties = ['dipole'])
--------------------------------------------------------------------------

    Molecular point group: c1
  Charge       = 0
  Multiplicity = 1
  Basis Set: AUG-CC-PVTZ
    Blend: AUG-CC-PVTZ
  Basis Set: (AUG-CC-PVTZ AUX)
    Blend: AUG-CC-PVTZ-JKFIT

    Orbital Energies [Eh]
    ---------------------

    Doubly Occupied:

       1A    -20.543118     2A    -20.539053     3A    -15.637788
       4A    -15.626327     5A    -11.416389     6A    -11.376695
       7A    -11.325051     8A    -11.283798     9A    -11.259377
      10A    -11.236904    11A     -1.423967    12A     -1.387599
      13A     -1.306743    14A     -1.245094    15A     -1.108909
      16A     -0.994317    17A     -0.960308    18A     -0.913883
      19A     -0.853456    20A     -0.769432    21A     -0.736026
      22A     -0.691768    23A     -0.682079    24A     -0.653305
      25A     -0.638046    26A     -0.616669    27A     -0.611900
      28A     -0.587196    29A     -0.583898    30A     -0.554538
      31A     -0.548481    32A     -0.542769    33A     -0.487236
      34A     -0.475958    35A     -0.445118    36A     -0.431506
      37A     -0.344930

  @DF-RHF Final Energy:  -490.71064001972564

   => Energetics <=

    Nuclear Repulsion Energy =            530.0799598895239342
    One-Electron Energy =               -1719.9019440235272214
    Two-Electron Energy =                 699.1113441142776992
    Total Energy =                       -490.7106400197255880
  Basis Set: (AUG-CC-PVTZ AUX)
    Blend: AUG-CC-PVTZ-RI
    Molecular point group: c1

    Geometry (in Angstrom), charge = 0, multiplicity = 1:

       Center              X                  Y                   Z               Mass
    ------------   -----------------  -----------------  -----------------  -----------------
         O            2.307157816124    -1.334333267052     0.000059202461    15.994914619570
         O           -2.275884183876    -1.426222267052    -0.000129797539    15.994914619570
         N            1.190014516124     0.710870432948     0.000057202461    14.003074004430
         N            0.011339816124    -1.312117267052    -0.000032797539    14.003074004430
         C           -1.238678183876     0.728794732948    -0.000023797539    12.000000000000
         C           -0.035929183876     1.353815732948     0.000036202461    12.000000000000
         C            1.256580816124    -0.696805267052     0.000032202461    12.000000000000
         C           -1.258297183876    -0.731442267052    -0.000065797539    12.000000000000
         C            2.420337816124     1.458331732948     0.000125202461    12.000000000000
         C           -2.554480183876     1.439867732948    -0.000055797539    12.000000000000
         H            0.066573416124     2.436417732948     0.000070802461     1.007825032230
         H            0.042176816124    -2.329480267052    -0.000059797539     1.007825032230
         H            2.476011816124     2.085060732948     0.893516202461     1.007825032230
         H            2.475867816124     2.085416732948    -0.893076797539     1.007825032230
         H            3.242668816124     0.746371732948    -0.000050797539     1.007825032230
         H           -3.141554183876     1.158940732948    -0.878594797539     1.007825032230
         H           -2.414319183876     2.524579732948    -0.000021797539     1.007825032230
         H           -3.141620183876     1.158894732948     0.878424202461     1.007825032230

  Basis Set: AUG-CC-PVTZ
    Blend: AUG-CC-PVTZ
  Basis Set: (AUG-CC-PVTZ AUX)
    Blend: AUG-CC-PVTZ-JKFIT
	 Reference Energy          =    -490.7106400197256448 [Eh]
	 Singles Energy            =      -0.0000000000000000 [Eh]
	 Same-Spin Energy          =      -0.5025572689211759 [Eh]
	 Opposite-Spin Energy      =      -1.5417554960501751 [Eh]
	 Correlation Energy        =      -2.0443127649713508 [Eh]
	 Total Energy              =    -492.7549527846969681 [Eh]

	 ================> DF-SCS-MP2 Energies <==================
	-----------------------------------------------------------
	 SCS Same-Spin Scale       =       0.3333333333333333 [-]
	 SCS Opposite-Spin Scale   =       1.2000000000000000 [-]
	 SCS Same-Spin Energy      =      -0.1675190896403920 [Eh]
	 SCS Opposite-Spin Energy  =      -1.8501065952602100 [Eh]
	 SCS Correlation Energy    =      -2.0176256849006018 [Eh]
	 SCS Total Energy          =    -492.7282657046262671 [Eh]
	-----------------------------------------------------------

  Dipole Moment: [D]
     X:     1.0687      Y:     4.4102      Z:     0.0002     Total:     4.5378

*** Psi4 exiting successfully. Buy a developer a beer!
