                               Psi4 1.3.2 release

  ==> Input File <==

--------------------------------------------------------------------------
#psi4
#
memory 32 gb

molecule  {
0 1
  O        2.3111590    -1.3984000     0.0000580
  O       -2.2718830    -1.4902890    -0.0001310
  N        1.1826080     0.6255060     0.0000550
  N        0.0153410    -1.3761840    -0.0000340
  C       -1.2346770     0.6647280    -0.0000250
  C       -0.0319280     1.2897490     0.0000350
  C        1.2363745    -0.7620217     0.0000299
  C       -1.2542960    -0.7955090    -0.0000670
  C        2.4107332     1.4158191     0.0001238
  C       -2.5504790     1.3758010    -0.0000570
  H        0.0516650     2.3739750     0.0000690
  H        0.0461780    -2.3935470    -0.0000610
  H        2.4800130     2.0209940     0.8935150
  H        2.4798690     2.0213500    -0.8930780
  H        3.2466700     0.6823050    -0.0000520
  H       -3.1375530     1.0948740    -0.8785960
  H       -2.4103180     2.4605130    -0.0000230
  H       -3.1376190     1.0948280     0.8784230
units angstrom
no_reorient  #important for SAPT in psi4, default
symmetry c1  #important for SAPT in psi4, default
}

set PROPERTIES_ORIGIN ["COM"]
properties('MP2/aug-cc-pvtz', properties = ['dipole'])
--------------------------------------------------------------------------

    Molecular point group: c1
  Charge       = 0
  Multiplicity = 1
  Basis Set: AUG-CC-PVTZ
    Blend: AUG-CC-PVTZ
  Basis Set: (AUG-CC-PVTZ AUX)
    Blend: AUG-CC-PVTZ-JKFIT

    Orbital Energies [Eh]
    ---------------------

    Doubly Occupied:

       1A    -20.540906     2A    -20.535110     3A    -15.639101
       4A    -15.628693     5A    -11.413548     6A    -11.378430
       7A    -11.325252     8A    -11.285822     9A    -11.260276
      10A    -11.237827    11A     -1.419060    12A     -1.385493
      13A     -1.302665    14A     -1.249509    15A     -1.109492
      16A     -0.993901    17A     -0.964771    18A     -0.916667
      19A     -0.857076    20A     -0.771544    21A     -0.739047
      22A     -0.691566    23A     -0.684123    24A     -0.651651
      25A     -0.630289    26A     -0.620422    27A     -0.609893
      28A     -0.585640    29A     -0.584238    30A     -0.552985
      31A     -0.547383    32A     -0.542430    33A     -0.488033
      34A     -0.470726    35A     -0.445397    36A     -0.431189
      37A     -0.346435

  @DF-RHF Final Energy:  -490.70928747053205

   => Energetics <=

    Nuclear Repulsion Energy =            530.4513213096228128
    One-Electron Energy =               -1720.6480355075923399
    Two-Electron Energy =                 699.4874267274374233
    Total Energy =                       -490.7092874705319900
  Basis Set: (AUG-CC-PVTZ AUX)
    Blend: AUG-CC-PVTZ-RI
    Molecular point group: c1

    Geometry (in Angstrom), charge = 0, multiplicity = 1:

       Center              X                  Y                   Z               Mass
    ------------   -----------------  -----------------  -----------------  -----------------
         O            2.311674212383    -1.333963823335     0.000059418140    15.994914619570
         O           -2.271367787617    -1.425852823335    -0.000129581860    15.994914619570
         N            1.183123212383     0.689942176665     0.000056418140    14.003074004430
         N            0.015856212383    -1.311747823335    -0.000032581860    14.003074004430
         C           -1.234161787617     0.729164176665    -0.000023581860    12.000000000000
         C           -0.031412787617     1.354185176665     0.000036418140    12.000000000000
         C            1.236889712383    -0.697585523335     0.000031318140    12.000000000000
         C           -1.253780787617    -0.731072823335    -0.000065581860    12.000000000000
         C            2.411248412383     1.480255276665     0.000125218140    12.000000000000
         C           -2.549963787617     1.440237176665    -0.000055581860    12.000000000000
         H            0.052180212383     2.438411176665     0.000070418140     1.007825032230
         H            0.046693212383    -2.329110823335    -0.000059581860     1.007825032230
         H            2.480528212383     2.085430176665     0.893516418140     1.007825032230
         H            2.480384212383     2.085786176665    -0.893076581860     1.007825032230
         H            3.247185212383     0.746741176665    -0.000050581860     1.007825032230
         H           -3.137037787617     1.159310176665    -0.878594581860     1.007825032230
         H           -2.409802787617     2.524949176665    -0.000021581860     1.007825032230
         H           -3.137103787617     1.159264176665     0.878424418140     1.007825032230

  Basis Set: AUG-CC-PVTZ
    Blend: AUG-CC-PVTZ
  Basis Set: (AUG-CC-PVTZ AUX)
    Blend: AUG-CC-PVTZ-JKFIT
	 Reference Energy          =    -490.7092874705320469 [Eh]
	 Singles Energy            =      -0.0000000000000000 [Eh]
	 Same-Spin Energy          =      -0.5027687147910551 [Eh]
	 Opposite-Spin Energy      =      -1.5420630277430911 [Eh]
	 Correlation Energy        =      -2.0448317425341465 [Eh]
	 Total Energy              =    -492.7541192130661898 [Eh]

	 ================> DF-SCS-MP2 Energies <==================
	-----------------------------------------------------------
	 SCS Same-Spin Scale       =       0.3333333333333333 [-]
	 SCS Opposite-Spin Scale   =       1.2000000000000000 [-]
	 SCS Same-Spin Energy      =      -0.1675895715970184 [Eh]
	 SCS Opposite-Spin Energy  =      -1.8504756332917092 [Eh]
	 SCS Correlation Energy    =      -2.0180652048887273 [Eh]
	 SCS Total Energy          =    -492.7273526754207751 [Eh]
	-----------------------------------------------------------

  Dipole Moment: [D]
     X:     0.8432      Y:     4.5636      Z:     0.0002     Total:     4.6408

*** Psi4 exiting successfully. Buy a developer a beer!
