                               Psi4 1.3.2 release

  ==> Input File <==

--------------------------------------------------------------------------
#psi4
#
memory 32 gb

molecule  {
0 1
  O        2.3111590    -1.3984000     0.0000580
  O       -2.2718830    -1.4902890    -0.0001310
  N        1.1826080     0.6255060     0.0000550
  N        0.0153410    -1.3761840    -0.0000340
  C       -1.2346770     0.6647280    -0.0000250
  C       -0.0319280     1.2897490     0.0000350
  C        1.2605820    -0.7608720     0.0000310
  C       -1.2542960    -0.7955090    -0.0000670
  C        2.4243390     1.3942650     0.0001240
  C       -2.5504790     1.3758010    -0.0000570
  H        0.0516650     2.3739750     0.0000690
  H        0.0461780    -2.3935470    -0.0000610
  H        2.4800130     2.0209940     0.8935150
  H        2.4900322     2.1361206    -1.0565540
  H        3.2466700     0.6823050    -0.0000520
  H       -3.1375530     1.0948740    -0.8785960
  H       -2.4103180     2.4605130    -0.0000230
  H       -3.1376190     1.0948280     0.8784230
units angstrom
no_reorient  #important for SAPT in psi4, default
symmetry c1  #important for SAPT in psi4, default
}

set PROPERTIES_ORIGIN ["COM"]
properties('MP2/aug-cc-pvtz', properties = ['dipole'])
--------------------------------------------------------------------------

    Molecular point group: c1
  Charge       = 0
  Multiplicity = 1
  Basis Set: AUG-CC-PVTZ
    Blend: AUG-CC-PVTZ
  Basis Set: (AUG-CC-PVTZ AUX)
    Blend: AUG-CC-PVTZ-JKFIT

    Orbital Energies [Eh]
    ---------------------

    Doubly Occupied:

       1A    -20.542039     2A    -20.539689     3A    -15.641001
       4A    -15.625796     5A    -11.415437     6A    -11.377250
       7A    -11.325391     8A    -11.308082     9A    -11.260802
      10A    -11.237741    11A     -1.425571    12A     -1.388126
      13A     -1.308098    14A     -1.243941    15A     -1.109592
      16A     -0.985189    17A     -0.962740    18A     -0.915255
      19A     -0.850487    20A     -0.771551    21A     -0.734260
      22A     -0.692875    23A     -0.678040    24A     -0.649097
      25A     -0.638939    26A     -0.611032    27A     -0.608029
      28A     -0.586606    29A     -0.574488    30A     -0.555140
      31A     -0.548844    32A     -0.538317    33A     -0.481193
      34A     -0.476699    35A     -0.445461    36A     -0.431542
      37A     -0.346580

  @DF-RHF Final Energy:  -490.69189397491090

   => Energetics <=

    Nuclear Repulsion Energy =            529.5352639771994063
    One-Electron Energy =               -1718.7924726077685591
    Two-Electron Energy =                 698.5653146556581987
    Total Energy =                       -490.6918939749108404
  Basis Set: (AUG-CC-PVTZ AUX)
    Blend: AUG-CC-PVTZ-RI
    Molecular point group: c1

    Geometry (in Angstrom), charge = 0, multiplicity = 1:

       Center              X                  Y                   Z               Mass
    ------------   -----------------  -----------------  -----------------  -----------------
         O            2.308361296205    -1.333041465571     0.001235637461    15.994914619570
         O           -2.274680703795    -1.424930465571     0.001046637461    15.994914619570
         N            1.179810296205     0.690864534429     0.001232637461    14.003074004430
         N            0.012543296205    -1.310825465571     0.001143637461    14.003074004430
         C           -1.237474703795     0.730086534429     0.001152637461    12.000000000000
         C           -0.034725703795     1.355107534429     0.001212637461    12.000000000000
         C            1.257784296205    -0.695513465571     0.001208637461    12.000000000000
         C           -1.257093703795    -0.730150465571     0.001110637461    12.000000000000
         C            2.421541296205     1.459623534429     0.001301637461    12.000000000000
         C           -2.553276703795     1.441159534429     0.001120637461    12.000000000000
         H            0.048867296205     2.439333534429     0.001246637461     1.007825032230
         H            0.043380296205    -2.328188465571     0.001116637461     1.007825032230
         H            2.477215296205     2.086352534429     0.894692637461     1.007825032230
         H            2.487234496205     2.201479134429    -1.055376362539     1.007825032230
         H            3.243872296205     0.747663534429     0.001125637461     1.007825032230
         H           -3.140350703795     1.160232534429    -0.877418362539     1.007825032230
         H           -2.413115703795     2.525871534429     0.001154637461     1.007825032230
         H           -3.140416703795     1.160186534429     0.879600637461     1.007825032230

  Basis Set: AUG-CC-PVTZ
    Blend: AUG-CC-PVTZ
  Basis Set: (AUG-CC-PVTZ AUX)
    Blend: AUG-CC-PVTZ-JKFIT
	 Reference Energy          =    -490.6918939749108972 [Eh]
	 Singles Energy            =      -0.0000000000000000 [Eh]
	 Same-Spin Energy          =      -0.5024177524478776 [Eh]
	 Opposite-Spin Energy      =      -1.5430364297538306 [Eh]
	 Correlation Energy        =      -2.0454541822017083 [Eh]
	 Total Energy              =    -492.7373481571125922 [Eh]

	 ================> DF-SCS-MP2 Energies <==================
	-----------------------------------------------------------
	 SCS Same-Spin Scale       =       0.3333333333333333 [-]
	 SCS Opposite-Spin Scale   =       1.2000000000000000 [-]
	 SCS Same-Spin Energy      =      -0.1674725841492925 [Eh]
	 SCS Opposite-Spin Energy  =      -1.8516437157045966 [Eh]
	 SCS Correlation Energy    =      -2.0191162998538892 [Eh]
	 SCS Total Energy          =    -492.7110102747647602 [Eh]
	-----------------------------------------------------------

  Dipole Moment: [D]
     X:     0.9460      Y:     4.4044      Z:     0.0848     Total:     4.5056

*** Psi4 exiting successfully. Buy a developer a beer!
