                               Psi4 1.3.2 release

  ==> Input File <==

--------------------------------------------------------------------------
#psi4
#
memory 32 gb

molecule  {
0 1
  O        2.3111590    -1.3984000     0.0000580
  O       -2.2718830    -1.4902890    -0.0001310
  N        1.1826080     0.6255060     0.0000550
  N        0.0153410    -1.3761840    -0.0000340
  C       -1.2346770     0.6647280    -0.0000250
  C       -0.0319280     1.2897490     0.0000350
  C        1.2605820    -0.7608720     0.0000310
  C       -1.2542960    -0.7955090    -0.0000670
  C        2.4243390     1.3942650     0.0001240
  C       -2.5504790     1.3758010    -0.0000570
  H        0.0516650     2.3739750     0.0000690
  H        0.0461780    -2.3935470    -0.0000610
  H        2.4800130     2.0209940     0.8935150
  H        2.4485171     2.0396468    -0.8813672
  H        3.2338455     0.6684965     0.0329071
  H       -3.1375530     1.0948740    -0.8785960
  H       -2.4103180     2.4605130    -0.0000230
  H       -3.1376190     1.0948280     0.8784230
units angstrom
no_reorient  #important for SAPT in psi4, default
symmetry c1  #important for SAPT in psi4, default
}

set PROPERTIES_ORIGIN ["COM"]
properties('MP2/aug-cc-pvtz', properties = ['dipole'])
--------------------------------------------------------------------------

    Molecular point group: c1
  Charge       = 0
  Multiplicity = 1
  Basis Set: AUG-CC-PVTZ
    Blend: AUG-CC-PVTZ
  Basis Set: (AUG-CC-PVTZ AUX)
    Blend: AUG-CC-PVTZ-JKFIT

    Orbital Energies [Eh]
    ---------------------

    Doubly Occupied:

       1A    -20.540669     2A    -20.538563     3A    -15.637715
       4A    -15.624635     5A    -11.413745     6A    -11.376234
       7A    -11.324865     8A    -11.286080     9A    -11.259670
      10A    -11.237148    11A     -1.424243    12A     -1.387062
      13A     -1.306841    14A     -1.242996    15A     -1.109069
      16A     -0.993269    17A     -0.963931    18A     -0.914338
      19A     -0.852349    20A     -0.771049    21A     -0.734636
      22A     -0.692150    23A     -0.681936    24A     -0.648851
      25A     -0.638023    26A     -0.615545    27A     -0.609361
      28A     -0.591724    29A     -0.583828    30A     -0.555791
      31A     -0.548042    32A     -0.542929    33A     -0.487382
      34A     -0.475380    35A     -0.444379    36A     -0.430672
      37A     -0.345767

  @DF-RHF Final Energy:  -490.71144944888522

   => Energetics <=

    Nuclear Repulsion Energy =            530.4610498302681663
    One-Electron Energy =               -1720.6832653754472631
    Two-Electron Energy =                 699.5107660962938780
    Total Energy =                       -490.7114494488852188
  Basis Set: (AUG-CC-PVTZ AUX)
    Blend: AUG-CC-PVTZ-RI
    Molecular point group: c1

    Geometry (in Angstrom), charge = 0, multiplicity = 1:

       Center              X                  Y                   Z               Mass
    ------------   -----------------  -----------------  -----------------  -----------------
         O            2.308752309808    -1.332247902874    -0.000262126204    15.994914619570
         O           -2.274289690192    -1.424136902874    -0.000451126204    15.994914619570
         N            1.180201309808     0.691658097126    -0.000265126204    14.003074004430
         N            0.012934309808    -1.310031902874    -0.000354126204    14.003074004430
         C           -1.237083690192     0.730880097126    -0.000345126204    12.000000000000
         C           -0.034334690192     1.355901097126    -0.000285126204    12.000000000000
         C            1.258175309808    -0.694719902874    -0.000289126204    12.000000000000
         C           -1.256702690192    -0.729356902874    -0.000387126204    12.000000000000
         C            2.421932309808     1.460417097126    -0.000196126204    12.000000000000
         C           -2.552885690192     1.441953097126    -0.000377126204    12.000000000000
         H            0.049258309808     2.440127097126    -0.000251126204     1.007825032230
         H            0.043771309808    -2.327394902874    -0.000381126204     1.007825032230
         H            2.477606309808     2.087146097126     0.893194873796     1.007825032230
         H            2.446110409808     2.105798897126    -0.881687326204     1.007825032230
         H            3.231438809808     0.734648597126     0.032586973796     1.007825032230
         H           -3.139959690192     1.161026097126    -0.878916126204     1.007825032230
         H           -2.412724690192     2.526665097126    -0.000343126204     1.007825032230
         H           -3.140025690192     1.160980097126     0.878102873796     1.007825032230

  Basis Set: AUG-CC-PVTZ
    Blend: AUG-CC-PVTZ
  Basis Set: (AUG-CC-PVTZ AUX)
    Blend: AUG-CC-PVTZ-JKFIT
	 Reference Energy          =    -490.7114494488852188 [Eh]
	 Singles Energy            =      -0.0000000000000000 [Eh]
	 Same-Spin Energy          =      -0.5024493700162109 [Eh]
	 Opposite-Spin Energy      =      -1.5415388083966650 [Eh]
	 Correlation Energy        =      -2.0439881784128762 [Eh]
	 Total Energy              =    -492.7554376272980790 [Eh]

	 ================> DF-SCS-MP2 Energies <==================
	-----------------------------------------------------------
	 SCS Same-Spin Scale       =       0.3333333333333333 [-]
	 SCS Opposite-Spin Scale   =       1.2000000000000000 [-]
	 SCS Same-Spin Energy      =      -0.1674831233387370 [Eh]
	 SCS Opposite-Spin Energy  =      -1.8498465700759978 [Eh]
	 SCS Correlation Energy    =      -2.0173296934147347 [Eh]
	 SCS Total Energy          =    -492.7287791422999703 [Eh]
	-----------------------------------------------------------

  Dipole Moment: [D]
     X:     1.0296      Y:     4.5261      Z:     0.0221     Total:     4.6418

*** Psi4 exiting successfully. Buy a developer a beer!
