                               Psi4 1.3.2 release

  ==> Input File <==

--------------------------------------------------------------------------
#psi4
#
memory 32 gb

molecule  {
0 1
  O        2.3111590    -1.3984000     0.0000580
  O       -2.2718830    -1.4902890    -0.0001310
  N        1.1826080     0.6255060     0.0000550
  N        0.0153410    -1.3761840    -0.0000340
  C       -1.2346770     0.6647280    -0.0000250
  C        0.0558078     1.2417653     0.0000364
  C        1.2605820    -0.7608720     0.0000310
  C       -1.2542960    -0.7955090    -0.0000670
  C        2.4243390     1.3942650     0.0001240
  C       -2.5504790     1.3758010    -0.0000570
  H        0.0516650     2.3739750     0.0000690
  H        0.0461780    -2.3935470    -0.0000610
  H        2.4800130     2.0209940     0.8935150
  H        2.4798690     2.0213500    -0.8930780
  H        3.2466700     0.6823050    -0.0000520
  H       -3.1375530     1.0948740    -0.8785960
  H       -2.4103180     2.4605130    -0.0000230
  H       -3.1376190     1.0948280     0.8784230
units angstrom
no_reorient  #important for SAPT in psi4, default
symmetry c1  #important for SAPT in psi4, default
}

set PROPERTIES_ORIGIN ["COM"]
properties('MP2/aug-cc-pvtz', properties = ['dipole'])
--------------------------------------------------------------------------

    Molecular point group: c1
  Charge       = 0
  Multiplicity = 1
  Basis Set: AUG-CC-PVTZ
    Blend: AUG-CC-PVTZ
  Basis Set: (AUG-CC-PVTZ AUX)
    Blend: AUG-CC-PVTZ-JKFIT

    Orbital Energies [Eh]
    ---------------------

    Doubly Occupied:

       1A    -20.547364     2A    -20.528436     3A    -15.649631
       4A    -15.625453     5A    -11.420172     6A    -11.367029
       7A    -11.330880     8A    -11.294139     9A    -11.254453
      10A    -11.233590    11A     -1.434250    12A     -1.380762
      13A     -1.337150    14A     -1.247605    15A     -1.093663
      16A     -1.006306    17A     -0.968924    18A     -0.915942
      19A     -0.855177    20A     -0.773916    21A     -0.735716
      22A     -0.696359    23A     -0.692197    24A     -0.656647
      25A     -0.633614    26A     -0.617716    27A     -0.597870
      28A     -0.591050    29A     -0.581032    30A     -0.561094
      31A     -0.542234    32A     -0.541003    33A     -0.504531
      34A     -0.477139    35A     -0.436630    36A     -0.429872
      37A     -0.329139

  @DF-RHF Final Energy:  -490.69689102308382

   => Energetics <=

    Nuclear Repulsion Energy =            531.5389997958640151
    One-Electron Energy =               -1722.6944125685558902
    Two-Electron Energy =                 700.4585217496079395
    Total Energy =                       -490.6968910230838219
  Basis Set: (AUG-CC-PVTZ AUX)
    Blend: AUG-CC-PVTZ-RI
    Molecular point group: c1

    Geometry (in Angstrom), charge = 0, multiplicity = 1:

       Center              X                  Y                   Z               Mass
    ------------   -----------------  -----------------  -----------------  -----------------
         O            2.300917361737    -1.328104437822     0.000059186808    15.994914619570
         O           -2.282124638263    -1.419993437822    -0.000129813192    15.994914619570
         N            1.172366361737     0.695801562178     0.000056186808    14.003074004430
         N            0.005099361737    -1.305888437822    -0.000032813192    14.003074004430
         C           -1.244918638263     0.735023562178    -0.000023813192    12.000000000000
         C            0.045566161737     1.312060862178     0.000037586808    12.000000000000
         C            1.250340361737    -0.690576437822     0.000032186808    12.000000000000
         C           -1.264537638263    -0.725213437822    -0.000065813192    12.000000000000
         C            2.414097361737     1.464560562178     0.000125186808    12.000000000000
         C           -2.560720638263     1.446096562178    -0.000055813192    12.000000000000
         H            0.041423361737     2.444270562178     0.000070186808     1.007825032230
         H            0.035936361737    -2.323251437822    -0.000059813192     1.007825032230
         H            2.469771361737     2.091289562178     0.893516186808     1.007825032230
         H            2.469627361737     2.091645562178    -0.893076813192     1.007825032230
         H            3.236428361737     0.752600562178    -0.000050813192     1.007825032230
         H           -3.147794638263     1.165169562178    -0.878594813192     1.007825032230
         H           -2.420559638263     2.530808562178    -0.000021813192     1.007825032230
         H           -3.147860638263     1.165123562178     0.878424186808     1.007825032230

  Basis Set: AUG-CC-PVTZ
    Blend: AUG-CC-PVTZ
  Basis Set: (AUG-CC-PVTZ AUX)
    Blend: AUG-CC-PVTZ-JKFIT
	 Reference Energy          =    -490.6968910230838219 [Eh]
	 Singles Energy            =      -0.0000000000000000 [Eh]
	 Same-Spin Energy          =      -0.5041483282309179 [Eh]
	 Opposite-Spin Energy      =      -1.5428133427022190 [Eh]
	 Correlation Energy        =      -2.0469616709331371 [Eh]
	 Total Energy              =    -492.7438526940169368 [Eh]

	 ================> DF-SCS-MP2 Energies <==================
	-----------------------------------------------------------
	 SCS Same-Spin Scale       =       0.3333333333333333 [-]
	 SCS Opposite-Spin Scale   =       1.2000000000000000 [-]
	 SCS Same-Spin Energy      =      -0.1680494427436393 [Eh]
	 SCS Opposite-Spin Energy  =      -1.8513760112426627 [Eh]
	 SCS Correlation Energy    =      -2.0194254539863019 [Eh]
	 SCS Total Energy          =    -492.7163164770701087 [Eh]
	-----------------------------------------------------------

  Dipole Moment: [D]
     X:     1.6372      Y:     4.5323      Z:     0.0002     Total:     4.8189

*** Psi4 exiting successfully. Buy a developer a beer!
