                               Psi4 1.3.2 release

  ==> Input File <==

--------------------------------------------------------------------------
#psi4
#
memory 32 gb

molecule  {
0 1
  O        2.3111590    -1.3984000     0.0000580
  O       -2.2718830    -1.4902890    -0.0001310
  N        1.1826080     0.6255060     0.0000550
  N        0.0153410    -1.3761840    -0.0000340
  C       -1.2346770     0.6647280    -0.0000250
  C       -0.0319280     1.2897490     0.0000350
  C        1.2496537    -0.7392333     0.0000312
  C       -1.2439685    -0.7734392    -0.0000660
  C        2.4243390     1.3942650     0.0001240
  C       -2.5504790     1.3758010    -0.0000570
  H        0.0516650     2.3739750     0.0000690
  H        0.0461780    -2.3935470    -0.0000610
  H        2.4800130     2.0209940     0.8935150
  H        2.4798690     2.0213500    -0.8930780
  H        3.2466700     0.6823050    -0.0000520
  H       -3.1375530     1.0948740    -0.8785960
  H       -2.4103180     2.4605130    -0.0000230
  H       -3.1376190     1.0948280     0.8784230
units angstrom
no_reorient  #important for SAPT in psi4, default
symmetry c1  #important for SAPT in psi4, default
}

set PROPERTIES_ORIGIN ["COM"]
properties('MP2/aug-cc-pvtz', properties = ['dipole'])
--------------------------------------------------------------------------

    Molecular point group: c1
  Charge       = 0
  Multiplicity = 1
  Basis Set: AUG-CC-PVTZ
    Blend: AUG-CC-PVTZ
  Basis Set: (AUG-CC-PVTZ AUX)
    Blend: AUG-CC-PVTZ-JKFIT

    Orbital Energies [Eh]
    ---------------------

    Doubly Occupied:

       1A    -20.535164     2A    -20.534964     3A    -15.643921
       4A    -15.626635     5A    -11.413008     6A    -11.376304
       7A    -11.329793     8A    -11.289037     9A    -11.262496
      10A    -11.239329    11A     -1.417736    12A     -1.372924
      13A     -1.307334    14A     -1.242019    15A     -1.115125
      16A     -0.997670    17A     -0.969158    18A     -0.920637
      19A     -0.852489    20A     -0.775316    21A     -0.739898
      22A     -0.693605    23A     -0.685771    24A     -0.647669
      25A     -0.630661    26A     -0.615883    27A     -0.607108
      28A     -0.591570    29A     -0.584127    30A     -0.557935
      31A     -0.549575    32A     -0.537647    33A     -0.488623
      34A     -0.471276    35A     -0.441796    36A     -0.425943
      37A     -0.350048

  @DF-RHF Final Energy:  -490.70721071719657

   => Energetics <=

    Nuclear Repulsion Energy =            530.6645009112568232
    One-Electron Energy =               -1721.0630371047768676
    Two-Electron Energy =                 699.6913254763236409
    Total Energy =                       -490.7072107171965172
  Basis Set: (AUG-CC-PVTZ AUX)
    Blend: AUG-CC-PVTZ-RI
    Molecular point group: c1

    Geometry (in Angstrom), charge = 0, multiplicity = 1:

       Center              X                  Y                   Z               Mass
    ------------   -----------------  -----------------  -----------------  -----------------
         O            2.308485903549    -1.335960482198     0.000059203944    15.994914619570
         O           -2.274556096451    -1.427849482198    -0.000129796056    15.994914619570
         N            1.179934903549     0.687945517802     0.000056203944    14.003074004430
         N            0.012667903549    -1.313744482198    -0.000032796056    14.003074004430
         C           -1.237350096451     0.727167517802    -0.000023796056    12.000000000000
         C           -0.034601096451     1.352188517802     0.000036203944    12.000000000000
         C            1.246980603549    -0.676793782198     0.000032403944    12.000000000000
         C           -1.246641596451    -0.710999682198    -0.000064796056    12.000000000000
         C            2.421665903549     1.456704517802     0.000125203944    12.000000000000
         C           -2.553152096451     1.438240517802    -0.000055796056    12.000000000000
         H            0.048991903549     2.436414517802     0.000070203944     1.007825032230
         H            0.043504903549    -2.331107482198    -0.000059796056     1.007825032230
         H            2.477339903549     2.083433517802     0.893516203944     1.007825032230
         H            2.477195903549     2.083789517802    -0.893076796056     1.007825032230
         H            3.243996903549     0.744744517802    -0.000050796056     1.007825032230
         H           -3.140226096451     1.157313517802    -0.878594796056     1.007825032230
         H           -2.412991096451     2.522952517802    -0.000021796056     1.007825032230
         H           -3.140292096451     1.157267517802     0.878424203944     1.007825032230

  Basis Set: AUG-CC-PVTZ
    Blend: AUG-CC-PVTZ
  Basis Set: (AUG-CC-PVTZ AUX)
    Blend: AUG-CC-PVTZ-JKFIT
	 Reference Energy          =    -490.7072107171965740 [Eh]
	 Singles Energy            =      -0.0000000000000000 [Eh]
	 Same-Spin Energy          =      -0.5033025431910819 [Eh]
	 Opposite-Spin Energy      =      -1.5430770589987628 [Eh]
	 Correlation Energy        =      -2.0463796021898446 [Eh]
	 Total Energy              =    -492.7535903193864328 [Eh]

	 ================> DF-SCS-MP2 Energies <==================
	-----------------------------------------------------------
	 SCS Same-Spin Scale       =       0.3333333333333333 [-]
	 SCS Opposite-Spin Scale   =       1.2000000000000000 [-]
	 SCS Same-Spin Energy      =      -0.1677675143970273 [Eh]
	 SCS Opposite-Spin Energy  =      -1.8516924707985152 [Eh]
	 SCS Correlation Energy    =      -2.0194599851955424 [Eh]
	 SCS Total Energy          =    -492.7266707023921413 [Eh]
	-----------------------------------------------------------

  Dipole Moment: [D]
     X:     1.0174      Y:     4.8442      Z:     0.0002     Total:     4.9499

*** Psi4 exiting successfully. Buy a developer a beer!
