                               Psi4 1.3.2 release

  ==> Input File <==

--------------------------------------------------------------------------
#psi4
#
memory 32 gb

molecule  {
0 1
  O        2.3327684    -1.3613470     0.0000595
  O       -2.2718830    -1.4902890    -0.0001310
  N        1.2310394     0.6273827     0.0000569
  N        0.0153410    -1.3761840    -0.0000340
  C       -1.2346770     0.6647280    -0.0000250
  C       -0.0319280     1.2897490     0.0000350
  C        1.2605820    -0.7608720     0.0000310
  C       -1.2542960    -0.7955090    -0.0000670
  C        2.4243390     1.3942650     0.0001240
  C       -2.5504790     1.3758010    -0.0000570
  H        0.0516650     2.3739750     0.0000690
  H        0.0461780    -2.3935470    -0.0000610
  H        2.4800130     2.0209940     0.8935150
  H        2.4798690     2.0213500    -0.8930780
  H        3.2466700     0.6823050    -0.0000520
  H       -3.1375530     1.0948740    -0.8785960
  H       -2.4103180     2.4605130    -0.0000230
  H       -3.1376190     1.0948280     0.8784230
units angstrom
no_reorient  #important for SAPT in psi4, default
symmetry c1  #important for SAPT in psi4, default
}

set PROPERTIES_ORIGIN ["COM"]
properties('MP2/aug-cc-pvtz', properties = ['dipole'])
--------------------------------------------------------------------------

    Molecular point group: c1
  Charge       = 0
  Multiplicity = 1
  Basis Set: AUG-CC-PVTZ
    Blend: AUG-CC-PVTZ
  Basis Set: (AUG-CC-PVTZ AUX)
    Blend: AUG-CC-PVTZ-JKFIT

    Orbital Energies [Eh]
    ---------------------

    Doubly Occupied:

       1A    -20.542664     2A    -20.537431     3A    -15.634486
       4A    -15.628514     5A    -11.412636     6A    -11.379910
       7A    -11.326964     8A    -11.278862     9A    -11.264120
      10A    -11.239523    11A     -1.423626    12A     -1.390208
      13A     -1.299367    14A     -1.247070    15A     -1.111763
      16A     -0.993513    17A     -0.961937    18A     -0.913936
      19A     -0.850848    20A     -0.769542    21A     -0.738567
      22A     -0.688287    23A     -0.681849    24A     -0.655081
      25A     -0.636745    26A     -0.617095    27A     -0.614793
      28A     -0.588711    29A     -0.585095    30A     -0.553162
      31A     -0.547623    32A     -0.543710    33A     -0.478113
      34A     -0.473209    35A     -0.447330    36A     -0.433293
      37A     -0.349257

  @DF-RHF Final Energy:  -490.70827093960588

   => Energetics <=

    Nuclear Repulsion Energy =            530.0788145348459466
    One-Electron Energy =               -1719.8964933398895027
    Two-Electron Energy =                 699.1094078654377881
    Total Energy =                       -490.7082709396058817
  Basis Set: (AUG-CC-PVTZ AUX)
    Blend: AUG-CC-PVTZ-RI
    Molecular point group: c1

    Geometry (in Angstrom), charge = 0, multiplicity = 1:

       Center              X                  Y                   Z               Mass
    ------------   -----------------  -----------------  -----------------  -----------------
         O            2.322733822341    -1.299581751079     0.000060445493    15.994914619570
         O           -2.281917577659    -1.428523751079    -0.000130054507    15.994914619570
         N            1.221004822341     0.689147948921     0.000057845493    14.003074004430
         N            0.005306422341    -1.314418751079    -0.000033054507    14.003074004430
         C           -1.244711577659     0.726493248921    -0.000024054507    12.000000000000
         C           -0.041962577659     1.351514248921     0.000035945493    12.000000000000
         C            1.250547422341    -0.699106751079     0.000031945493    12.000000000000
         C           -1.264330577659    -0.733743751079    -0.000066054507    12.000000000000
         C            2.414304422341     1.456030248921     0.000124945493    12.000000000000
         C           -2.560513577659     1.437566248921    -0.000056054507    12.000000000000
         H            0.041630422341     2.435740248921     0.000069945493     1.007825032230
         H            0.036143422341    -2.331781751079    -0.000060054507     1.007825032230
         H            2.469978422341     2.082759248921     0.893515945493     1.007825032230
         H            2.469834422341     2.083115248921    -0.893077054507     1.007825032230
         H            3.236635422341     0.744070248921    -0.000051054507     1.007825032230
         H           -3.147587577659     1.156639248921    -0.878595054507     1.007825032230
         H           -2.420352577659     2.522278248921    -0.000022054507     1.007825032230
         H           -3.147653577659     1.156593248921     0.878423945493     1.007825032230

  Basis Set: AUG-CC-PVTZ
    Blend: AUG-CC-PVTZ
  Basis Set: (AUG-CC-PVTZ AUX)
    Blend: AUG-CC-PVTZ-JKFIT
	 Reference Energy          =    -490.7082709396058817 [Eh]
	 Singles Energy            =      -0.0000000000000000 [Eh]
	 Same-Spin Energy          =      -0.5022700126245854 [Eh]
	 Opposite-Spin Energy      =      -1.5415968695766509 [Eh]
	 Correlation Energy        =      -2.0438668822012360 [Eh]
	 Total Energy              =    -492.7521378218071391 [Eh]

	 ================> DF-SCS-MP2 Energies <==================
	-----------------------------------------------------------
	 SCS Same-Spin Scale       =       0.3333333333333333 [-]
	 SCS Opposite-Spin Scale   =       1.2000000000000000 [-]
	 SCS Same-Spin Energy      =      -0.1674233375415284 [Eh]
	 SCS Opposite-Spin Energy  =      -1.8499162434919809 [Eh]
	 SCS Correlation Energy    =      -2.0173395810335095 [Eh]
	 SCS Total Energy          =    -492.7256105206394068 [Eh]
	-----------------------------------------------------------

  Dipole Moment: [D]
     X:     0.7214      Y:     4.3691      Z:     0.0001     Total:     4.4282

*** Psi4 exiting successfully. Buy a developer a beer!
