                               Psi4 1.3.2 release

  ==> Input File <==

--------------------------------------------------------------------------
#psi4
#
memory 32 gb

molecule  {
0 1
  O        2.3111590    -1.3984000     0.0000580
  O       -2.2718830    -1.4902890    -0.0001310
  N        1.1965460     0.6046789     0.0444460
  N        0.0153410    -1.3761840    -0.0000340
  C       -1.2346770     0.6647280    -0.0000250
  C       -0.0319280     1.2897490     0.0000350
  C        1.2605820    -0.7608720     0.0000310
  C       -1.2542960    -0.7955090    -0.0000670
  C        2.4243390     1.3942650     0.0001240
  C       -2.5504790     1.3758010    -0.0000570
  H        0.0516650     2.3739750     0.0000690
  H        0.0461780    -2.3935470    -0.0000610
  H        2.4800130     2.0209940     0.8935150
  H        2.5136722     2.0343075    -0.8810651
  H        3.2466700     0.6823050    -0.0000520
  H       -3.1375530     1.0948740    -0.8785960
  H       -2.4103180     2.4605130    -0.0000230
  H       -3.1376190     1.0948280     0.8784230
units angstrom
no_reorient  #important for SAPT in psi4, default
symmetry c1  #important for SAPT in psi4, default
}

set PROPERTIES_ORIGIN ["COM"]
properties('MP2/aug-cc-pvtz', properties = ['dipole'])
--------------------------------------------------------------------------

    Molecular point group: c1
  Charge       = 0
  Multiplicity = 1
  Basis Set: AUG-CC-PVTZ
    Blend: AUG-CC-PVTZ
  Basis Set: (AUG-CC-PVTZ AUX)
    Blend: AUG-CC-PVTZ-JKFIT

    Orbital Energies [Eh]
    ---------------------

    Doubly Occupied:

       1A    -20.540134     2A    -20.536209     3A    -15.637963
       4A    -15.623890     5A    -11.410087     6A    -11.377492
       7A    -11.326469     8A    -11.285175     9A    -11.263029
      10A    -11.238804    11A     -1.423894    12A     -1.387856
      13A     -1.303461    14A     -1.241943    15A     -1.110804
      16A     -0.992688    17A     -0.966438    18A     -0.914470
      19A     -0.851298    20A     -0.771061    21A     -0.736076
      22A     -0.690910    23A     -0.681472    24A     -0.649761
      25A     -0.636437    26A     -0.615281    27A     -0.609774
      28A     -0.590597    29A     -0.584507    30A     -0.554875
      31A     -0.548274    32A     -0.543645    33A     -0.483905
      34A     -0.473920    35A     -0.444751    36A     -0.430297
      37A     -0.349614

  @DF-RHF Final Energy:  -490.71102667900311

   => Energetics <=

    Nuclear Repulsion Energy =            530.3631760424952972
    One-Electron Energy =               -1720.4938907497839864
    Two-Electron Energy =                 699.4196880282855773
    Total Energy =                       -490.7110266790031119
  Basis Set: (AUG-CC-PVTZ AUX)
    Blend: AUG-CC-PVTZ-RI
    Molecular point group: c1

    Geometry (in Angstrom), charge = 0, multiplicity = 1:

       Center              X                  Y                   Z               Mass
    ------------   -----------------  -----------------  -----------------  -----------------
         O            2.306797665950    -1.330226548982    -0.004465352643    15.994914619570
         O           -2.276244334050    -1.422115548982    -0.004654352643    15.994914619570
         N            1.192184665950     0.672852351018     0.039922647357    14.003074004430
         N            0.010979665950    -1.308010548982    -0.004557352643    14.003074004430
         C           -1.239038334050     0.732901451018    -0.004548352643    12.000000000000
         C           -0.036289334050     1.357922451018    -0.004488352643    12.000000000000
         C            1.256220665950    -0.692698548982    -0.004492352643    12.000000000000
         C           -1.258657334050    -0.727335548982    -0.004590352643    12.000000000000
         C            2.419977665950     1.462438451018    -0.004399352643    12.000000000000
         C           -2.554840334050     1.443974451018    -0.004580352643    12.000000000000
         H            0.047303665950     2.442148451018    -0.004454352643     1.007825032230
         H            0.041816665950    -2.325373548982    -0.004584352643     1.007825032230
         H            2.475651665950     2.089167451018     0.888991647357     1.007825032230
         H            2.509310865950     2.102480951018    -0.885588452643     1.007825032230
         H            3.242308665950     0.750478451018    -0.004575352643     1.007825032230
         H           -3.141914334050     1.163047451018    -0.883119352643     1.007825032230
         H           -2.414679334050     2.528686451018    -0.004546352643     1.007825032230
         H           -3.141980334050     1.163001451018     0.873899647357     1.007825032230

  Basis Set: AUG-CC-PVTZ
    Blend: AUG-CC-PVTZ
  Basis Set: (AUG-CC-PVTZ AUX)
    Blend: AUG-CC-PVTZ-JKFIT
	 Reference Energy          =    -490.7110266790031119 [Eh]
	 Singles Energy            =      -0.0000000000000000 [Eh]
	 Same-Spin Energy          =      -0.5020542368999825 [Eh]
	 Opposite-Spin Energy      =      -1.5411654752896089 [Eh]
	 Correlation Energy        =      -2.0432197121895914 [Eh]
	 Total Energy              =    -492.7542463911926802 [Eh]

	 ================> DF-SCS-MP2 Energies <==================
	-----------------------------------------------------------
	 SCS Same-Spin Scale       =       0.3333333333333333 [-]
	 SCS Opposite-Spin Scale   =       1.2000000000000000 [-]
	 SCS Same-Spin Energy      =      -0.1673514122999942 [Eh]
	 SCS Opposite-Spin Energy  =      -1.8493985703475306 [Eh]
	 SCS Correlation Energy    =      -2.0167499826475250 [Eh]
	 SCS Total Energy          =    -492.7277766616506369 [Eh]
	-----------------------------------------------------------

  Dipole Moment: [D]
     X:     0.8792      Y:     4.6044      Z:    -0.0330     Total:     4.6877

*** Psi4 exiting successfully. Buy a developer a beer!
