                               Psi4 1.3.2 release

  ==> Input File <==

--------------------------------------------------------------------------
#psi4
#
memory 32 gb

molecule  {
0 1
  O        2.3111590    -1.3984000     0.0000580
  O       -2.2718830    -1.4902890    -0.0001310
  N        1.1826080     0.6255060     0.0000550
  N        0.0153410    -1.3761840    -0.0000340
  C       -1.2235857     0.6438323    -0.0000252
  C       -0.0319280     1.2897490     0.0000350
  C        1.2605820    -0.7608720     0.0000310
  C       -1.2542960    -0.7955090    -0.0000670
  C        2.4243390     1.3942650     0.0001240
  C       -2.5504790     1.3758010    -0.0000570
  H        0.0705746     2.3723510     0.0000696
  H        0.0461780    -2.3935470    -0.0000610
  H        2.4800130     2.0209940     0.8935150
  H        2.4798690     2.0213500    -0.8930780
  H        3.2466700     0.6823050    -0.0000520
  H       -3.1375530     1.0948740    -0.8785960
  H       -2.4103180     2.4605130    -0.0000230
  H       -3.1376190     1.0948280     0.8784230
units angstrom
no_reorient  #important for SAPT in psi4, default
symmetry c1  #important for SAPT in psi4, default
}

set PROPERTIES_ORIGIN ["COM"]
properties('MP2/aug-cc-pvtz', properties = ['dipole'])
--------------------------------------------------------------------------

    Molecular point group: c1
  Charge       = 0
  Multiplicity = 1
  Basis Set: AUG-CC-PVTZ
    Blend: AUG-CC-PVTZ
  Basis Set: (AUG-CC-PVTZ AUX)
    Blend: AUG-CC-PVTZ-JKFIT

    Orbital Energies [Eh]
    ---------------------

    Doubly Occupied:

       1A    -20.540295     2A    -20.537654     3A    -15.638333
       4A    -15.624043     5A    -11.413549     6A    -11.374703
       7A    -11.326993     8A    -11.286326     9A    -11.258671
      10A    -11.237781    11A     -1.424185    12A     -1.386810
      13A     -1.307478    14A     -1.242973    15A     -1.108454
      16A     -0.992874    17A     -0.962547    18A     -0.918230
      19A     -0.852257    20A     -0.771452    21A     -0.735176
      22A     -0.694069    23A     -0.682570    24A     -0.649228
      25A     -0.638032    26A     -0.616004    27A     -0.610638
      28A     -0.587467    29A     -0.582577    30A     -0.552195
      31A     -0.546893    32A     -0.543052    33A     -0.488515
      34A     -0.475936    35A     -0.444889    36A     -0.430293
      37A     -0.346602

  @DF-RHF Final Energy:  -490.71108135954660

   => Energetics <=

    Nuclear Repulsion Energy =            530.6582985738466505
    One-Electron Energy =               -1721.0792699431360688
    Two-Electron Energy =                 699.7098900097428213
    Total Energy =                       -490.7110813595465970
  Basis Set: (AUG-CC-PVTZ AUX)
    Blend: AUG-CC-PVTZ-RI
    Molecular point group: c1

    Geometry (in Angstrom), charge = 0, multiplicity = 1:

       Center              X                  Y                   Z               Mass
    ------------   -----------------  -----------------  -----------------  -----------------
         O            2.307348074142    -1.330413609441     0.000059319576    15.994914619570
         O           -2.275693925858    -1.422302609441    -0.000129680424    15.994914619570
         N            1.178797074142     0.693492390559     0.000056319576    14.003074004430
         N            0.011530074142    -1.308197609441    -0.000032680424    14.003074004430
         C           -1.227396625858     0.711818690559    -0.000023880424    12.000000000000
         C           -0.035738925858     1.357735390559     0.000036319576    12.000000000000
         C            1.256771074142    -0.692885609441     0.000032319576    12.000000000000
         C           -1.258106925858    -0.727522609441    -0.000065680424    12.000000000000
         C            2.420528074142     1.462251390559     0.000125319576    12.000000000000
         C           -2.554289925858     1.443787390559    -0.000055680424    12.000000000000
         H            0.066763674142     2.440337390559     0.000070919576     1.007825032230
         H            0.042367074142    -2.325560609441    -0.000059680424     1.007825032230
         H            2.476202074142     2.088980390559     0.893516319576     1.007825032230
         H            2.476058074142     2.089336390559    -0.893076680424     1.007825032230
         H            3.242859074142     0.750291390559    -0.000050680424     1.007825032230
         H           -3.141363925858     1.162860390559    -0.878594680424     1.007825032230
         H           -2.414128925858     2.528499390559    -0.000021680424     1.007825032230
         H           -3.141429925858     1.162814390559     0.878424319576     1.007825032230

  Basis Set: AUG-CC-PVTZ
    Blend: AUG-CC-PVTZ
  Basis Set: (AUG-CC-PVTZ AUX)
    Blend: AUG-CC-PVTZ-JKFIT
	 Reference Energy          =    -490.7110813595465970 [Eh]
	 Singles Energy            =      -0.0000000000000000 [Eh]
	 Same-Spin Energy          =      -0.5025386437945076 [Eh]
	 Opposite-Spin Energy      =      -1.5416448182404034 [Eh]
	 Correlation Energy        =      -2.0441834620349111 [Eh]
	 Total Energy              =    -492.7552648215815339 [Eh]

	 ================> DF-SCS-MP2 Energies <==================
	-----------------------------------------------------------
	 SCS Same-Spin Scale       =       0.3333333333333333 [-]
	 SCS Opposite-Spin Scale   =       1.2000000000000000 [-]
	 SCS Same-Spin Energy      =      -0.1675128812648359 [Eh]
	 SCS Opposite-Spin Energy  =      -1.8499737818884840 [Eh]
	 SCS Correlation Energy    =      -2.0174866631533197 [Eh]
	 SCS Total Energy          =    -492.7285680226999034 [Eh]
	-----------------------------------------------------------

  Dipole Moment: [D]
     X:     1.1004      Y:     4.5670      Z:     0.0002     Total:     4.6977

*** Psi4 exiting successfully. Buy a developer a beer!
