                               Psi4 1.3.2 release

  ==> Input File <==

--------------------------------------------------------------------------
#psi4
#
memory 32 gb

molecule  {
0 1
  O        2.3111590    -1.3984000     0.0000580
  O       -2.2718830    -1.4902890    -0.0001310
  N        1.2040771     0.5946246     0.0666246
  N        0.0153410    -1.3761840    -0.0000340
  C       -1.2346770     0.6647280    -0.0000250
  C       -0.0319280     1.2897490     0.0000350
  C        1.2605820    -0.7608720     0.0000310
  C       -1.2542960    -0.7955090    -0.0000670
  C        2.4243390     1.3942650     0.0001240
  C       -2.5504790     1.3758010    -0.0000570
  H        0.0516650     2.3739750     0.0000690
  H        0.0461780    -2.3935470    -0.0000610
  H        2.4800130     2.0209940     0.8935150
  H        2.5305356     2.0404947    -0.8746551
  H        3.2466700     0.6823050    -0.0000520
  H       -3.1375530     1.0948740    -0.8785960
  H       -2.4103180     2.4605130    -0.0000230
  H       -3.1376190     1.0948280     0.8784230
units angstrom
no_reorient  #important for SAPT in psi4, default
symmetry c1  #important for SAPT in psi4, default
}

set PROPERTIES_ORIGIN ["COM"]
properties('MP2/aug-cc-pvtz', properties = ['dipole'])
--------------------------------------------------------------------------

    Molecular point group: c1
  Charge       = 0
  Multiplicity = 1
  Basis Set: AUG-CC-PVTZ
    Blend: AUG-CC-PVTZ
  Basis Set: (AUG-CC-PVTZ AUX)
    Blend: AUG-CC-PVTZ-JKFIT

    Orbital Energies [Eh]
    ---------------------

    Doubly Occupied:

       1A    -20.540985     2A    -20.534213     3A    -15.637871
       4A    -15.623591     5A    -11.408343     6A    -11.378156
       7A    -11.327177     8A    -11.284739     9A    -11.264709
      10A    -11.239638    11A     -1.423872    12A     -1.388342
      13A     -1.301736    14A     -1.241525    15A     -1.111674
      16A     -0.992603    17A     -0.967380    18A     -0.914491
      19A     -0.850538    20A     -0.771027    21A     -0.736710
      22A     -0.690258    23A     -0.681064    24A     -0.650425
      25A     -0.635569    26A     -0.615760    27A     -0.609226
      28A     -0.591185    29A     -0.584617    30A     -0.554862
      31A     -0.547866    32A     -0.543750    33A     -0.481778
      34A     -0.473260    35A     -0.444924    36A     -0.430196
      37A     -0.351555

  @DF-RHF Final Energy:  -490.70929511164974

   => Energetics <=

    Nuclear Repulsion Energy =            530.3284941237736803
    One-Electron Energy =               -1720.4243402386441630
    Two-Electron Energy =                 699.3865510032206885
    Total Energy =                       -490.7092951116497943
  Basis Set: (AUG-CC-PVTZ AUX)
    Blend: AUG-CC-PVTZ-RI
    Molecular point group: c1

    Geometry (in Angstrom), charge = 0, multiplicity = 1:

       Center              X                  Y                   Z               Mass
    ------------   -----------------  -----------------  -----------------  -----------------
         O            2.305923361002    -1.329265840296    -0.006728896521    15.994914619570
         O           -2.277118638998    -1.421154840296    -0.006917896521    15.994914619570
         N            1.198841461002     0.663758759704     0.059837703479    14.003074004430
         N            0.010105361002    -1.307049840296    -0.006820896521    14.003074004430
         C           -1.239912638998     0.733862159704    -0.006811896521    12.000000000000
         C           -0.037163638998     1.358883159704    -0.006751896521    12.000000000000
         C            1.255346361002    -0.691737840296    -0.006755896521    12.000000000000
         C           -1.259531638998    -0.726374840296    -0.006853896521    12.000000000000
         C            2.419103361002     1.463399159704    -0.006662896521    12.000000000000
         C           -2.555714638998     1.444935159704    -0.006843896521    12.000000000000
         H            0.046429361002     2.443109159704    -0.006717896521     1.007825032230
         H            0.040942361002    -2.324412840296    -0.006847896521     1.007825032230
         H            2.474777361002     2.090128159704     0.886728103479     1.007825032230
         H            2.525299961002     2.109628859704    -0.881441996521     1.007825032230
         H            3.241434361002     0.751439159704    -0.006838896521     1.007825032230
         H           -3.142788638998     1.164008159704    -0.885382896521     1.007825032230
         H           -2.415553638998     2.529647159704    -0.006809896521     1.007825032230
         H           -3.142854638998     1.163962159704     0.871636103479     1.007825032230

  Basis Set: AUG-CC-PVTZ
    Blend: AUG-CC-PVTZ
  Basis Set: (AUG-CC-PVTZ AUX)
    Blend: AUG-CC-PVTZ-JKFIT
	 Reference Energy          =    -490.7092951116497375 [Eh]
	 Singles Energy            =      -0.0000000000000000 [Eh]
	 Same-Spin Energy          =      -0.5019176631392864 [Eh]
	 Opposite-Spin Energy      =      -1.5411037093961166 [Eh]
	 Correlation Energy        =      -2.0430213725354029 [Eh]
	 Total Energy              =    -492.7523164841851440 [Eh]

	 ================> DF-SCS-MP2 Energies <==================
	-----------------------------------------------------------
	 SCS Same-Spin Scale       =       0.3333333333333333 [-]
	 SCS Opposite-Spin Scale   =       1.2000000000000000 [-]
	 SCS Same-Spin Energy      =      -0.1673058877130955 [Eh]
	 SCS Opposite-Spin Energy  =      -1.8493244512753400 [Eh]
	 SCS Correlation Energy    =      -2.0166303389884352 [Eh]
	 SCS Total Energy          =    -492.7259254506381581 [Eh]
	-----------------------------------------------------------

  Dipole Moment: [D]
     X:     0.7934      Y:     4.6385      Z:    -0.0498     Total:     4.7061

*** Psi4 exiting successfully. Buy a developer a beer!
