                               Psi4 1.4a3.dev225

  ==> Input File <==

--------------------------------------------------------------------------
#psi4
#
memory 32 gb

molecule  {
0 1
  O        2.3212770    -1.3580180     0.0000020
  O       -2.2717460    -1.4962290     0.0000010
  N        1.1724310     0.6334210    -0.0000020
  N        0.0162060    -1.3769820    -0.0000020
  C       -1.2398930     0.6613320     0.0000000
  C       -0.0398910     1.2934770    -0.0000010
  C        1.2515871    -0.7326505    -0.0000010
  C       -1.2589250    -0.7964470     0.0000000
  C        2.4447950     1.3519700     0.0000010
  C       -2.5550880     1.3760200     0.0000010
  H        0.0310140     2.3780990    -0.0000010
  H        0.0457120    -2.3937650    -0.0000010
  H        2.2343430     2.4214070    -0.0000200
  H        3.0241620     1.0875710    -0.8862110
  H        3.0241420     1.0876020     0.8862360
  H       -3.1432670     1.0977880    -0.8790540
  H       -2.4120010     2.4600010     0.0000010
  H       -3.1432670     1.0977870     0.8790540
units angstrom
no_reorient  #important for SAPT in psi4, default
symmetry c1  #important for SAPT in psi4, default
}

set PROPERTIES_ORIGIN ["COM"]
properties('MP2/aug-cc-pvtz', properties = ['dipole'])
--------------------------------------------------------------------------

    Molecular point group: c1
  Charge       = 0
  Multiplicity = 1
  Basis Set: AUG-CC-PVTZ
    Blend: AUG-CC-PVTZ
  Basis Set: (AUG-CC-PVTZ AUX)
    Blend: AUG-CC-PVTZ-JKFIT

    Orbital Energies [Eh]
    ---------------------

    Doubly Occupied:

       1A    -20.537860     2A    -20.537816     3A    -15.641202
       4A    -15.624066     5A    -11.410720     6A    -11.375474
       7A    -11.327397     8A    -11.290151     9A    -11.259358
      10A    -11.237520    11A     -1.421300    12A     -1.385852
      13A     -1.307669    14A     -1.241670    15A     -1.110218
      16A     -0.996128    17A     -0.966055    18A     -0.915401
      19A     -0.851440    20A     -0.772968    21A     -0.735569
      22A     -0.694126    23A     -0.684917    24A     -0.650455
      25A     -0.632739    26A     -0.612806    27A     -0.609315
      28A     -0.592829    29A     -0.580727    30A     -0.559205
      31A     -0.548724    32A     -0.539542    33A     -0.491755
      34A     -0.473663    35A     -0.443029    36A     -0.428330
      37A     -0.346025

  @DF-RHF Final Energy:  -490.71160949717944

   => Energetics <=

    Nuclear Repulsion Energy =            530.8659932346856749
    One-Electron Energy =               -1721.4871624134002559
    Two-Electron Energy =                 699.9095596815351428
    Total Energy =                       -490.7116094971794382
  Basis Set: (AUG-CC-PVTZ AUX)
    Blend: AUG-CC-PVTZ-RI
    Molecular point group: c1

    Geometry (in Angstrom), charge = 0, multiplicity = 1:

       Center              X                  Y                   Z               Mass
    ------------   -----------------  -----------------  -----------------  -----------------
         O            2.318949250828    -1.294384675253     0.000002028533    15.994914619570
         O           -2.274073749172    -1.432595675253     0.000001028533    15.994914619570
         N            1.170103250828     0.697054324747    -0.000001971467    14.003074004430
         N            0.013878250828    -1.313348675253    -0.000001971467    14.003074004430
         C           -1.242220749172     0.724965324747     0.000000028533    12.000000000000
         C           -0.042218749172     1.357110324747    -0.000000971467    12.000000000000
         C            1.249259350828    -0.669017175253    -0.000000971467    12.000000000000
         C           -1.261252749172    -0.732813675253     0.000000028533    12.000000000000
         C            2.442467250828     1.415603324747     0.000001028533    12.000000000000
         C           -2.557415749172     1.439653324747     0.000001028533    12.000000000000
         H            0.028686250828     2.441732324747    -0.000000971467     1.007825032230
         H            0.043384250828    -2.330131675253    -0.000000971467     1.007825032230
         H            2.232015250828     2.485040324747    -0.000019971467     1.007825032230
         H            3.021834250828     1.151204324747    -0.886210971467     1.007825032230
         H            3.021814250828     1.151235324747     0.886236028533     1.007825032230
         H           -3.145594749172     1.161421324747    -0.879053971467     1.007825032230
         H           -2.414328749172     2.523634324747     0.000001028533     1.007825032230
         H           -3.145594749172     1.161420324747     0.879054028533     1.007825032230

  Basis Set: AUG-CC-PVTZ
    Blend: AUG-CC-PVTZ
  Basis Set: (AUG-CC-PVTZ AUX)
    Blend: AUG-CC-PVTZ-JKFIT
	 Reference Energy          =    -490.7116094971794382 [Eh]
	 Singles Energy            =      -0.0000000000000000 [Eh]
	 Same-Spin Energy          =      -0.5024810731538362 [Eh]
	 Opposite-Spin Energy      =      -1.5415961571646535 [Eh]
	 Correlation Energy        =      -2.0440772303184898 [Eh]
	 Total Energy              =    -492.7556867274979027 [Eh]

	 ================> DF-SCS-MP2 Energies <==================
	-----------------------------------------------------------
	 SCS Same-Spin Scale       =       0.3333333333333333 [-]
	 SCS Opposite-Spin Scale   =       1.2000000000000000 [-]
	 SCS Same-Spin Energy      =      -0.1674936910512787 [Eh]
	 SCS Opposite-Spin Energy  =      -1.8499153885975841 [Eh]
	 SCS Correlation Energy    =      -2.0174090796488628 [Eh]
	 SCS Total Energy          =    -492.7290185768283095 [Eh]
	-----------------------------------------------------------

  Dipole Moment: [D]
     X:     1.0266      Y:     4.6578      Z:    -0.0000     Total:     4.7696

*** Psi4 exiting successfully. Buy a developer a beer!
