                               Psi4 1.3.2 release

  ==> Input File <==

--------------------------------------------------------------------------
#psi4
#
memory 32 gb

molecule  {
0 1
  O        2.3111590    -1.3984000     0.0000580
  O       -2.2718830    -1.4902890    -0.0001310
  N        1.1826080     0.6255060     0.0000550
  N        0.0153410    -1.3761840    -0.0000340
  C       -1.2346770     0.6647280    -0.0000250
  C        0.0045003     1.3524026     0.0000384
  C        1.2605820    -0.7608720     0.0000310
  C       -1.2542960    -0.7955090    -0.0000670
  C        2.3824035     1.4581986     0.0001247
  C       -2.5504790     1.3758010    -0.0000570
  H        0.0516650     2.3739750     0.0000690
  H        0.0461780    -2.3935470    -0.0000610
  H        2.4800130     2.0209940     0.8935150
  H        2.4798690     2.0213500    -0.8930780
  H        3.2466700     0.6823050    -0.0000520
  H       -3.1375530     1.0948740    -0.8785960
  H       -2.4103180     2.4605130    -0.0000230
  H       -3.1376190     1.0948280     0.8784230
units angstrom
no_reorient  #important for SAPT in psi4, default
symmetry c1  #important for SAPT in psi4, default
}

set PROPERTIES_ORIGIN ["COM"]
properties('MP2/aug-cc-pvtz', properties = ['dipole'])
--------------------------------------------------------------------------

    Molecular point group: c1
  Charge       = 0
  Multiplicity = 1
  Basis Set: AUG-CC-PVTZ
    Blend: AUG-CC-PVTZ
  Basis Set: (AUG-CC-PVTZ AUX)
    Blend: AUG-CC-PVTZ-JKFIT

    Orbital Energies [Eh]
    ---------------------

    Doubly Occupied:

       1A    -20.542008     2A    -20.537555     3A    -15.640620
       4A    -15.625596     5A    -11.417247     6A    -11.376065
       7A    -11.328924     8A    -11.285368     9A    -11.265390
      10A    -11.235240    11A     -1.424339    12A     -1.386443
      13A     -1.307711    14A     -1.244105    15A     -1.097660
      16A     -0.991704    17A     -0.968733    18A     -0.918020
      19A     -0.848725    20A     -0.768212    21A     -0.736824
      22A     -0.706543    23A     -0.687859    24A     -0.650838
      25A     -0.639830    26A     -0.624269    27A     -0.611675
      28A     -0.583728    29A     -0.576038    30A     -0.549890
      31A     -0.544998    32A     -0.532992    33A     -0.488917
      34A     -0.477059    35A     -0.444208    36A     -0.430839
      37A     -0.336861

  @DF-RHF Final Energy:  -490.69278530706470

   => Energetics <=

    Nuclear Repulsion Energy =            529.1490026374410718
    One-Electron Energy =               -1718.0175140032677064
    Two-Electron Energy =                 698.1757260587619385
    Total Energy =                       -490.6927853070646961
  Basis Set: (AUG-CC-PVTZ AUX)
    Blend: AUG-CC-PVTZ-RI
    Molecular point group: c1

    Geometry (in Angstrom), charge = 0, multiplicity = 1:

       Center              X                  Y                   Z               Mass
    ------------   -----------------  -----------------  -----------------  -----------------
         O            2.308906276232    -1.343061399669     0.000058955477    15.994914619570
         O           -2.274135723768    -1.434950399669    -0.000130044523    15.994914619570
         N            1.180355276232     0.680844600331     0.000055955477    14.003074004430
         N            0.013088276232    -1.320845399669    -0.000033044523    14.003074004430
         C           -1.236929723768     0.720066600331    -0.000024044523    12.000000000000
         C            0.002247576232     1.407741200331     0.000039355477    12.000000000000
         C            1.258329276232    -0.705533399669     0.000031955477    12.000000000000
         C           -1.256548723768    -0.740170399669    -0.000066044523    12.000000000000
         C            2.380150776232     1.513537200331     0.000125655477    12.000000000000
         C           -2.552731723768     1.431139600331    -0.000056044523    12.000000000000
         H            0.049412276232     2.429313600331     0.000069955477     1.007825032230
         H            0.043925276232    -2.338208399669    -0.000060044523     1.007825032230
         H            2.477760276232     2.076332600331     0.893515955477     1.007825032230
         H            2.477616276232     2.076688600331    -0.893077044523     1.007825032230
         H            3.244417276232     0.737643600331    -0.000051044523     1.007825032230
         H           -3.139805723768     1.150212600331    -0.878595044523     1.007825032230
         H           -2.412570723768     2.515851600331    -0.000022044523     1.007825032230
         H           -3.139871723768     1.150166600331     0.878423955477     1.007825032230

  Basis Set: AUG-CC-PVTZ
    Blend: AUG-CC-PVTZ
  Basis Set: (AUG-CC-PVTZ AUX)
    Blend: AUG-CC-PVTZ-JKFIT
	 Reference Energy          =    -490.6927853070646961 [Eh]
	 Singles Energy            =      -0.0000000000000000 [Eh]
	 Same-Spin Energy          =      -0.5038075068127331 [Eh]
	 Opposite-Spin Energy      =      -1.5444306627712110 [Eh]
	 Correlation Energy        =      -2.0482381695839442 [Eh]
	 Total Energy              =    -492.7410234766486496 [Eh]

	 ================> DF-SCS-MP2 Energies <==================
	-----------------------------------------------------------
	 SCS Same-Spin Scale       =       0.3333333333333333 [-]
	 SCS Opposite-Spin Scale   =       1.2000000000000000 [-]
	 SCS Same-Spin Energy      =      -0.1679358356042444 [Eh]
	 SCS Opposite-Spin Energy  =      -1.8533167953254530 [Eh]
	 SCS Correlation Energy    =      -2.0212526309296974 [Eh]
	 SCS Total Energy          =    -492.7140379379944193 [Eh]
	-----------------------------------------------------------

  Dipole Moment: [D]
     X:     1.0795      Y:     4.5583      Z:     0.0002     Total:     4.6844

*** Psi4 exiting successfully. Buy a developer a beer!
