                               Psi4 1.3.2 release

  ==> Input File <==

--------------------------------------------------------------------------
#psi4
#
memory 32 gb

molecule  {
0 1
  O        2.3111590    -1.3984000     0.0000580
  O       -2.3068504    -1.4360804    -0.0001307
  N        1.1826080     0.6255060     0.0000550
  N        0.0439912    -1.3089405    -0.0000307
  C       -1.2346770     0.6647280    -0.0000250
  C       -0.0319280     1.2897490     0.0000350
  C        1.2605820    -0.7608720     0.0000310
  C       -1.2542960    -0.7955090    -0.0000670
  C        2.4243390     1.3942650     0.0001240
  C       -2.5504790     1.3758010    -0.0000570
  H        0.0516650     2.3739750     0.0000690
  H        0.0461780    -2.3935470    -0.0000610
  H        2.4800130     2.0209940     0.8935150
  H        2.4798690     2.0213500    -0.8930780
  H        3.2466700     0.6823050    -0.0000520
  H       -3.1375530     1.0948740    -0.8785960
  H       -2.4103180     2.4605130    -0.0000230
  H       -3.1376190     1.0948280     0.8784230
units angstrom
no_reorient  #important for SAPT in psi4, default
symmetry c1  #important for SAPT in psi4, default
}

set PROPERTIES_ORIGIN ["COM"]
properties('MP2/aug-cc-pvtz', properties = ['dipole'])
--------------------------------------------------------------------------

    Molecular point group: c1
  Charge       = 0
  Multiplicity = 1
  Basis Set: AUG-CC-PVTZ
    Blend: AUG-CC-PVTZ
  Basis Set: (AUG-CC-PVTZ AUX)
    Blend: AUG-CC-PVTZ-JKFIT

    Orbital Energies [Eh]
    ---------------------

    Doubly Occupied:

       1A    -20.545473     2A    -20.536971     3A    -15.634395
       4A    -15.633544     5A    -11.409569     6A    -11.381128
       7A    -11.322036     8A    -11.283414     9A    -11.255561
      10A    -11.234757    11A     -1.428422    12A     -1.389355
      13A     -1.308876    14A     -1.250979    15A     -1.107261
      16A     -0.991997    17A     -0.966858    18A     -0.914413
      19A     -0.861493    20A     -0.769720    21A     -0.724633
      22A     -0.685962    23A     -0.685697    24A     -0.649220
      25A     -0.639036    26A     -0.617815    27A     -0.607939
      28A     -0.586531    29A     -0.584522    30A     -0.550701
      31A     -0.545028    32A     -0.543006    33A     -0.486400
      34A     -0.473536    35A     -0.447717    36A     -0.436243
      37A     -0.343789

  @DF-RHF Final Energy:  -490.70003281334630

   => Energetics <=

    Nuclear Repulsion Energy =            531.8977035828335147
    One-Electron Energy =               -1723.5274798777443266
    Two-Electron Energy =                 700.9297434815644010
    Total Energy =                       -490.7000328133462972
  Basis Set: (AUG-CC-PVTZ AUX)
    Blend: AUG-CC-PVTZ-RI
    Molecular point group: c1

    Geometry (in Angstrom), charge = 0, multiplicity = 1:

       Center              X                  Y                   Z               Mass
    ------------   -----------------  -----------------  -----------------  -----------------
         O            2.309563310655    -1.345129328964     0.000058942563    15.994914619570
         O           -2.308446089345    -1.382809728964    -0.000129757437    15.994914619570
         N            1.181012310655     0.678776671036     0.000055942563    14.003074004430
         N            0.042395510655    -1.255669828964    -0.000029757437    14.003074004430
         C           -1.236272689345     0.717998671036    -0.000024057437    12.000000000000
         C           -0.033523689345     1.343019671036     0.000035942563    12.000000000000
         C            1.258986310655    -0.707601328964     0.000031942563    12.000000000000
         C           -1.255891689345    -0.742238328964    -0.000066057437    12.000000000000
         C            2.422743310655     1.447535671036     0.000124942563    12.000000000000
         C           -2.552074689345     1.429071671036    -0.000056057437    12.000000000000
         H            0.050069310655     2.427245671036     0.000069942563     1.007825032230
         H            0.044582310655    -2.340276328964    -0.000060057437     1.007825032230
         H            2.478417310655     2.074264671036     0.893515942563     1.007825032230
         H            2.478273310655     2.074620671036    -0.893077057437     1.007825032230
         H            3.245074310655     0.735575671036    -0.000051057437     1.007825032230
         H           -3.139148689345     1.148144671036    -0.878595057437     1.007825032230
         H           -2.411913689345     2.513783671036    -0.000022057437     1.007825032230
         H           -3.139214689345     1.148098671036     0.878423942563     1.007825032230

  Basis Set: AUG-CC-PVTZ
    Blend: AUG-CC-PVTZ
  Basis Set: (AUG-CC-PVTZ AUX)
    Blend: AUG-CC-PVTZ-JKFIT
	 Reference Energy          =    -490.7000328133462972 [Eh]
	 Singles Energy            =      -0.0000000000000000 [Eh]
	 Same-Spin Energy          =      -0.5038464994836698 [Eh]
	 Opposite-Spin Energy      =      -1.5433640402250783 [Eh]
	 Correlation Energy        =      -2.0472105397087481 [Eh]
	 Total Energy              =    -492.7472433530550688 [Eh]

	 ================> DF-SCS-MP2 Energies <==================
	-----------------------------------------------------------
	 SCS Same-Spin Scale       =       0.3333333333333333 [-]
	 SCS Opposite-Spin Scale   =       1.2000000000000000 [-]
	 SCS Same-Spin Energy      =      -0.1679488331612232 [Eh]
	 SCS Opposite-Spin Energy  =      -1.8520368482700940 [Eh]
	 SCS Correlation Energy    =      -2.0199856814313173 [Eh]
	 SCS Total Energy          =    -492.7200184947776052 [Eh]
	-----------------------------------------------------------

  Dipole Moment: [D]
     X:     0.9074      Y:     4.2599      Z:     0.0002     Total:     4.3555

*** Psi4 exiting successfully. Buy a developer a beer!
