                               Psi4 1.3.2 release

  ==> Input File <==

--------------------------------------------------------------------------
#psi4
#
memory 32 gb

molecule  {
0 1
  O        2.3111590    -1.3984000     0.0000580
  O       -2.2718830    -1.4902890    -0.0001310
  N        1.1826080     0.6255060     0.0000550
  N        0.0153410    -1.3761840    -0.0000340
  C       -1.2379156     0.6588544    -0.0112217
  C       -0.0319280     1.2897490     0.0000350
  C        1.2605820    -0.7608720     0.0000310
  C       -1.2542960    -0.7955090    -0.0000670
  C        2.4243390     1.3942650     0.0001240
  C       -2.5504790     1.3758010    -0.0000570
  H        0.0516650     2.3739750     0.0000690
  H        0.0461780    -2.3935470    -0.0000610
  H        2.4800130     2.0209940     0.8935150
  H        2.4798690     2.0213500    -0.8930780
  H        3.2466700     0.6823050    -0.0000520
  H       -3.1304849     1.0891251    -0.8814291
  H       -2.4103180     2.4605130    -0.0000230
  H       -3.1376190     1.0948280     0.8784230
units angstrom
no_reorient  #important for SAPT in psi4, default
symmetry c1  #important for SAPT in psi4, default
}

set PROPERTIES_ORIGIN ["COM"]
properties('MP2/aug-cc-pvtz', properties = ['dipole'])
--------------------------------------------------------------------------

    Molecular point group: c1
  Charge       = 0
  Multiplicity = 1
  Basis Set: AUG-CC-PVTZ
    Blend: AUG-CC-PVTZ
  Basis Set: (AUG-CC-PVTZ AUX)
    Blend: AUG-CC-PVTZ-JKFIT

    Orbital Energies [Eh]
    ---------------------

    Doubly Occupied:

       1A    -20.540558     2A    -20.537885     3A    -15.638619
       4A    -15.624553     5A    -11.413780     6A    -11.375511
       7A    -11.326159     8A    -11.286172     9A    -11.259627
      10A    -11.237053    11A     -1.424154    12A     -1.386799
      13A     -1.306902    14A     -1.242905    15A     -1.108588
      16A     -0.993310    17A     -0.963792    18A     -0.915202
      19A     -0.852236    20A     -0.770560    21A     -0.735208
      22A     -0.692358    23A     -0.682286    24A     -0.649375
      25A     -0.637785    26A     -0.615909    27A     -0.609816
      28A     -0.588727    29A     -0.584255    30A     -0.555568
      31A     -0.547632    32A     -0.543125    33A     -0.487796
      34A     -0.475490    35A     -0.444309    36A     -0.430486
      37A     -0.345108

  @DF-RHF Final Energy:  -490.71157039149500

   => Energetics <=

    Nuclear Repulsion Energy =            530.4096206012334278
    One-Electron Energy =               -1720.5831813033948947
    Two-Electron Energy =                 699.4619903106664651
    Total Energy =                       -490.7115703914950018
  Basis Set: (AUG-CC-PVTZ AUX)
    Blend: AUG-CC-PVTZ-RI
    Molecular point group: c1

    Geometry (in Angstrom), charge = 0, multiplicity = 1:

       Center              X                  Y                   Z               Mass
    ------------   -----------------  -----------------  -----------------  -----------------
         O            2.308661045924    -1.331670997783     0.001039008762    15.994914619570
         O           -2.274380954076    -1.423559997783     0.000850008762    15.994914619570
         N            1.180110045924     0.692235002217     0.001036008762    14.003074004430
         N            0.012843045924    -1.309454997783     0.000947008762    14.003074004430
         C           -1.240413554076     0.725583402217    -0.010240691238    12.000000000000
         C           -0.034425954076     1.356478002217     0.001016008762    12.000000000000
         C            1.258084045924    -0.694142997783     0.001012008762    12.000000000000
         C           -1.256793954076    -0.728779997783     0.000914008762    12.000000000000
         C            2.421841045924     1.460994002217     0.001105008762    12.000000000000
         C           -2.552976954076     1.442530002217     0.000924008762    12.000000000000
         H            0.049167045924     2.440704002217     0.001050008762     1.007825032230
         H            0.043680045924    -2.326817997783     0.000920008762     1.007825032230
         H            2.477515045924     2.087723002217     0.894496008762     1.007825032230
         H            2.477371045924     2.088079002217    -0.892096991238     1.007825032230
         H            3.244172045924     0.749034002217     0.000929008762     1.007825032230
         H           -3.132982854076     1.155854102217    -0.880448091238     1.007825032230
         H           -2.412815954076     2.527242002217     0.000958008762     1.007825032230
         H           -3.140116954076     1.161557002217     0.879404008762     1.007825032230

  Basis Set: AUG-CC-PVTZ
    Blend: AUG-CC-PVTZ
  Basis Set: (AUG-CC-PVTZ AUX)
    Blend: AUG-CC-PVTZ-JKFIT
	 Reference Energy          =    -490.7115703914950018 [Eh]
	 Singles Energy            =      -0.0000000000000000 [Eh]
	 Same-Spin Energy          =      -0.5025285801201838 [Eh]
	 Opposite-Spin Energy      =      -1.5416607940983225 [Eh]
	 Correlation Energy        =      -2.0441893742185062 [Eh]
	 Total Energy              =    -492.7557597657134920 [Eh]

	 ================> DF-SCS-MP2 Energies <==================
	-----------------------------------------------------------
	 SCS Same-Spin Scale       =       0.3333333333333333 [-]
	 SCS Opposite-Spin Scale   =       1.2000000000000000 [-]
	 SCS Same-Spin Energy      =      -0.1675095267067279 [Eh]
	 SCS Opposite-Spin Energy  =      -1.8499929529179868 [Eh]
	 SCS Correlation Energy    =      -2.0175024796247145 [Eh]
	 SCS Total Energy          =    -492.7290728711197403 [Eh]
	-----------------------------------------------------------

  Dipole Moment: [D]
     X:     1.0649      Y:     4.5400      Z:     0.0066     Total:     4.6632

*** Psi4 exiting successfully. Buy a developer a beer!
