                               Psi4 1.3.2 release

  ==> Input File <==

--------------------------------------------------------------------------
#psi4
#
memory 32 gb

molecule  {
0 1
  O        2.3111590    -1.3984000     0.0000580
  O       -2.2718830    -1.4902890    -0.0001310
  N        1.1826080     0.6255060     0.0000550
  N        0.0153410    -1.3761840    -0.0000340
  C       -1.2346770     0.6647280    -0.0000250
  C       -0.0319280     1.2897490     0.0000350
  C        1.2605820    -0.7608720     0.0000310
  C       -1.2542960    -0.7955090    -0.0000670
  C        2.4243390     1.3942650     0.0001240
  C       -2.5504790     1.3758010    -0.0000570
  H        0.0516650     2.3739750     0.0000690
  H        0.0461780    -2.3935470    -0.0000610
  H        2.4800130     2.0209940     0.8935150
  H        2.4798690     2.0213500    -0.8930780
  H        3.2466700     0.6823050    -0.0000520
  H       -3.2449433     1.0434855    -1.0393024
  H       -2.4103180     2.4605130    -0.0000230
  H       -3.1376190     1.0948280     0.8784230
units angstrom
no_reorient  #important for SAPT in psi4, default
symmetry c1  #important for SAPT in psi4, default
}

set PROPERTIES_ORIGIN ["COM"]
properties('MP2/aug-cc-pvtz', properties = ['dipole'])
--------------------------------------------------------------------------

    Molecular point group: c1
  Charge       = 0
  Multiplicity = 1
  Basis Set: AUG-CC-PVTZ
    Blend: AUG-CC-PVTZ
  Basis Set: (AUG-CC-PVTZ AUX)
    Blend: AUG-CC-PVTZ-JKFIT

    Orbital Energies [Eh]
    ---------------------

    Doubly Occupied:

       1A    -20.541232     2A    -20.538691     3A    -15.639332
       4A    -15.625106     5A    -11.414437     6A    -11.376548
       7A    -11.326638     8A    -11.286695     9A    -11.261602
      10A    -11.258752    11A     -1.424759    12A     -1.387147
      13A     -1.307710    14A     -1.243474    15A     -1.108743
      16A     -0.992045    17A     -0.957996    18A     -0.912932
      19A     -0.850524    20A     -0.771093    21A     -0.734638
      22A     -0.693111    23A     -0.682777    24A     -0.649802
      25A     -0.638342    26A     -0.615192    27A     -0.609335
      28A     -0.589798    29A     -0.572652    30A     -0.556994
      31A     -0.546385    32A     -0.522983    33A     -0.484558
      34A     -0.475958    35A     -0.444541    36A     -0.430620
      37A     -0.345204

  @DF-RHF Final Energy:  -490.69189451457004

   => Energetics <=

    Nuclear Repulsion Energy =            529.5791178732929438
    One-Electron Energy =               -1718.9053325735471844
    Two-Electron Energy =                 698.6343201856841461
    Total Energy =                       -490.6918945145700945
  Basis Set: (AUG-CC-PVTZ AUX)
    Blend: AUG-CC-PVTZ-RI
    Molecular point group: c1

    Geometry (in Angstrom), charge = 0, multiplicity = 1:

       Center              X                  Y                   Z               Mass
    ------------   -----------------  -----------------  -----------------  -----------------
         O            2.309207180563    -1.331845827980     0.001215708141    15.994914619570
         O           -2.273834819437    -1.423734827980     0.001026708141    15.994914619570
         N            1.180656180563     0.692060172020     0.001212708141    14.003074004430
         N            0.013389180563    -1.309629827980     0.001123708141    14.003074004430
         C           -1.236628819437     0.731282172020     0.001132708141    12.000000000000
         C           -0.033879819437     1.356303172020     0.001192708141    12.000000000000
         C            1.258630180563    -0.694317827980     0.001188708141    12.000000000000
         C           -1.256247819437    -0.728954827980     0.001090708141    12.000000000000
         C            2.422387180563     1.460819172020     0.001281708141    12.000000000000
         C           -2.552430819437     1.442355172020     0.001100708141    12.000000000000
         H            0.049713180563     2.440529172020     0.001226708141     1.007825032230
         H            0.044226180563    -2.326992827980     0.001096708141     1.007825032230
         H            2.478061180563     2.087548172020     0.894672708141     1.007825032230
         H            2.477917180563     2.087904172020    -0.891920291859     1.007825032230
         H            3.244718180563     0.748859172020     0.001105708141     1.007825032230
         H           -3.246895119437     1.110039672020    -1.038144691859     1.007825032230
         H           -2.412269819437     2.527067172020     0.001134708141     1.007825032230
         H           -3.139570819437     1.161382172020     0.879580708141     1.007825032230

  Basis Set: AUG-CC-PVTZ
    Blend: AUG-CC-PVTZ
  Basis Set: (AUG-CC-PVTZ AUX)
    Blend: AUG-CC-PVTZ-JKFIT
	 Reference Energy          =    -490.6918945145700377 [Eh]
	 Singles Energy            =      -0.0000000000000000 [Eh]
	 Same-Spin Energy          =      -0.5024703012819821 [Eh]
	 Opposite-Spin Energy      =      -1.5430943915419988 [Eh]
	 Correlation Energy        =      -2.0455646928239810 [Eh]
	 Total Energy              =    -492.7374592073940107 [Eh]

	 ================> DF-SCS-MP2 Energies <==================
	-----------------------------------------------------------
	 SCS Same-Spin Scale       =       0.3333333333333333 [-]
	 SCS Opposite-Spin Scale   =       1.2000000000000000 [-]
	 SCS Same-Spin Energy      =      -0.1674901004273274 [Eh]
	 SCS Opposite-Spin Energy  =      -1.8517132698503984 [Eh]
	 SCS Correlation Energy    =      -2.0192033702777259 [Eh]
	 SCS Total Energy          =    -492.7110978848477885 [Eh]
	-----------------------------------------------------------

  Dipole Moment: [D]
     X:     1.1448      Y:     4.4977      Z:     0.0616     Total:     4.6415

*** Psi4 exiting successfully. Buy a developer a beer!
