                               Psi4 1.3.2 release

  ==> Input File <==

--------------------------------------------------------------------------
#psi4
#
memory 32 gb

molecule  {
0 1
  O        2.3111590    -1.3984000     0.0000580
  O       -2.2718830    -1.4902890    -0.0001310
  N        1.1826080     0.6255060     0.0000550
  N        0.0153410    -1.3761840    -0.0000340
  C       -1.2346770     0.6647280    -0.0000250
  C       -0.0319280     1.2897490     0.0000350
  C        1.2605820    -0.7608720     0.0000310
  C       -1.0891239    -0.6827341    -0.0000566
  C        2.4243390     1.3942650     0.0001240
  C       -2.5504790     1.3758010    -0.0000570
  H        0.0516650     2.3739750     0.0000690
  H        0.0461780    -2.3935470    -0.0000610
  H        2.4800130     2.0209940     0.8935150
  H        2.4798690     2.0213500    -0.8930780
  H        3.2466700     0.6823050    -0.0000520
  H       -3.1375530     1.0948740    -0.8785960
  H       -2.4103180     2.4605130    -0.0000230
  H       -3.1376190     1.0948280     0.8784230
units angstrom
no_reorient  #important for SAPT in psi4, default
symmetry c1  #important for SAPT in psi4, default
}

set PROPERTIES_ORIGIN ["COM"]
properties('MP2/aug-cc-pvtz', properties = ['dipole'])
--------------------------------------------------------------------------

    Molecular point group: c1
  Charge       = 0
  Multiplicity = 1
  Basis Set: AUG-CC-PVTZ
    Blend: AUG-CC-PVTZ
  Basis Set: (AUG-CC-PVTZ AUX)
    Blend: AUG-CC-PVTZ-JKFIT

    Orbital Energies [Eh]
    ---------------------

    Doubly Occupied:

       1A    -20.553308     2A    -20.493050     3A    -15.657435
       4A    -15.647371     5A    -11.424526     6A    -11.365666
       7A    -11.342815     8A    -11.297726     9A    -11.262830
      10A    -11.240698    11A     -1.440670    12A     -1.347529
      13A     -1.303595    14A     -1.213101    15A     -1.130030
      16A     -1.003544    17A     -0.974687    18A     -0.943099
      19A     -0.871385    20A     -0.785422    21A     -0.772156
      22A     -0.701902    23A     -0.698781    24A     -0.655176
      25A     -0.637987    26A     -0.625419    27A     -0.603018
      28A     -0.587530    29A     -0.572488    30A     -0.563312
      31A     -0.528985    32A     -0.521182    33A     -0.500837
      34A     -0.473245    35A     -0.406391    36A     -0.403633
      37A     -0.350042

  @DF-RHF Final Energy:  -490.64573601076876

   => Energetics <=

    Nuclear Repulsion Energy =            532.0258372638223818
    One-Electron Energy =               -1723.5420005363632754
    Two-Electron Energy =                 700.8704272617719653
    Total Energy =                       -490.6457360107688146
  Basis Set: (AUG-CC-PVTZ AUX)
    Blend: AUG-CC-PVTZ-RI
    Molecular point group: c1

    Geometry (in Angstrom), charge = 0, multiplicity = 1:

       Center              X                  Y                   Z               Mass
    ------------   -----------------  -----------------  -----------------  -----------------
         O            2.294282740591    -1.341877983394     0.000058415702    15.994914619570
         O           -2.288759259409    -1.433766983394    -0.000130584298    15.994914619570
         N            1.165731740591     0.682028016606     0.000055415702    14.003074004430
         N           -0.001535259409    -1.319661983394    -0.000033584298    14.003074004430
         C           -1.251553259409     0.721250016606    -0.000024584298    12.000000000000
         C           -0.048804259409     1.346271016606     0.000035415702    12.000000000000
         C            1.243705740591    -0.704349983394     0.000031415702    12.000000000000
         C           -1.106000159409    -0.626212083394    -0.000056184298    12.000000000000
         C            2.407462740591     1.450787016606     0.000124415702    12.000000000000
         C           -2.567355259409     1.432323016606    -0.000056584298    12.000000000000
         H            0.034788740591     2.430497016606     0.000069415702     1.007825032230
         H            0.029301740591    -2.337024983394    -0.000060584298     1.007825032230
         H            2.463136740591     2.077516016606     0.893515415702     1.007825032230
         H            2.462992740591     2.077872016606    -0.893077584298     1.007825032230
         H            3.229793740591     0.738827016606    -0.000051584298     1.007825032230
         H           -3.154429259409     1.151396016606    -0.878595584298     1.007825032230
         H           -2.427194259409     2.517035016606    -0.000022584298     1.007825032230
         H           -3.154495259409     1.151350016606     0.878423415702     1.007825032230

  Basis Set: AUG-CC-PVTZ
    Blend: AUG-CC-PVTZ
  Basis Set: (AUG-CC-PVTZ AUX)
    Blend: AUG-CC-PVTZ-JKFIT
	 Reference Energy          =    -490.6457360107687578 [Eh]
	 Singles Energy            =      -0.0000000000000000 [Eh]
	 Same-Spin Energy          =      -0.5075992270067662 [Eh]
	 Opposite-Spin Energy      =      -1.5500872228235125 [Eh]
	 Correlation Energy        =      -2.0576864498302787 [Eh]
	 Total Energy              =    -492.7034224605990289 [Eh]

	 ================> DF-SCS-MP2 Energies <==================
	-----------------------------------------------------------
	 SCS Same-Spin Scale       =       0.3333333333333333 [-]
	 SCS Opposite-Spin Scale   =       1.2000000000000000 [-]
	 SCS Same-Spin Energy      =      -0.1691997423355887 [Eh]
	 SCS Opposite-Spin Energy  =      -1.8601046673882149 [Eh]
	 SCS Correlation Energy    =      -2.0293044097238035 [Eh]
	 SCS Total Energy          =    -492.6750404204925644 [Eh]
	-----------------------------------------------------------

  Dipole Moment: [D]
     X:     2.4506      Y:     5.2876      Z:     0.0002     Total:     5.8278

*** Psi4 exiting successfully. Buy a developer a beer!
