                               Psi4 1.3.2 release

  ==> Input File <==

--------------------------------------------------------------------------
#psi4
#
memory 32 gb

molecule  {
0 1
  O        2.3111590    -1.3984000     0.0000580
  O       -2.2718830    -1.4902890    -0.0001310
  N        1.1826080     0.6255060     0.0000550
  N        0.0153410    -1.3761840    -0.0000340
  C       -1.2400855     0.6752476    -0.0000249
  C       -0.0319280     1.2897490     0.0000350
  C        1.2605820    -0.7608720     0.0000310
  C       -1.2542960    -0.7955090    -0.0000670
  C        2.4243390     1.3942650     0.0001240
  C       -2.5504790     1.3758010    -0.0000570
  H        0.0422003     2.3746632     0.0000687
  H        0.0461780    -2.3935470    -0.0000610
  H        2.4800130     2.0209940     0.8935150
  H        2.4798690     2.0213500    -0.8930780
  H        3.2466700     0.6823050    -0.0000520
  H       -3.1375530     1.0948740    -0.8785960
  H       -2.4103180     2.4605130    -0.0000230
  H       -3.1376190     1.0948280     0.8784230
units angstrom
no_reorient  #important for SAPT in psi4, default
symmetry c1  #important for SAPT in psi4, default
}

set PROPERTIES_ORIGIN ["COM"]
properties('MP2/aug-cc-pvtz', properties = ['dipole'])
--------------------------------------------------------------------------

    Molecular point group: c1
  Charge       = 0
  Multiplicity = 1
  Basis Set: AUG-CC-PVTZ
    Blend: AUG-CC-PVTZ
  Basis Set: (AUG-CC-PVTZ AUX)
    Blend: AUG-CC-PVTZ-JKFIT

    Orbital Energies [Eh]
    ---------------------

    Doubly Occupied:

       1A    -20.540624     2A    -20.538982     3A    -15.638133
       4A    -15.624880     5A    -11.413799     6A    -11.376916
       7A    -11.323985     8A    -11.285805     9A    -11.260159
      10A    -11.236816    11A     -1.424058    12A     -1.387095
      13A     -1.306452    14A     -1.242886    15A     -1.109406
      16A     -0.993365    17A     -0.964485    18A     -0.912283
      19A     -0.852992    20A     -0.770391    21A     -0.734776
      22A     -0.691368    23A     -0.681986    24A     -0.649629
      25A     -0.637665    26A     -0.615521    27A     -0.609350
      28A     -0.589624    29A     -0.584754    30A     -0.557627
      31A     -0.547710    32A     -0.543249    33A     -0.487757
      34A     -0.474991    35A     -0.443964    36A     -0.430737
      37A     -0.345578

  @DF-RHF Final Energy:  -490.71189781436891

   => Energetics <=

    Nuclear Repulsion Energy =            530.2414712738107028
    One-Electron Energy =               -1720.2471382657386130
    Two-Electron Energy =                 699.2937691775590565
    Total Energy =                       -490.7118978143688537
  Basis Set: (AUG-CC-PVTZ AUX)
    Blend: AUG-CC-PVTZ-RI
    Molecular point group: c1

    Geometry (in Angstrom), charge = 0, multiplicity = 1:

       Center              X                  Y                   Z               Mass
    ------------   -----------------  -----------------  -----------------  -----------------
         O            2.308965925285    -1.333121861230     0.000059300349    15.994914619570
         O           -2.274076074715    -1.425010861230    -0.000129699651    15.994914619570
         N            1.180414925285     0.690784138770     0.000056300349    14.003074004430
         N            0.013147925285    -1.310905861230    -0.000032699651    14.003074004430
         C           -1.242278574715     0.740525738770    -0.000023599651    12.000000000000
         C           -0.034121074715     1.355027138770     0.000036300349    12.000000000000
         C            1.258388925285    -0.695593861230     0.000032300349    12.000000000000
         C           -1.256489074715    -0.730230861230    -0.000065699651    12.000000000000
         C            2.422145925285     1.459543138770     0.000125300349    12.000000000000
         C           -2.552672074715     1.441079138770    -0.000055699651    12.000000000000
         H            0.040007225285     2.439941338770     0.000070000349     1.007825032230
         H            0.043984925285    -2.328268861230    -0.000059699651     1.007825032230
         H            2.477819925285     2.086272138770     0.893516300349     1.007825032230
         H            2.477675925285     2.086628138770    -0.893076699651     1.007825032230
         H            3.244476925285     0.747583138770    -0.000050699651     1.007825032230
         H           -3.139746074715     1.160152138770    -0.878594699651     1.007825032230
         H           -2.412511074715     2.525791138770    -0.000021699651     1.007825032230
         H           -3.139812074715     1.160106138770     0.878424300349     1.007825032230

  Basis Set: AUG-CC-PVTZ
    Blend: AUG-CC-PVTZ
  Basis Set: (AUG-CC-PVTZ AUX)
    Blend: AUG-CC-PVTZ-JKFIT
	 Reference Energy          =    -490.7118978143689105 [Eh]
	 Singles Energy            =      -0.0000000000000000 [Eh]
	 Same-Spin Energy          =      -0.5023369496409603 [Eh]
	 Opposite-Spin Energy      =      -1.5414149619400876 [Eh]
	 Correlation Energy        =      -2.0437519115810479 [Eh]
	 Total Energy              =    -492.7556497259499793 [Eh]

	 ================> DF-SCS-MP2 Energies <==================
	-----------------------------------------------------------
	 SCS Same-Spin Scale       =       0.3333333333333333 [-]
	 SCS Opposite-Spin Scale   =       1.2000000000000000 [-]
	 SCS Same-Spin Energy      =      -0.1674456498803201 [Eh]
	 SCS Opposite-Spin Energy  =      -1.8496979543281051 [Eh]
	 SCS Correlation Energy    =      -2.0171436042084254 [Eh]
	 SCS Total Energy          =    -492.7290414185773102 [Eh]
	-----------------------------------------------------------

  Dipole Moment: [D]
     X:     1.0220      Y:     4.5002      Z:     0.0002     Total:     4.6148

*** Psi4 exiting successfully. Buy a developer a beer!
