                               Psi4 1.3.2 release

  ==> Input File <==

--------------------------------------------------------------------------
#psi4
#
memory 32 gb

molecule  {
0 1
  O        2.3111590    -1.3984000     0.0000580
  O       -2.2955106    -1.4543525    -0.0001308
  N        1.1826080     0.6255060     0.0000550
  N        0.0348328    -1.3315206    -0.0000318
  C       -1.2346770     0.6647280    -0.0000250
  C       -0.0319280     1.2897490     0.0000350
  C        1.2605820    -0.7608720     0.0000310
  C       -1.2542960    -0.7955090    -0.0000670
  C        2.4243390     1.3942650     0.0001240
  C       -2.5504790     1.3758010    -0.0000570
  H        0.0516650     2.3739750     0.0000690
  H        0.0461780    -2.3935470    -0.0000610
  H        2.4800130     2.0209940     0.8935150
  H        2.4798690     2.0213500    -0.8930780
  H        3.2466700     0.6823050    -0.0000520
  H       -3.1375530     1.0948740    -0.8785960
  H       -2.4103180     2.4605130    -0.0000230
  H       -3.1376190     1.0948280     0.8784230
units angstrom
no_reorient  #important for SAPT in psi4, default
symmetry c1  #important for SAPT in psi4, default
}

set PROPERTIES_ORIGIN ["COM"]
properties('MP2/aug-cc-pvtz', properties = ['dipole'])
--------------------------------------------------------------------------

    Molecular point group: c1
  Charge       = 0
  Multiplicity = 1
  Basis Set: AUG-CC-PVTZ
    Blend: AUG-CC-PVTZ
  Basis Set: (AUG-CC-PVTZ AUX)
    Blend: AUG-CC-PVTZ-JKFIT

    Orbital Energies [Eh]
    ---------------------

    Doubly Occupied:

       1A    -20.543175     2A    -20.538167     3A    -15.635680
       4A    -15.630653     5A    -11.411013     6A    -11.379353
       7A    -11.322987     8A    -11.284286     9A    -11.256914
      10A    -11.235536    11A     -1.426831    12A     -1.388472
      13A     -1.307940    14A     -1.248549    15A     -1.107743
      16A     -0.992256    17A     -0.965602    18A     -0.914072
      19A     -0.859136    20A     -0.770183    21A     -0.727569
      22A     -0.688272    23A     -0.684350    24A     -0.649376
      25A     -0.638588    26A     -0.617124    27A     -0.608858
      28A     -0.587331    29A     -0.584341    30A     -0.552247
      31A     -0.546137    32A     -0.543026    33A     -0.486956
      34A     -0.474199    35A     -0.446871    36A     -0.434463
      37A     -0.344486

  @DF-RHF Final Energy:  -490.70614300698247

   => Energetics <=

    Nuclear Repulsion Energy =            531.3739765609514052
    One-Electron Energy =               -1722.4947587875537920
    Two-Electron Energy =                 700.4146392196198576
    Total Energy =                       -490.7061430069825292
  Basis Set: (AUG-CC-PVTZ AUX)
    Blend: AUG-CC-PVTZ-RI
    Molecular point group: c1

    Geometry (in Angstrom), charge = 0, multiplicity = 1:

       Center              X                  Y                   Z               Mass
    ------------   -----------------  -----------------  -----------------  -----------------
         O            2.309183945244    -1.340785064574     0.000059063962    15.994914619570
         O           -2.297485654756    -1.396737564574    -0.000129736038    15.994914619570
         N            1.180632945244     0.683120935426     0.000056063962    14.003074004430
         N            0.032857745244    -1.273905664574    -0.000030736038    14.003074004430
         C           -1.236652054756     0.722342935426    -0.000023936038    12.000000000000
         C           -0.033903054756     1.347363935426     0.000036063962    12.000000000000
         C            1.258606945244    -0.703257064574     0.000032063962    12.000000000000
         C           -1.256271054756    -0.737894064574    -0.000065936038    12.000000000000
         C            2.422363945244     1.451879935426     0.000125063962    12.000000000000
         C           -2.552454054756     1.433415935426    -0.000055936038    12.000000000000
         H            0.049689945244     2.431589935426     0.000070063962     1.007825032230
         H            0.044202945244    -2.335932064574    -0.000059936038     1.007825032230
         H            2.478037945244     2.078608935426     0.893516063962     1.007825032230
         H            2.477893945244     2.078964935426    -0.893076936038     1.007825032230
         H            3.244694945244     0.739919935426    -0.000050936038     1.007825032230
         H           -3.139528054756     1.152488935426    -0.878594936038     1.007825032230
         H           -2.412293054756     2.518127935426    -0.000021936038     1.007825032230
         H           -3.139594054756     1.152442935426     0.878424063962     1.007825032230

  Basis Set: AUG-CC-PVTZ
    Blend: AUG-CC-PVTZ
  Basis Set: (AUG-CC-PVTZ AUX)
    Blend: AUG-CC-PVTZ-JKFIT
	 Reference Energy          =    -490.7061430069824723 [Eh]
	 Singles Energy            =      -0.0000000000000000 [Eh]
	 Same-Spin Energy          =      -0.5032959561968927 [Eh]
	 Opposite-Spin Energy      =      -1.5425830080336216 [Eh]
	 Correlation Energy        =      -2.0458789642305142 [Eh]
	 Total Energy              =    -492.7520219712129688 [Eh]

	 ================> DF-SCS-MP2 Energies <==================
	-----------------------------------------------------------
	 SCS Same-Spin Scale       =       0.3333333333333333 [-]
	 SCS Opposite-Spin Scale   =       1.2000000000000000 [-]
	 SCS Same-Spin Energy      =      -0.1677653187322976 [Eh]
	 SCS Opposite-Spin Energy  =      -1.8510996096403458 [Eh]
	 SCS Correlation Energy    =      -2.0188649283726434 [Eh]
	 SCS Total Energy          =    -492.7250079353551087 [Eh]
	-----------------------------------------------------------

  Dipole Moment: [D]
     X:     0.9562      Y:     4.3452      Z:     0.0002     Total:     4.4491

*** Psi4 exiting successfully. Buy a developer a beer!
