                               Psi4 1.4a3.dev225

  ==> Input File <==

--------------------------------------------------------------------------
#psi4
#
memory 32 gb

molecule  {
0 1
  O        2.3212770    -1.3580180     0.0000020
  O       -2.2717460    -1.4962290     0.0000010
  N        1.1724310     0.6334210    -0.0000020
  N        0.0162060    -1.3769820    -0.0000020
  C       -1.2398930     0.6613320     0.0000000
  C       -0.0398910     1.2934770    -0.0000010
  C        1.2973770    -0.7300805    -0.0000010
  C       -1.2589250    -0.7964470     0.0000000
  C        2.4447950     1.3519700     0.0000010
  C       -2.5550880     1.3760200     0.0000010
  H        0.0310140     2.3780990    -0.0000010
  H        0.0457120    -2.3937650    -0.0000010
  H        2.2343430     2.4214070    -0.0000200
  H        3.0241620     1.0875710    -0.8862110
  H        3.0241420     1.0876020     0.8862360
  H       -3.1432670     1.0977880    -0.8790540
  H       -2.4120010     2.4600010     0.0000010
  H       -3.1432670     1.0977870     0.8790540
units angstrom
no_reorient  #important for SAPT in psi4, default
symmetry c1  #important for SAPT in psi4, default
}

set PROPERTIES_ORIGIN ["COM"]
properties('MP2/aug-cc-pvtz', properties = ['dipole'])
--------------------------------------------------------------------------

    Molecular point group: c1
  Charge       = 0
  Multiplicity = 1
  Basis Set: AUG-CC-PVTZ
    Blend: AUG-CC-PVTZ
  Basis Set: (AUG-CC-PVTZ AUX)
    Blend: AUG-CC-PVTZ-JKFIT

    Orbital Energies [Eh]
    ---------------------

    Doubly Occupied:

       1A    -20.548147     2A    -20.533413     3A    -15.639372
       4A    -15.616238     5A    -11.411686     6A    -11.371131
       7A    -11.325798     8A    -11.290033     9A    -11.257460
      10A    -11.235861    11A     -1.437115    12A     -1.385347
      13A     -1.314717    14A     -1.228969    15A     -1.108645
      16A     -0.994468    17A     -0.965166    18A     -0.910947
      19A     -0.843601    20A     -0.770047    21A     -0.728660
      22A     -0.695820    23A     -0.685631    24A     -0.649086
      25A     -0.643432    26A     -0.609818    27A     -0.608114
      28A     -0.591851    29A     -0.581601    30A     -0.558384
      31A     -0.546970    32A     -0.543016    33A     -0.494662
      34A     -0.481501    35A     -0.439887    36A     -0.425841
      37A     -0.345099

  @DF-RHF Final Energy:  -490.71067480393498

   => Energetics <=

    Nuclear Repulsion Energy =            530.6857329190645487
    One-Electron Energy =               -1721.1577528610050649
    Two-Electron Energy =                 699.7613451380055949
    Total Energy =                       -490.7106748039349213
  Basis Set: (AUG-CC-PVTZ AUX)
    Blend: AUG-CC-PVTZ-RI
    Molecular point group: c1

    Geometry (in Angstrom), charge = 0, multiplicity = 1:

       Center              X                  Y                   Z               Mass
    ------------   -----------------  -----------------  -----------------  -----------------
         O            2.315026043768    -1.294604868836     0.000002028533    15.994914619570
         O           -2.277996956232    -1.432815868836     0.000001028533    15.994914619570
         N            1.166180043768     0.696834131164    -0.000001971467    14.003074004430
         N            0.009955043768    -1.313568868836    -0.000001971467    14.003074004430
         C           -1.246143956232     0.724745131164     0.000000028533    12.000000000000
         C           -0.046141956232     1.356890131164    -0.000000971467    12.000000000000
         C            1.291126043768    -0.666667368836    -0.000000971467    12.000000000000
         C           -1.265175956232    -0.733033868836     0.000000028533    12.000000000000
         C            2.438544043768     1.415383131164     0.000001028533    12.000000000000
         C           -2.561338956232     1.439433131164     0.000001028533    12.000000000000
         H            0.024763043768     2.441512131164    -0.000000971467     1.007825032230
         H            0.039461043768    -2.330351868836    -0.000000971467     1.007825032230
         H            2.228092043768     2.484820131164    -0.000019971467     1.007825032230
         H            3.017911043768     1.150984131164    -0.886210971467     1.007825032230
         H            3.017891043768     1.151015131164     0.886236028533     1.007825032230
         H           -3.149517956232     1.161201131164    -0.879053971467     1.007825032230
         H           -2.418251956232     2.523414131164     0.000001028533     1.007825032230
         H           -3.149517956232     1.161200131164     0.879054028533     1.007825032230

  Basis Set: AUG-CC-PVTZ
    Blend: AUG-CC-PVTZ
  Basis Set: (AUG-CC-PVTZ AUX)
    Blend: AUG-CC-PVTZ-JKFIT
	 Reference Energy          =    -490.7106748039349782 [Eh]
	 Singles Energy            =      -0.0000000000000000 [Eh]
	 Same-Spin Energy          =      -0.5019663770949683 [Eh]
	 Opposite-Spin Energy      =      -1.5408269493822560 [Eh]
	 Correlation Energy        =      -2.0427933264772244 [Eh]
	 Total Energy              =    -492.7534681304122159 [Eh]

	 ================> DF-SCS-MP2 Energies <==================
	-----------------------------------------------------------
	 SCS Same-Spin Scale       =       0.3333333333333333 [-]
	 SCS Opposite-Spin Scale   =       1.2000000000000000 [-]
	 SCS Same-Spin Energy      =      -0.1673221256983227 [Eh]
	 SCS Opposite-Spin Energy  =      -1.8489923392587071 [Eh]
	 SCS Correlation Energy    =      -2.0163144649570297 [Eh]
	 SCS Total Energy          =    -492.7269892688919981 [Eh]
	-----------------------------------------------------------

  Dipole Moment: [D]
     X:     1.4292      Y:     4.5922      Z:    -0.0000     Total:     4.8095

*** Psi4 exiting successfully. Buy a developer a beer!
