                               Psi4 1.3.2 release

  ==> Input File <==

--------------------------------------------------------------------------
#psi4
#
memory 32 gb

molecule  {
0 1
  O        2.3111590    -1.3984000     0.0000580
  O       -2.2718830    -1.4902890    -0.0001310
  N        1.1826080     0.6255060     0.0000550
  N        0.0153410    -1.3761840    -0.0000340
  C       -1.2346770     0.6647280    -0.0000250
  C       -0.0319280     1.2897490     0.0000350
  C        1.2605820    -0.7608720     0.0000310
  C       -1.2542960    -0.7955090    -0.0000670
  C        2.4243390     1.3942650     0.0001240
  C       -2.5504790     1.3758010    -0.0000570
  H        0.0516650     2.3739750     0.0000690
  H        0.0461780    -2.3935470    -0.0000610
  H        2.4800130     2.0209940     0.8935150
  H        2.4641991     2.0305953    -0.8873578
  H        3.2403820     0.6752913     0.0164300
  H       -3.1375530     1.0948740    -0.8785960
  H       -2.4103180     2.4605130    -0.0000230
  H       -3.1376190     1.0948280     0.8784230
units angstrom
no_reorient  #important for SAPT in psi4, default
symmetry c1  #important for SAPT in psi4, default
}

set PROPERTIES_ORIGIN ["COM"]
properties('MP2/aug-cc-pvtz', properties = ['dipole'])
--------------------------------------------------------------------------

    Molecular point group: c1
  Charge       = 0
  Multiplicity = 1
  Basis Set: AUG-CC-PVTZ
    Blend: AUG-CC-PVTZ
  Basis Set: (AUG-CC-PVTZ AUX)
    Blend: AUG-CC-PVTZ-JKFIT

    Orbital Energies [Eh]
    ---------------------

    Doubly Occupied:

       1A    -20.540591     2A    -20.538561     3A    -15.637949
       4A    -15.624625     5A    -11.413731     6A    -11.376229
       7A    -11.324909     8A    -11.286023     9A    -11.259662
      10A    -11.237141    11A     -1.424169    12A     -1.387038
      13A     -1.306810    14A     -1.242954    15A     -1.109043
      16A     -0.993198    17A     -0.963887    18A     -0.914299
      19A     -0.852542    20A     -0.770873    21A     -0.734778
      22A     -0.692190    23A     -0.682041    24A     -0.649156
      25A     -0.637901    26A     -0.615474    27A     -0.609639
      28A     -0.590315    29A     -0.583940    30A     -0.555620
      31A     -0.548058    32A     -0.543085    33A     -0.487708
      34A     -0.475359    35A     -0.444363    36A     -0.430635
      37A     -0.345842

  @DF-RHF Final Energy:  -490.71183854728935

   => Energetics <=

    Nuclear Repulsion Energy =            530.4191032680854505
    One-Electron Energy =               -1720.6012052778135057
    Two-Electron Energy =                 699.4702634624388793
    Total Energy =                       -490.7118385472892896
  Basis Set: (AUG-CC-PVTZ AUX)
    Blend: AUG-CC-PVTZ-RI
    Molecular point group: c1

    Geometry (in Angstrom), charge = 0, multiplicity = 1:

       Center              X                  Y                   Z               Mass
    ------------   -----------------  -----------------  -----------------  -----------------
         O            2.308592431271    -1.332231664249    -0.000100454488    15.994914619570
         O           -2.274449568729    -1.424120664249    -0.000289454488    15.994914619570
         N            1.180041431271     0.691674335751    -0.000103454488    14.003074004430
         N            0.012774431271    -1.310015664249    -0.000192454488    14.003074004430
         C           -1.237243568729     0.730896335751    -0.000183454488    12.000000000000
         C           -0.034494568729     1.355917335751    -0.000123454488    12.000000000000
         C            1.258015431271    -0.694703664249    -0.000127454488    12.000000000000
         C           -1.256862568729    -0.729340664249    -0.000225454488    12.000000000000
         C            2.421772431271     1.460433335751    -0.000034454488    12.000000000000
         C           -2.553045568729     1.441969335751    -0.000215454488    12.000000000000
         H            0.049098431271     2.440143335751    -0.000089454488     1.007825032230
         H            0.043611431271    -2.327378664249    -0.000219454488     1.007825032230
         H            2.477446431271     2.087162335751     0.893356545512     1.007825032230
         H            2.461632531271     2.096763635751    -0.887516254488     1.007825032230
         H            3.237815431271     0.741459635751     0.016271545512     1.007825032230
         H           -3.140119568729     1.161042335751    -0.878754454488     1.007825032230
         H           -2.412884568729     2.526681335751    -0.000181454488     1.007825032230
         H           -3.140185568729     1.160996335751     0.878264545512     1.007825032230

  Basis Set: AUG-CC-PVTZ
    Blend: AUG-CC-PVTZ
  Basis Set: (AUG-CC-PVTZ AUX)
    Blend: AUG-CC-PVTZ-JKFIT
	 Reference Energy          =    -490.7118385472893465 [Eh]
	 Singles Energy            =      -0.0000000000000000 [Eh]
	 Same-Spin Energy          =      -0.5024131392929072 [Eh]
	 Opposite-Spin Energy      =      -1.5414941463226624 [Eh]
	 Correlation Energy        =      -2.0439072856155693 [Eh]
	 Total Energy              =    -492.7557458329048927 [Eh]

	 ================> DF-SCS-MP2 Energies <==================
	-----------------------------------------------------------
	 SCS Same-Spin Scale       =       0.3333333333333333 [-]
	 SCS Opposite-Spin Scale   =       1.2000000000000000 [-]
	 SCS Same-Spin Energy      =      -0.1674710464309691 [Eh]
	 SCS Opposite-Spin Energy  =      -1.8497929755871947 [Eh]
	 SCS Correlation Energy    =      -2.0172640220181637 [Eh]
	 SCS Total Energy          =    -492.7291025693074857 [Eh]
	-----------------------------------------------------------

  Dipole Moment: [D]
     X:     1.0389      Y:     4.5242      Z:     0.0111     Total:     4.6420

*** Psi4 exiting successfully. Buy a developer a beer!
