                               Psi4 1.4a3.dev225

  ==> Input File <==

--------------------------------------------------------------------------
#psi4
#
memory 32 gb

molecule  {
0 1
  O        2.3212770    -1.3580180     0.0000020
  O       -2.2717460    -1.4962290     0.0000010
  N        1.1724310     0.6334210    -0.0000020
  N        0.0162060    -1.3769820    -0.0000020
  C       -1.2398930     0.6613320     0.0000000
  C       -0.0398910     1.2934770    -0.0000010
  C        1.2527440    -0.7526170    -0.0000010
  C       -1.2771273    -0.7881599     0.0000000
  C        2.4447950     1.3519700     0.0000010
  C       -2.5550880     1.3760200     0.0000010
  H        0.0310140     2.3780990    -0.0000010
  H        0.0457120    -2.3937650    -0.0000010
  H        2.2343430     2.4214070    -0.0000200
  H        3.0241620     1.0875710    -0.8862110
  H        3.0241420     1.0876020     0.8862360
  H       -3.1432670     1.0977880    -0.8790540
  H       -2.4120010     2.4600010     0.0000010
  H       -3.1432670     1.0977870     0.8790540
units angstrom
no_reorient  #important for SAPT in psi4, default
symmetry c1  #important for SAPT in psi4, default
}

set PROPERTIES_ORIGIN ["COM"]
properties('MP2/aug-cc-pvtz', properties = ['dipole'])
--------------------------------------------------------------------------

    Molecular point group: c1
  Charge       = 0
  Multiplicity = 1
  Basis Set: AUG-CC-PVTZ
    Blend: AUG-CC-PVTZ
  Basis Set: (AUG-CC-PVTZ AUX)
    Blend: AUG-CC-PVTZ-JKFIT

    Orbital Energies [Eh]
    ---------------------

    Doubly Occupied:

       1A    -20.540969     2A    -20.539178     3A    -15.638072
       4A    -15.621419     5A    -11.409479     6A    -11.376321
       7A    -11.327806     8A    -11.288297     9A    -11.256615
      10A    -11.236707    11A     -1.423406    12A     -1.393205
      13A     -1.305700    14A     -1.238525    15A     -1.109983
      16A     -0.993361    17A     -0.961492    18A     -0.914720
      19A     -0.849097    20A     -0.770627    21A     -0.732986
      22A     -0.694176    23A     -0.681779    24A     -0.650902
      25A     -0.636535    26A     -0.612429    27A     -0.611600
      28A     -0.590492    29A     -0.581041    30A     -0.557667
      31A     -0.549087    32A     -0.541708    33A     -0.491569
      34A     -0.475549    35A     -0.444701    36A     -0.429589
      37A     -0.344367

  @DF-RHF Final Energy:  -490.71242572754971

   => Energetics <=

    Nuclear Repulsion Energy =            530.6761292626598561
    One-Electron Energy =               -1721.1348072602272623
    Two-Electron Energy =                 699.7462522700177487
    Total Energy =                       -490.7124257275497712
  Basis Set: (AUG-CC-PVTZ AUX)
    Blend: AUG-CC-PVTZ-RI
    Molecular point group: c1

    Geometry (in Angstrom), charge = 0, multiplicity = 1:

       Center              X                  Y                   Z               Mass
    ------------   -----------------  -----------------  -----------------  -----------------
         O            2.320409674057    -1.293384002517     0.000002028533    15.994914619570
         O           -2.272613325943    -1.431595002517     0.000001028533    15.994914619570
         N            1.171563674057     0.698054997483    -0.000001971467    14.003074004430
         N            0.015338674057    -1.312348002517    -0.000001971467    14.003074004430
         C           -1.240760325943     0.725965997483     0.000000028533    12.000000000000
         C           -0.040758325943     1.358110997483    -0.000000971467    12.000000000000
         C            1.251876674057    -0.687983002517    -0.000000971467    12.000000000000
         C           -1.277994625943    -0.723525902517     0.000000028533    12.000000000000
         C            2.443927674057     1.416603997483     0.000001028533    12.000000000000
         C           -2.555955325943     1.440653997483     0.000001028533    12.000000000000
         H            0.030146674057     2.442732997483    -0.000000971467     1.007825032230
         H            0.044844674057    -2.329131002517    -0.000000971467     1.007825032230
         H            2.233475674057     2.486040997483    -0.000019971467     1.007825032230
         H            3.023294674057     1.152204997483    -0.886210971467     1.007825032230
         H            3.023274674057     1.152235997483     0.886236028533     1.007825032230
         H           -3.144134325943     1.162421997483    -0.879053971467     1.007825032230
         H           -2.412868325943     2.524634997483     0.000001028533     1.007825032230
         H           -3.144134325943     1.162420997483     0.879054028533     1.007825032230

  Basis Set: AUG-CC-PVTZ
    Blend: AUG-CC-PVTZ
  Basis Set: (AUG-CC-PVTZ AUX)
    Blend: AUG-CC-PVTZ-JKFIT
	 Reference Energy          =    -490.7124257275497143 [Eh]
	 Singles Energy            =      -0.0000000000000000 [Eh]
	 Same-Spin Energy          =      -0.5022770821854803 [Eh]
	 Opposite-Spin Energy      =      -1.5411113948057766 [Eh]
	 Correlation Energy        =      -2.0433884769912569 [Eh]
	 Total Energy              =    -492.7558142045409681 [Eh]

	 ================> DF-SCS-MP2 Energies <==================
	-----------------------------------------------------------
	 SCS Same-Spin Scale       =       0.3333333333333333 [-]
	 SCS Opposite-Spin Scale   =       1.2000000000000000 [-]
	 SCS Same-Spin Energy      =      -0.1674256940618268 [Eh]
	 SCS Opposite-Spin Energy  =      -1.8493336737669319 [Eh]
	 SCS Correlation Energy    =      -2.0167593678287585 [Eh]
	 SCS Total Energy          =    -492.7291850953784547 [Eh]
	-----------------------------------------------------------

  Dipole Moment: [D]
     X:     0.9652      Y:     4.5353      Z:    -0.0000     Total:     4.6369

*** Psi4 exiting successfully. Buy a developer a beer!
