                               Psi4 1.3.2 release

  ==> Input File <==

--------------------------------------------------------------------------
#psi4
#
memory 32 gb

molecule  {
0 1
  O        2.3111590    -1.3984000     0.0000580
  O       -2.2718830    -1.4902890    -0.0001310
  N        1.1826080     0.6255060     0.0000550
  N        0.0153410    -1.3761840    -0.0000340
  C       -1.2346770     0.6647280    -0.0000250
  C       -0.0319280     1.2897490     0.0000350
  C        1.2605820    -0.7608720     0.0000310
  C       -1.2797777    -0.7949442    -0.0000680
  C        2.4243390     1.3942650     0.0001240
  C       -2.5626885     1.3527288    -0.0000581
  H        0.0516650     2.3739750     0.0000690
  H        0.0461780    -2.3935470    -0.0000610
  H        2.4800130     2.0209940     0.8935150
  H        2.4798690     2.0213500    -0.8930780
  H        3.2466700     0.6823050    -0.0000520
  H       -3.1375530     1.0948740    -0.8785960
  H       -2.4103180     2.4605130    -0.0000230
  H       -3.1376190     1.0948280     0.8784230
units angstrom
no_reorient  #important for SAPT in psi4, default
symmetry c1  #important for SAPT in psi4, default
}

set PROPERTIES_ORIGIN ["COM"]
properties('MP2/aug-cc-pvtz', properties = ['dipole'])
--------------------------------------------------------------------------

    Molecular point group: c1
  Charge       = 0
  Multiplicity = 1
  Basis Set: AUG-CC-PVTZ
    Blend: AUG-CC-PVTZ
  Basis Set: (AUG-CC-PVTZ AUX)
    Blend: AUG-CC-PVTZ-JKFIT

    Orbital Energies [Eh]
    ---------------------

    Doubly Occupied:

       1A    -20.543677     2A    -20.538029     3A    -15.636813
       4A    -15.619835     5A    -11.411177     6A    -11.376242
       7A    -11.325707     8A    -11.284999     9A    -11.258898
      10A    -11.237179    11A     -1.423185    12A     -1.398872
      13A     -1.305316    14A     -1.237114    15A     -1.108664
      16A     -0.992409    17A     -0.962784    18A     -0.911590
      19A     -0.848489    20A     -0.769743    21A     -0.730685
      22A     -0.692667    23A     -0.680334    24A     -0.651928
      25A     -0.637709    26A     -0.616407    27A     -0.612446
      28A     -0.588231    29A     -0.587894    30A     -0.555294
      31A     -0.548066    32A     -0.542245    33A     -0.487534
      34A     -0.475209    35A     -0.444789    36A     -0.430702
      37A     -0.346481

  @DF-RHF Final Energy:  -490.71160646282817

   => Energetics <=

    Nuclear Repulsion Energy =            530.3106348984396163
    One-Electron Energy =               -1720.4057999684780498
    Two-Electron Energy =                 699.3835586072103752
    Total Energy =                       -490.7116064628281720
  Basis Set: (AUG-CC-PVTZ AUX)
    Blend: AUG-CC-PVTZ-RI
    Molecular point group: c1

    Geometry (in Angstrom), charge = 0, multiplicity = 1:

       Center              X                  Y                   Z               Mass
    ------------   -----------------  -----------------  -----------------  -----------------
         O            2.311663751046    -1.330287207385     0.000059486683    15.994914619570
         O           -2.271378248954    -1.422176207385    -0.000129513317    15.994914619570
         N            1.183112751046     0.693618792615     0.000056486683    14.003074004430
         N            0.015845751046    -1.308071207385    -0.000032513317    14.003074004430
         C           -1.234172248954     0.732840792615    -0.000023513317    12.000000000000
         C           -0.031423248954     1.357861792615     0.000036486683    12.000000000000
         C            1.261086751046    -0.692759207385     0.000032486683    12.000000000000
         C           -1.279272948954    -0.726831407385    -0.000066513317    12.000000000000
         C            2.424843751046     1.462377792615     0.000125486683    12.000000000000
         C           -2.562183748954     1.420841592615    -0.000056613317    12.000000000000
         H            0.052169751046     2.442087792615     0.000070486683     1.007825032230
         H            0.046682751046    -2.325434207385    -0.000059513317     1.007825032230
         H            2.480517751046     2.089106792615     0.893516486683     1.007825032230
         H            2.480373751046     2.089462792615    -0.893076513317     1.007825032230
         H            3.247174751046     0.750417792615    -0.000050513317     1.007825032230
         H           -3.137048248954     1.162986792615    -0.878594513317     1.007825032230
         H           -2.409813248954     2.528625792615    -0.000021513317     1.007825032230
         H           -3.137114248954     1.162940792615     0.878424486683     1.007825032230

  Basis Set: AUG-CC-PVTZ
    Blend: AUG-CC-PVTZ
  Basis Set: (AUG-CC-PVTZ AUX)
    Blend: AUG-CC-PVTZ-JKFIT
	 Reference Energy          =    -490.7116064628281720 [Eh]
	 Singles Energy            =      -0.0000000000000000 [Eh]
	 Same-Spin Energy          =      -0.5019982588490824 [Eh]
	 Opposite-Spin Energy      =      -1.5408217082274167 [Eh]
	 Correlation Energy        =      -2.0428199670764990 [Eh]
	 Total Energy              =    -492.7544264299046972 [Eh]

	 ================> DF-SCS-MP2 Energies <==================
	-----------------------------------------------------------
	 SCS Same-Spin Scale       =       0.3333333333333333 [-]
	 SCS Opposite-Spin Scale   =       1.2000000000000000 [-]
	 SCS Same-Spin Energy      =      -0.1673327529496941 [Eh]
	 SCS Opposite-Spin Energy  =      -1.8489860498729001 [Eh]
	 SCS Correlation Energy    =      -2.0163188028225942 [Eh]
	 SCS Total Energy          =    -492.7279252656507538 [Eh]
	-----------------------------------------------------------

  Dipole Moment: [D]
     X:     0.8421      Y:     4.4788      Z:     0.0002     Total:     4.5573

*** Psi4 exiting successfully. Buy a developer a beer!
