                               Psi4 1.3.2 release

  ==> Input File <==

--------------------------------------------------------------------------
#psi4
#
memory 32 gb

molecule  {
0 1
  O        2.3327684    -1.3613470     0.0000598
  O       -2.2718830    -1.4902890    -0.0001310
  N        1.1826080     0.6255060     0.0000550
  N       -0.0053745    -1.3323509    -0.0000338
  C       -1.2346770     0.6647280    -0.0000250
  C       -0.0319280     1.2897490     0.0000350
  C        1.2605820    -0.7608720     0.0000310
  C       -1.2542960    -0.7955090    -0.0000670
  C        2.4243390     1.3942650     0.0001240
  C       -2.5504790     1.3758010    -0.0000570
  H        0.0516650     2.3739750     0.0000690
  H        0.0461780    -2.3935470    -0.0000610
  H        2.4800130     2.0209940     0.8935150
  H        2.4798690     2.0213500    -0.8930780
  H        3.2466700     0.6823050    -0.0000520
  H       -3.1375530     1.0948740    -0.8785960
  H       -2.4103180     2.4605130    -0.0000230
  H       -3.1376190     1.0948280     0.8784230
units angstrom
no_reorient  #important for SAPT in psi4, default
symmetry c1  #important for SAPT in psi4, default
}

set PROPERTIES_ORIGIN ["COM"]
properties('MP2/aug-cc-pvtz', properties = ['dipole'])
--------------------------------------------------------------------------

    Molecular point group: c1
  Charge       = 0
  Multiplicity = 1
  Basis Set: AUG-CC-PVTZ
    Blend: AUG-CC-PVTZ
  Basis Set: (AUG-CC-PVTZ AUX)
    Blend: AUG-CC-PVTZ-JKFIT

    Orbital Energies [Eh]
    ---------------------

    Doubly Occupied:

       1A    -20.545054     2A    -20.535646     3A    -15.635882
       4A    -15.631506     5A    -11.417160     6A    -11.373439
       7A    -11.322575     8A    -11.284031     9A    -11.257433
      10A    -11.235593    11A     -1.427376    12A     -1.388217
      13A     -1.307958    14A     -1.248024    15A     -1.107513
      16A     -0.992886    17A     -0.965789    18A     -0.914154
      19A     -0.858776    20A     -0.769777    21A     -0.728107
      22A     -0.688900    23A     -0.683815    24A     -0.648881
      25A     -0.641152    26A     -0.617862    27A     -0.606368
      28A     -0.586731    29A     -0.583325    30A     -0.552235
      31A     -0.545994    32A     -0.545161    33A     -0.486850
      34A     -0.476258    35A     -0.445551    36A     -0.433390
      37A     -0.344518

  @DF-RHF Final Energy:  -490.70592248363891

   => Energetics <=

    Nuclear Repulsion Energy =            531.3884109986601061
    One-Electron Energy =               -1722.5208943554837333
    Two-Electron Energy =                 700.4265608731848261
    Total Energy =                       -490.7059224836389149
  Basis Set: (AUG-CC-PVTZ AUX)
    Blend: AUG-CC-PVTZ-RI
    Molecular point group: c1

    Geometry (in Angstrom), charge = 0, multiplicity = 1:

       Center              X                  Y                   Z               Mass
    ------------   -----------------  -----------------  -----------------  -----------------
         O            2.329647138006    -1.303776557171     0.000060881199    15.994914619570
         O           -2.275004261994    -1.432718557171    -0.000129918801    15.994914619570
         N            1.179486738006     0.683076442829     0.000056081199    14.003074004430
         N           -0.008495761994    -1.274780457171    -0.000032718801    14.003074004430
         C           -1.237798261994     0.722298442829    -0.000023918801    12.000000000000
         C           -0.035049261994     1.347319442829     0.000036081199    12.000000000000
         C            1.257460738006    -0.703301557171     0.000032081199    12.000000000000
         C           -1.257417261994    -0.737938557171    -0.000065918801    12.000000000000
         C            2.421217738006     1.451835442829     0.000125081199    12.000000000000
         C           -2.553600261994     1.433371442829    -0.000055918801    12.000000000000
         H            0.048543738006     2.431545442829     0.000070081199     1.007825032230
         H            0.043056738006    -2.335976557171    -0.000059918801     1.007825032230
         H            2.476891738006     2.078564442829     0.893516081199     1.007825032230
         H            2.476747738006     2.078920442829    -0.893076918801     1.007825032230
         H            3.243548738006     0.739875442829    -0.000050918801     1.007825032230
         H           -3.140674261994     1.152444442829    -0.878594918801     1.007825032230
         H           -2.413439261994     2.518083442829    -0.000021918801     1.007825032230
         H           -3.140740261994     1.152398442829     0.878424081199     1.007825032230

  Basis Set: AUG-CC-PVTZ
    Blend: AUG-CC-PVTZ
  Basis Set: (AUG-CC-PVTZ AUX)
    Blend: AUG-CC-PVTZ-JKFIT
	 Reference Energy          =    -490.7059224836389149 [Eh]
	 Singles Energy            =      -0.0000000000000000 [Eh]
	 Same-Spin Energy          =      -0.5033730508933245 [Eh]
	 Opposite-Spin Energy      =      -1.5426932367250412 [Eh]
	 Correlation Energy        =      -2.0460662876183657 [Eh]
	 Total Energy              =    -492.7519887712572881 [Eh]

	 ================> DF-SCS-MP2 Energies <==================
	-----------------------------------------------------------
	 SCS Same-Spin Scale       =       0.3333333333333333 [-]
	 SCS Opposite-Spin Scale   =       1.2000000000000000 [-]
	 SCS Same-Spin Energy      =      -0.1677910169644415 [Eh]
	 SCS Opposite-Spin Energy  =      -1.8512318840700495 [Eh]
	 SCS Correlation Energy    =      -2.0190229010344911 [Eh]
	 SCS Total Energy          =    -492.7249453846733900 [Eh]
	-----------------------------------------------------------

  Dipole Moment: [D]
     X:     1.1757      Y:     4.3531      Z:     0.0002     Total:     4.5091

*** Psi4 exiting successfully. Buy a developer a beer!
