                               Psi4 1.3.2 release

  ==> Input File <==

--------------------------------------------------------------------------
#psi4
#
memory 32 gb

molecule  {
0 1
  O        2.3111590    -1.3984000     0.0000580
  O       -2.2718830    -1.4902890    -0.0001310
  N        1.1826080     0.6255060     0.0000550
  N        0.0153410    -1.3761840    -0.0000340
  C       -1.2346770     0.6647280    -0.0000250
  C        0.1435436     1.1937817     0.0000379
  C        1.2605820    -0.7608720     0.0000310
  C       -1.2542960    -0.7955090    -0.0000670
  C        2.4243390     1.3942650     0.0001240
  C       -2.5504790     1.3758010    -0.0000570
  H        0.0516650     2.3739750     0.0000690
  H        0.0461780    -2.3935470    -0.0000610
  H        2.4800130     2.0209940     0.8935150
  H        2.4798690     2.0213500    -0.8930780
  H        3.2466700     0.6823050    -0.0000520
  H       -3.1375530     1.0948740    -0.8785960
  H       -2.4103180     2.4605130    -0.0000230
  H       -3.1376190     1.0948280     0.8784230
units angstrom
no_reorient  #important for SAPT in psi4, default
symmetry c1  #important for SAPT in psi4, default
}

set PROPERTIES_ORIGIN ["COM"]
properties('MP2/aug-cc-pvtz', properties = ['dipole'])
--------------------------------------------------------------------------

    Molecular point group: c1
  Charge       = 0
  Multiplicity = 1
  Basis Set: AUG-CC-PVTZ
    Blend: AUG-CC-PVTZ
  Basis Set: (AUG-CC-PVTZ AUX)
    Blend: AUG-CC-PVTZ-JKFIT

    Orbital Energies [Eh]
    ---------------------

    Doubly Occupied:

       1A    -20.555999     2A    -20.516624     3A    -15.662132
       4A    -15.626425     5A    -11.427748     6A    -11.356445
       7A    -11.336291     8A    -11.303929     9A    -11.246658
      10A    -11.229034    11A     -1.453629    12A     -1.374739
      13A     -1.371314    14A     -1.250223    15A     -1.080260
      16A     -1.021484    17A     -0.981097    18A     -0.917420
      19A     -0.853475    20A     -0.773731    21A     -0.739016
      22A     -0.716719    23A     -0.698526    24A     -0.664112
      25A     -0.624891    26A     -0.621397    27A     -0.603013
      28A     -0.579688    29A     -0.576945    30A     -0.558802
      31A     -0.544146    32A     -0.531576    33A     -0.521937
      34A     -0.477677    35A     -0.428677    36A     -0.425792
      37A     -0.311618

  @DF-RHF Final Energy:  -490.64749152424054

   => Energetics <=

    Nuclear Repulsion Energy =            532.9555004845512940
    One-Electron Energy =               -1725.2796133623162405
    Two-Electron Energy =                 701.6766213535244106
    Total Energy =                       -490.6474915242405359
  Basis Set: (AUG-CC-PVTZ AUX)
    Blend: AUG-CC-PVTZ-RI
    Molecular point group: c1

    Geometry (in Angstrom), charge = 0, multiplicity = 1:

       Center              X                  Y                   Z               Mass
    ------------   -----------------  -----------------  -----------------  -----------------
         O            2.293400295530    -1.323993277976     0.000059058291    15.994914619570
         O           -2.289641704470    -1.415882277976    -0.000129941709    15.994914619570
         N            1.164849295530     0.699912722024     0.000056058291    14.003074004430
         N           -0.002417704470    -1.301777277976    -0.000032941709    14.003074004430
         C           -1.252435704470     0.739134722024    -0.000023941709    12.000000000000
         C            0.125784895530     1.268188422024     0.000038958291    12.000000000000
         C            1.242823295530    -0.686465277976     0.000032058291    12.000000000000
         C           -1.272054704470    -0.721102277976    -0.000065941709    12.000000000000
         C            2.406580295530     1.468671722024     0.000125058291    12.000000000000
         C           -2.568237704470     1.450207722024    -0.000055941709    12.000000000000
         H            0.033906295530     2.448381722024     0.000070058291     1.007825032230
         H            0.028419295530    -2.319140277976    -0.000059941709     1.007825032230
         H            2.462254295530     2.095400722024     0.893516058291     1.007825032230
         H            2.462110295530     2.095756722024    -0.893076941709     1.007825032230
         H            3.228911295530     0.756711722024    -0.000050941709     1.007825032230
         H           -3.155311704470     1.169280722024    -0.878594941709     1.007825032230
         H           -2.428076704470     2.534919722024    -0.000021941709     1.007825032230
         H           -3.155377704470     1.169234722024     0.878424058291     1.007825032230

  Basis Set: AUG-CC-PVTZ
    Blend: AUG-CC-PVTZ
  Basis Set: (AUG-CC-PVTZ AUX)
    Blend: AUG-CC-PVTZ-JKFIT
	 Reference Energy          =    -490.6474915242405359 [Eh]
	 Singles Energy            =      -0.0000000000000000 [Eh]
	 Same-Spin Energy          =      -0.5060472519115417 [Eh]
	 Opposite-Spin Energy      =      -1.5445945624861319 [Eh]
	 Correlation Energy        =      -2.0506418143976735 [Eh]
	 Total Energy              =    -492.6981333386382289 [Eh]

	 ================> DF-SCS-MP2 Energies <==================
	-----------------------------------------------------------
	 SCS Same-Spin Scale       =       0.3333333333333333 [-]
	 SCS Opposite-Spin Scale   =       1.2000000000000000 [-]
	 SCS Same-Spin Energy      =      -0.1686824173038472 [Eh]
	 SCS Opposite-Spin Energy  =      -1.8535134749833582 [Eh]
	 SCS Correlation Energy    =      -2.0221958922872054 [Eh]
	 SCS Total Energy          =    -492.6696874165277222 [Eh]
	-----------------------------------------------------------

  Dipole Moment: [D]
     X:     2.3030      Y:     4.5654      Z:     0.0002     Total:     5.1134

*** Psi4 exiting successfully. Buy a developer a beer!
