                               Psi4 1.3.2 release

  ==> Input File <==

--------------------------------------------------------------------------
#psi4
#
memory 32 gb

molecule  {
0 1
  O        2.3111590    -1.3984000     0.0000580
  O       -2.2718830    -1.4902890    -0.0001310
  N        1.1826080     0.6255060     0.0000550
  N        0.0050135    -1.3982538    -0.0000350
  C       -1.2601646     0.6648480    -0.0000260
  C       -0.0319280     1.2897490     0.0000350
  C        1.2605820    -0.7608720     0.0000310
  C       -1.2542960    -0.7955090    -0.0000670
  C        2.4243390     1.3942650     0.0001240
  C       -2.5504790     1.3758010    -0.0000570
  H        0.0516650     2.3739750     0.0000690
  H        0.0461780    -2.3935470    -0.0000610
  H        2.4800130     2.0209940     0.8935150
  H        2.4798690     2.0213500    -0.8930780
  H        3.2466700     0.6823050    -0.0000520
  H       -3.1375530     1.0948740    -0.8785960
  H       -2.4103180     2.4605130    -0.0000230
  H       -3.1376190     1.0948280     0.8784230
units angstrom
no_reorient  #important for SAPT in psi4, default
symmetry c1  #important for SAPT in psi4, default
}

set PROPERTIES_ORIGIN ["COM"]
properties('MP2/aug-cc-pvtz', properties = ['dipole'])
--------------------------------------------------------------------------

    Molecular point group: c1
  Charge       = 0
  Multiplicity = 1
  Basis Set: AUG-CC-PVTZ
    Blend: AUG-CC-PVTZ
  Basis Set: (AUG-CC-PVTZ AUX)
    Blend: AUG-CC-PVTZ-JKFIT

    Orbital Energies [Eh]
    ---------------------

    Doubly Occupied:

       1A    -20.542461     2A    -20.534863     3A    -15.640794
       4A    -15.622918     5A    -11.415846     6A    -11.373931
       7A    -11.328303     8A    -11.287333     9A    -11.261982
      10A    -11.236142    11A     -1.423339    12A     -1.385759
      13A     -1.306511    14A     -1.240861    15A     -1.108213
      16A     -0.994768    17A     -0.964404    18A     -0.914360
      19A     -0.847863    20A     -0.768917    21A     -0.740734
      22A     -0.692480    23A     -0.681500    24A     -0.649723
      25A     -0.637308    26A     -0.615422    27A     -0.609582
      28A     -0.591253    29A     -0.585017    30A     -0.562152
      31A     -0.546360    32A     -0.543058    33A     -0.487103
      34A     -0.475626    35A     -0.442112    36A     -0.429267
      37A     -0.342360

  @DF-RHF Final Energy:  -490.70962216039163

   => Energetics <=

    Nuclear Repulsion Energy =            529.6950492373952102
    One-Electron Energy =               -1719.1480928335492990
    Two-Electron Energy =                 698.7434214357625706
    Total Energy =                       -490.7096221603916320
  Basis Set: (AUG-CC-PVTZ AUX)
    Blend: AUG-CC-PVTZ-RI
    Molecular point group: c1

    Geometry (in Angstrom), charge = 0, multiplicity = 1:

       Center              X                  Y                   Z               Mass
    ------------   -----------------  -----------------  -----------------  -----------------
         O            2.311650710408    -1.330019346299     0.000059492417    15.994914619570
         O           -2.271391289592    -1.421908346299    -0.000129507583    15.994914619570
         N            1.183099710408     0.693886653701     0.000056492417    14.003074004430
         N            0.005505210408    -1.329873146299    -0.000033507583    14.003074004430
         C           -1.259672889592     0.733228653701    -0.000024507583    12.000000000000
         C           -0.031436289592     1.358129653701     0.000036492417    12.000000000000
         C            1.261073710408    -0.692491346299     0.000032492417    12.000000000000
         C           -1.253804289592    -0.727128346299    -0.000065507583    12.000000000000
         C            2.424830710408     1.462645653701     0.000125492417    12.000000000000
         C           -2.549987289592     1.444181653701    -0.000055507583    12.000000000000
         H            0.052156710408     2.442355653701     0.000070492417     1.007825032230
         H            0.046669710408    -2.325166346299    -0.000059507583     1.007825032230
         H            2.480504710408     2.089374653701     0.893516492417     1.007825032230
         H            2.480360710408     2.089730653701    -0.893076507583     1.007825032230
         H            3.247161710408     0.750685653701    -0.000050507583     1.007825032230
         H           -3.137061289592     1.163254653701    -0.878594507583     1.007825032230
         H           -2.409826289592     2.528893653701    -0.000021507583     1.007825032230
         H           -3.137127289592     1.163208653701     0.878424492417     1.007825032230

  Basis Set: AUG-CC-PVTZ
    Blend: AUG-CC-PVTZ
  Basis Set: (AUG-CC-PVTZ AUX)
    Blend: AUG-CC-PVTZ-JKFIT
	 Reference Energy          =    -490.7096221603916320 [Eh]
	 Singles Energy            =      -0.0000000000000000 [Eh]
	 Same-Spin Energy          =      -0.5024895066593569 [Eh]
	 Opposite-Spin Energy      =      -1.5418194437598784 [Eh]
	 Correlation Energy        =      -2.0443089504192353 [Eh]
	 Total Energy              =    -492.7539311108108677 [Eh]

	 ================> DF-SCS-MP2 Energies <==================
	-----------------------------------------------------------
	 SCS Same-Spin Scale       =       0.3333333333333333 [-]
	 SCS Opposite-Spin Scale   =       1.2000000000000000 [-]
	 SCS Same-Spin Energy      =      -0.1674965022197856 [Eh]
	 SCS Opposite-Spin Energy  =      -1.8501833325118540 [Eh]
	 SCS Correlation Energy    =      -2.0176798347316396 [Eh]
	 SCS Total Energy          =    -492.7273019951232982 [Eh]
	-----------------------------------------------------------

  Dipole Moment: [D]
     X:     1.1282      Y:     4.5851      Z:     0.0002     Total:     4.7219

*** Psi4 exiting successfully. Buy a developer a beer!
