                               Psi4 1.3.2 release

  ==> Input File <==

--------------------------------------------------------------------------
#psi4
#
memory 32 gb

molecule  {
0 1
  O        2.3111590    -1.3984000     0.0000580
  O       -2.2718830    -1.4902890    -0.0001310
  N        1.2157073     0.6899802     0.0000581
  N        0.0153410    -1.3761840    -0.0000340
  C       -1.2657397     0.7285316    -0.0000240
  C       -0.0319280     1.2897490     0.0000350
  C        1.2605820    -0.7608720     0.0000310
  C       -1.2542960    -0.7955090    -0.0000670
  C        2.4243390     1.3942650     0.0001240
  C       -2.5504790     1.3758010    -0.0000570
  H        0.0516650     2.3739750     0.0000690
  H        0.0461780    -2.3935470    -0.0000610
  H        2.4800130     2.0209940     0.8935150
  H        2.4798690     2.0213500    -0.8930780
  H        3.2466700     0.6823050    -0.0000520
  H       -3.1375530     1.0948740    -0.8785960
  H       -2.4103180     2.4605130    -0.0000230
  H       -3.1376190     1.0948280     0.8784230
units angstrom
no_reorient  #important for SAPT in psi4, default
symmetry c1  #important for SAPT in psi4, default
}

set PROPERTIES_ORIGIN ["COM"]
properties('MP2/aug-cc-pvtz', properties = ['dipole'])
--------------------------------------------------------------------------

    Molecular point group: c1
  Charge       = 0
  Multiplicity = 1
  Basis Set: AUG-CC-PVTZ
    Blend: AUG-CC-PVTZ
  Basis Set: (AUG-CC-PVTZ AUX)
    Blend: AUG-CC-PVTZ-JKFIT

    Orbital Energies [Eh]
    ---------------------

    Doubly Occupied:

       1A    -20.548906     2A    -20.542433     3A    -15.636626
       4A    -15.631133     5A    -11.421816     6A    -11.381143
       7A    -11.320221     8A    -11.278555     9A    -11.262280
      10A    -11.234586    11A     -1.423998    12A     -1.389134
      13A     -1.305576    14A     -1.249277    15A     -1.112317
      16A     -0.999688    17A     -0.956137    18A     -0.901502
      19A     -0.856274    20A     -0.764744    21A     -0.736696
      22A     -0.687576    23A     -0.681477    24A     -0.662243
      25A     -0.637925    26A     -0.618153    27A     -0.611694
      28A     -0.596285    29A     -0.588719    30A     -0.560301
      31A     -0.544778    32A     -0.542513    33A     -0.483688
      34A     -0.474626    35A     -0.442748    36A     -0.433997
      37A     -0.340898

  @DF-RHF Final Energy:  -490.69757512072522

   => Energetics <=

    Nuclear Repulsion Energy =            528.7324941816266346
    One-Electron Energy =               -1717.1388112356301008
    Two-Electron Energy =                 697.7087419332782474
    Total Energy =                       -490.6975751207252188
  Basis Set: (AUG-CC-PVTZ AUX)
    Blend: AUG-CC-PVTZ-RI
    Molecular point group: c1

    Geometry (in Angstrom), charge = 0, multiplicity = 1:

       Center              X                  Y                   Z               Mass
    ------------   -----------------  -----------------  -----------------  -----------------
         O            2.307786559395    -1.344128337493     0.000058911141    15.994914619570
         O           -2.275255440605    -1.436017337493    -0.000130088859    15.994914619570
         N            1.212334859395     0.744251862507     0.000059011141    14.003074004430
         N            0.011968559395    -1.321912337493    -0.000033088859    14.003074004430
         C           -1.269112140605     0.782803262507    -0.000023088859    12.000000000000
         C           -0.035300440605     1.344020662507     0.000035911141    12.000000000000
         C            1.257209559395    -0.706600337493     0.000031911141    12.000000000000
         C           -1.257668440605    -0.741237337493    -0.000066088859    12.000000000000
         C            2.420966559395     1.448536662507     0.000124911141    12.000000000000
         C           -2.553851440605     1.430072662507    -0.000056088859    12.000000000000
         H            0.048292559395     2.428246662507     0.000069911141     1.007825032230
         H            0.042805559395    -2.339275337493    -0.000060088859     1.007825032230
         H            2.476640559395     2.075265662507     0.893515911141     1.007825032230
         H            2.476496559395     2.075621662507    -0.893077088859     1.007825032230
         H            3.243297559395     0.736576662507    -0.000051088859     1.007825032230
         H           -3.140925440605     1.149145662507    -0.878595088859     1.007825032230
         H           -2.413690440605     2.514784662507    -0.000022088859     1.007825032230
         H           -3.140991440605     1.149099662507     0.878423911141     1.007825032230

  Basis Set: AUG-CC-PVTZ
    Blend: AUG-CC-PVTZ
  Basis Set: (AUG-CC-PVTZ AUX)
    Blend: AUG-CC-PVTZ-JKFIT
	 Reference Energy          =    -490.6975751207252188 [Eh]
	 Singles Energy            =      -0.0000000000000000 [Eh]
	 Same-Spin Energy          =      -0.5030124245020227 [Eh]
	 Opposite-Spin Energy      =      -1.5428406978402767 [Eh]
	 Correlation Energy        =      -2.0458531223422991 [Eh]
	 Total Energy              =    -492.7434282430675125 [Eh]

	 ================> DF-SCS-MP2 Energies <==================
	-----------------------------------------------------------
	 SCS Same-Spin Scale       =       0.3333333333333333 [-]
	 SCS Opposite-Spin Scale   =       1.2000000000000000 [-]
	 SCS Same-Spin Energy      =      -0.1676708081673409 [Eh]
	 SCS Opposite-Spin Energy  =      -1.8514088374083320 [Eh]
	 SCS Correlation Energy    =      -2.0190796455756730 [Eh]
	 SCS Total Energy          =    -492.7166547663009055 [Eh]
	-----------------------------------------------------------

  Dipole Moment: [D]
     X:     0.9507      Y:     4.0519      Z:     0.0001     Total:     4.1619

*** Psi4 exiting successfully. Buy a developer a beer!
