                               Psi4 1.3.2 release

  ==> Input File <==

--------------------------------------------------------------------------
#psi4
#
memory 32 gb

molecule  {
0 1
  O        2.3111590    -1.3984000     0.0000580
  O       -2.2718830    -1.4902890    -0.0001310
  N        1.1826080     0.6255060     0.0000550
  N        0.0153410    -1.3761840    -0.0000340
  C       -1.2346770     0.6647280    -0.0000250
  C       -0.0319280     1.2897490     0.0000350
  C        1.2605820    -0.7608720     0.0000310
  C       -1.2542960    -0.7955090    -0.0000670
  C        2.4243390     1.3942650     0.0001240
  C       -2.5504790     1.3758010    -0.0000570
  H        0.0516650     2.3739750     0.0000690
  H        0.0461780    -2.3935470    -0.0000610
  H        2.4800130     2.0209940     0.8935150
  H        2.4798690     2.0213500    -0.8930780
  H        3.2466700     0.6823050    -0.0000520
  H       -3.0301627     1.1462625    -0.7178896
  H       -2.4103180     2.4605130    -0.0000230
  H       -3.1376190     1.0948280     0.8784230
units angstrom
no_reorient  #important for SAPT in psi4, default
symmetry c1  #important for SAPT in psi4, default
}

set PROPERTIES_ORIGIN ["COM"]
properties('MP2/aug-cc-pvtz', properties = ['dipole'])
--------------------------------------------------------------------------

    Molecular point group: c1
  Charge       = 0
  Multiplicity = 1
  Basis Set: AUG-CC-PVTZ
    Blend: AUG-CC-PVTZ
  Basis Set: (AUG-CC-PVTZ AUX)
    Blend: AUG-CC-PVTZ-JKFIT

    Orbital Energies [Eh]
    ---------------------

    Doubly Occupied:

       1A    -20.540285     2A    -20.538566     3A    -15.637744
       4A    -15.624441     5A    -11.413479     6A    -11.376197
       7A    -11.324361     8A    -11.285699     9A    -11.258514
      10A    -11.213365    11A     -1.423883    12A     -1.387062
      13A     -1.306448    14A     -1.242729    15A     -1.112403
      16A     -1.000451    17A     -0.974440    18A     -0.916924
      19A     -0.856870    20A     -0.771266    21A     -0.736795
      22A     -0.692106    23A     -0.682249    24A     -0.650487
      25A     -0.638517    26A     -0.626889    27A     -0.612097
      28A     -0.601055    29A     -0.587875    30A     -0.557161
      31A     -0.552813    32A     -0.544000    33A     -0.488989
      34A     -0.475106    35A     -0.444311    36A     -0.430686
      37A     -0.346698

  @DF-RHF Final Energy:  -490.67788467028714

   => Energetics <=

    Nuclear Repulsion Energy =            531.3878105685839728
    One-Electron Energy =               -1722.3854710523860376
    Two-Electron Energy =                 700.3197758135149797
    Total Energy =                       -490.6778846702870851
  Basis Set: (AUG-CC-PVTZ AUX)
    Blend: AUG-CC-PVTZ-RI
    Molecular point group: c1

    Geometry (in Angstrom), charge = 0, multiplicity = 1:

       Center              X                  Y                   Z               Mass
    ------------   -----------------  -----------------  -----------------  -----------------
         O            2.307661675325    -1.332585384494    -0.001097094625    15.994914619570
         O           -2.275380324675    -1.424474384494    -0.001286094625    15.994914619570
         N            1.179110675325     0.691320615506    -0.001100094625    14.003074004430
         N            0.011843675325    -1.310369384494    -0.001189094625    14.003074004430
         C           -1.238174324675     0.730542615506    -0.001180094625    12.000000000000
         C           -0.035425324675     1.355563615506    -0.001120094625    12.000000000000
         C            1.257084675325    -0.695057384494    -0.001124094625    12.000000000000
         C           -1.257793324675    -0.729694384494    -0.001222094625    12.000000000000
         C            2.420841675325     1.460079615506    -0.001031094625    12.000000000000
         C           -2.553976324675     1.441615615506    -0.001212094625    12.000000000000
         H            0.048167675325     2.439789615506    -0.001086094625     1.007825032230
         H            0.042680675325    -2.327732384494    -0.001216094625     1.007825032230
         H            2.476515675325     2.086808615506     0.892359905375     1.007825032230
         H            2.476371675325     2.087164615506    -0.894233094625     1.007825032230
         H            3.243172675325     0.748119615506    -0.001207094625     1.007825032230
         H           -3.033660024675     1.212077115506    -0.719044694625     1.007825032230
         H           -2.413815324675     2.526327615506    -0.001178094625     1.007825032230
         H           -3.141116324675     1.160642615506     0.877267905375     1.007825032230

  Basis Set: AUG-CC-PVTZ
    Blend: AUG-CC-PVTZ
  Basis Set: (AUG-CC-PVTZ AUX)
    Blend: AUG-CC-PVTZ-JKFIT
	 Reference Energy          =    -490.6778846702871419 [Eh]
	 Singles Energy            =      -0.0000000000000000 [Eh]
	 Same-Spin Energy          =      -0.5024377123208253 [Eh]
	 Opposite-Spin Energy      =      -1.5407809488510504 [Eh]
	 Correlation Energy        =      -2.0432186611718759 [Eh]
	 Total Energy              =    -492.7211033314590054 [Eh]

	 ================> DF-SCS-MP2 Energies <==================
	-----------------------------------------------------------
	 SCS Same-Spin Scale       =       0.3333333333333333 [-]
	 SCS Opposite-Spin Scale   =       1.2000000000000000 [-]
	 SCS Same-Spin Energy      =      -0.1674792374402751 [Eh]
	 SCS Opposite-Spin Energy  =      -1.8489371386212605 [Eh]
	 SCS Correlation Energy    =      -2.0164163760615357 [Eh]
	 SCS Total Energy          =    -492.6943010463486985 [Eh]
	-----------------------------------------------------------

  Dipole Moment: [D]
     X:     1.0147      Y:     4.5393      Z:    -0.0209     Total:     4.6514

*** Psi4 exiting successfully. Buy a developer a beer!
