                               Psi4 1.3.2 release

  ==> Input File <==

--------------------------------------------------------------------------
#psi4
#
memory 32 gb

molecule  {
0 1
  O        2.3111590    -1.3984000     0.0000580
  O       -2.2718830    -1.4902890    -0.0001310
  N        1.1826080     0.6255060     0.0000550
  N        0.0153410    -1.3761840    -0.0000340
  C       -1.2346770     0.6647280    -0.0000250
  C       -0.0319280     1.2897490     0.0000350
  C        1.2605820    -0.7608720     0.0000310
  C       -1.3368820    -0.8518964    -0.0000722
  C        2.4243390     1.3942650     0.0001240
  C       -2.5504790     1.3758010    -0.0000570
  H        0.0516650     2.3739750     0.0000690
  H        0.0461780    -2.3935470    -0.0000610
  H        2.4800130     2.0209940     0.8935150
  H        2.4798690     2.0213500    -0.8930780
  H        3.2466700     0.6823050    -0.0000520
  H       -3.1375530     1.0948740    -0.8785960
  H       -2.4103180     2.4605130    -0.0000230
  H       -3.1376190     1.0948280     0.8784230
units angstrom
no_reorient  #important for SAPT in psi4, default
symmetry c1  #important for SAPT in psi4, default
}

set PROPERTIES_ORIGIN ["COM"]
properties('MP2/aug-cc-pvtz', properties = ['dipole'])
--------------------------------------------------------------------------

    Molecular point group: c1
  Charge       = 0
  Multiplicity = 1
  Basis Set: AUG-CC-PVTZ
    Blend: AUG-CC-PVTZ
  Basis Set: (AUG-CC-PVTZ AUX)
    Blend: AUG-CC-PVTZ-JKFIT

    Orbital Energies [Eh]
    ---------------------

    Doubly Occupied:

       1A    -20.561184     2A    -20.532767     3A    -15.628613
       4A    -15.610549     5A    -11.406491     6A    -11.376833
       7A    -11.316619     8A    -11.279936     9A    -11.257041
      10A    -11.235274    11A     -1.469274    12A     -1.409789
      13A     -1.298310    14A     -1.229304    15A     -1.098345
      16A     -0.987431    17A     -0.957283    18A     -0.896424
      19A     -0.843793    20A     -0.765761    21A     -0.720664
      22A     -0.700158    23A     -0.675360    24A     -0.665646
      25A     -0.635082    26A     -0.624602    27A     -0.616617
      28A     -0.584551    29A     -0.580929    30A     -0.564635
      31A     -0.558536    32A     -0.548391    33A     -0.481262
      34A     -0.472018    35A     -0.441519    36A     -0.433373
      37A     -0.340235

  @DF-RHF Final Energy:  -490.70131451491022

   => Energetics <=

    Nuclear Repulsion Energy =            529.9642897219930546
    One-Electron Energy =               -1719.7220064704845299
    Two-Electron Energy =                 699.0564022335812524
    Total Energy =                       -490.7013145149102229
  Basis Set: (AUG-CC-PVTZ AUX)
    Blend: AUG-CC-PVTZ-RI
    Molecular point group: c1

    Geometry (in Angstrom), charge = 0, multiplicity = 1:

       Center              X                  Y                   Z               Mass
    ------------   -----------------  -----------------  -----------------  -----------------
         O            2.315510267337    -1.327384421942     0.000059752286    15.994914619570
         O           -2.267531732663    -1.419273421942    -0.000129247714    15.994914619570
         N            1.186959267337     0.696521578058     0.000056752286    14.003074004430
         N            0.019692267337    -1.305168421942    -0.000032247714    14.003074004430
         C           -1.230325732663     0.735743578058    -0.000023247714    12.000000000000
         C           -0.027576732663     1.360764578058     0.000036752286    12.000000000000
         C            1.264933267337    -0.689856421942     0.000032752286    12.000000000000
         C           -1.332530732663    -0.780880821942    -0.000070447714    12.000000000000
         C            2.428690267337     1.465280578058     0.000125752286    12.000000000000
         C           -2.546127732663     1.446816578058    -0.000055247714    12.000000000000
         H            0.056016267337     2.444990578058     0.000070752286     1.007825032230
         H            0.050529267337    -2.322531421942    -0.000059247714     1.007825032230
         H            2.484364267337     2.092009578058     0.893516752286     1.007825032230
         H            2.484220267337     2.092365578058    -0.893076247714     1.007825032230
         H            3.251021267337     0.753320578058    -0.000050247714     1.007825032230
         H           -3.133201732663     1.165889578058    -0.878594247714     1.007825032230
         H           -2.405966732663     2.531528578058    -0.000021247714     1.007825032230
         H           -3.133267732663     1.165843578058     0.878424752286     1.007825032230

  Basis Set: AUG-CC-PVTZ
    Blend: AUG-CC-PVTZ
  Basis Set: (AUG-CC-PVTZ AUX)
    Blend: AUG-CC-PVTZ-JKFIT
	 Reference Energy          =    -490.7013145149102229 [Eh]
	 Singles Energy            =      -0.0000000000000000 [Eh]
	 Same-Spin Energy          =      -0.5000238959335481 [Eh]
	 Opposite-Spin Energy      =      -1.5374270687300509 [Eh]
	 Correlation Energy        =      -2.0374509646635990 [Eh]
	 Total Energy              =    -492.7387654795738285 [Eh]

	 ================> DF-SCS-MP2 Energies <==================
	-----------------------------------------------------------
	 SCS Same-Spin Scale       =       0.3333333333333333 [-]
	 SCS Opposite-Spin Scale   =       1.2000000000000000 [-]
	 SCS Same-Spin Energy      =      -0.1666746319778494 [Eh]
	 SCS Opposite-Spin Energy  =      -1.8449124824760610 [Eh]
	 SCS Correlation Energy    =      -2.0115871144539104 [Eh]
	 SCS Total Energy          =    -492.7129016293641257 [Eh]
	-----------------------------------------------------------

  Dipole Moment: [D]
     X:     0.1782      Y:     4.0571      Z:     0.0001     Total:     4.0610

*** Psi4 exiting successfully. Buy a developer a beer!
