                               Psi4 1.3.2 release

  ==> Input File <==

--------------------------------------------------------------------------
#psi4
#
memory 32 gb

molecule  {
0 1
  O        2.3111590    -1.3984000     0.0000580
  O       -2.2718830    -1.4902890    -0.0001310
  N        1.1940157     0.6468037     0.0000561
  N        0.0153410    -1.3761840    -0.0000340
  C       -1.2454019     0.6858141    -0.0000247
  C       -0.0319280     1.2897490     0.0000350
  C        1.2605820    -0.7608720     0.0000310
  C       -1.2542960    -0.7955090    -0.0000670
  C        2.4243390     1.3942650     0.0001240
  C       -2.5504790     1.3758010    -0.0000570
  H        0.0516650     2.3739750     0.0000690
  H        0.0461780    -2.3935470    -0.0000610
  H        2.4800130     2.0209940     0.8935150
  H        2.4798690     2.0213500    -0.8930780
  H        3.2466700     0.6823050    -0.0000520
  H       -3.1375530     1.0948740    -0.8785960
  H       -2.4103180     2.4605130    -0.0000230
  H       -3.1376190     1.0948280     0.8784230
units angstrom
no_reorient  #important for SAPT in psi4, default
symmetry c1  #important for SAPT in psi4, default
}

set PROPERTIES_ORIGIN ["COM"]
properties('MP2/aug-cc-pvtz', properties = ['dipole'])
--------------------------------------------------------------------------

    Molecular point group: c1
  Charge       = 0
  Multiplicity = 1
  Basis Set: AUG-CC-PVTZ
    Blend: AUG-CC-PVTZ
  Basis Set: (AUG-CC-PVTZ AUX)
    Blend: AUG-CC-PVTZ-JKFIT

    Orbital Energies [Eh]
    ---------------------

    Doubly Occupied:

       1A    -20.543340     2A    -20.539901     3A    -15.637680
       4A    -15.626869     5A    -11.416560     6A    -11.378048
       7A    -11.323145     8A    -11.283452     9A    -11.260409
      10A    -11.236258    11A     -1.423909    12A     -1.387761
      13A     -1.306068    14A     -1.245048    15A     -1.109715
      16A     -0.994889    17A     -0.961444    18A     -0.909994
      19A     -0.853931    20A     -0.768670    21A     -0.735668
      22A     -0.690247    23A     -0.681709    24A     -0.653596
      25A     -0.637815    26A     -0.616372    27A     -0.610886
      28A     -0.589521    29A     -0.585422    30A     -0.558766
      31A     -0.547426    32A     -0.542886    33A     -0.486739
      34A     -0.475301    35A     -0.444259    36A     -0.431782
      37A     -0.344252

  @DF-RHF Final Energy:  -490.71016323608723

   => Energetics <=

    Nuclear Repulsion Energy =            529.8088133184644448
    One-Electron Energy =               -1719.3584784933600531
    Two-Electron Energy =                 698.8395019388084393
    Total Energy =                       -490.7101632360871690
  Basis Set: (AUG-CC-PVTZ AUX)
    Blend: AUG-CC-PVTZ-RI
    Molecular point group: c1

    Geometry (in Angstrom), charge = 0, multiplicity = 1:

       Center              X                  Y                   Z               Mass
    ------------   -----------------  -----------------  -----------------  -----------------
         O            2.308212777347    -1.336151577022     0.000059171076    15.994914619570
         O           -2.274829222653    -1.428040577022    -0.000129828924    15.994914619570
         N            1.191069477347     0.709052122978     0.000057271076    14.003074004430
         N            0.012394777347    -1.313935577022    -0.000032828924    14.003074004430
         C           -1.248348122653     0.748062522978    -0.000023528924    12.000000000000
         C           -0.034874222653     1.351997422978     0.000036171076    12.000000000000
         C            1.257635777347    -0.698623577022     0.000032171076    12.000000000000
         C           -1.257242222653    -0.733260577022    -0.000065828924    12.000000000000
         C            2.421392777347     1.456513422978     0.000125171076    12.000000000000
         C           -2.553425222653     1.438049422978    -0.000055828924    12.000000000000
         H            0.048718777347     2.436223422978     0.000070171076     1.007825032230
         H            0.043231777347    -2.331298577022    -0.000059828924     1.007825032230
         H            2.477066777347     2.083242422978     0.893516171076     1.007825032230
         H            2.476922777347     2.083598422978    -0.893076828924     1.007825032230
         H            3.243723777347     0.744553422978    -0.000050828924     1.007825032230
         H           -3.140499222653     1.157122422978    -0.878594828924     1.007825032230
         H           -2.413264222653     2.522761422978    -0.000021828924     1.007825032230
         H           -3.140565222653     1.157076422978     0.878424171076     1.007825032230

  Basis Set: AUG-CC-PVTZ
    Blend: AUG-CC-PVTZ
  Basis Set: (AUG-CC-PVTZ AUX)
    Blend: AUG-CC-PVTZ-JKFIT
	 Reference Energy          =    -490.7101632360872259 [Eh]
	 Singles Energy            =      -0.0000000000000000 [Eh]
	 Same-Spin Energy          =      -0.5024690326353520 [Eh]
	 Opposite-Spin Energy      =      -1.5416824215988021 [Eh]
	 Correlation Energy        =      -2.0441514542341541 [Eh]
	 Total Energy              =    -492.7543146903213938 [Eh]

	 ================> DF-SCS-MP2 Energies <==================
	-----------------------------------------------------------
	 SCS Same-Spin Scale       =       0.3333333333333333 [-]
	 SCS Opposite-Spin Scale   =       1.2000000000000000 [-]
	 SCS Same-Spin Energy      =      -0.1674896775451173 [Eh]
	 SCS Opposite-Spin Energy  =      -1.8500189059185623 [Eh]
	 SCS Correlation Energy    =      -2.0175085834636795 [Eh]
	 SCS Total Energy          =    -492.7276718195508920 [Eh]
	-----------------------------------------------------------

  Dipole Moment: [D]
     X:     1.0158      Y:     4.3654      Z:     0.0002     Total:     4.4821

*** Psi4 exiting successfully. Buy a developer a beer!
