                               Psi4 1.3.2 release

  ==> Input File <==

--------------------------------------------------------------------------
#psi4
#
memory 32 gb

molecule  {
0 1
  O        2.3111590    -1.3984000     0.0000580
  O       -2.2718830    -1.4902890    -0.0001310
  N        1.1826080     0.6255060     0.0000550
  N        0.0153410    -1.3761840    -0.0000340
  C       -1.2346770     0.6647280    -0.0000250
  C       -0.0319280     1.2897490     0.0000350
  C        1.1750916    -0.7089934     0.0000288
  C       -1.2542960    -0.7955090    -0.0000670
  C        2.4243390     1.3942650     0.0001240
  C       -2.5504790     1.3758010    -0.0000570
  H        0.0516650     2.3739750     0.0000690
  H        0.0461780    -2.3935470    -0.0000610
  H        2.4800130     2.0209940     0.8935150
  H        2.4798690     2.0213500    -0.8930780
  H        3.2466700     0.6823050    -0.0000520
  H       -3.1375530     1.0948740    -0.8785960
  H       -2.4103180     2.4605130    -0.0000230
  H       -3.1376190     1.0948280     0.8784230
units angstrom
no_reorient  #important for SAPT in psi4, default
symmetry c1  #important for SAPT in psi4, default
}

set PROPERTIES_ORIGIN ["COM"]
properties('MP2/aug-cc-pvtz', properties = ['dipole'])
--------------------------------------------------------------------------

    Molecular point group: c1
  Charge       = 0
  Multiplicity = 1
  Basis Set: AUG-CC-PVTZ
    Blend: AUG-CC-PVTZ
  Basis Set: (AUG-CC-PVTZ AUX)
    Blend: AUG-CC-PVTZ-JKFIT

    Orbital Energies [Eh]
    ---------------------

    Doubly Occupied:

       1A    -20.545607     2A    -20.513247     3A    -15.648599
       4A    -15.635327     5A    -11.408239     6A    -11.382063
       7A    -11.330152     8A    -11.290439     9A    -11.268563
      10A    -11.242742    11A     -1.417406    12A     -1.379441
      13A     -1.284723    14A     -1.253608    15A     -1.115262
      16A     -1.004383    17A     -0.973799    18A     -0.923927
      19A     -0.863628    20A     -0.782750    21A     -0.747931
      22A     -0.695191    23A     -0.690237    24A     -0.659578
      25A     -0.621683    26A     -0.615513    27A     -0.599982
      28A     -0.593899    29A     -0.585279    30A     -0.557562
      31A     -0.551340    32A     -0.539696    33A     -0.483808
      34A     -0.460947    35A     -0.435052    36A     -0.422524
      37A     -0.352272

  @DF-RHF Final Energy:  -490.69321855844890

   => Energetics <=

    Nuclear Repulsion Energy =            531.1921044478918930
    One-Electron Energy =               -1722.0178492477543841
    Two-Electron Energy =                 700.1325262414136432
    Total Energy =                       -490.6932185584489616
  Basis Set: (AUG-CC-PVTZ AUX)
    Blend: AUG-CC-PVTZ-RI
    Molecular point group: c1

    Geometry (in Angstrom), charge = 0, multiplicity = 1:

       Center              X                  Y                   Z               Mass
    ------------   -----------------  -----------------  -----------------  -----------------
         O            2.315759111789    -1.336660483595     0.000059495251    15.994914619570
         O           -2.267282888211    -1.428549483595    -0.000129504749    15.994914619570
         N            1.187208111789     0.687245516405     0.000056495251    14.003074004430
         N            0.019941111789    -1.314444483595    -0.000032504749    14.003074004430
         C           -1.230076888211     0.726467516405    -0.000023504749    12.000000000000
         C           -0.027327888211     1.351488516405     0.000036495251    12.000000000000
         C            1.179691711789    -0.647253883595     0.000030295251    12.000000000000
         C           -1.249695888211    -0.733769483595    -0.000065504749    12.000000000000
         C            2.428939111789     1.456004516405     0.000125495251    12.000000000000
         C           -2.545878888211     1.437540516405    -0.000055504749    12.000000000000
         H            0.056265111789     2.435714516405     0.000070495251     1.007825032230
         H            0.050778111789    -2.331807483595    -0.000059504749     1.007825032230
         H            2.484613111789     2.082733516405     0.893516495251     1.007825032230
         H            2.484469111789     2.083089516405    -0.893076504749     1.007825032230
         H            3.251270111789     0.744044516405    -0.000050504749     1.007825032230
         H           -3.132952888211     1.156613516405    -0.878594504749     1.007825032230
         H           -2.405717888211     2.522252516405    -0.000021504749     1.007825032230
         H           -3.133018888211     1.156567516405     0.878424495251     1.007825032230

  Basis Set: AUG-CC-PVTZ
    Blend: AUG-CC-PVTZ
  Basis Set: (AUG-CC-PVTZ AUX)
    Blend: AUG-CC-PVTZ-JKFIT
	 Reference Energy          =    -490.6932185584489048 [Eh]
	 Singles Energy            =      -0.0000000000000000 [Eh]
	 Same-Spin Energy          =      -0.5035877250919927 [Eh]
	 Opposite-Spin Energy      =      -1.5436932236524277 [Eh]
	 Correlation Energy        =      -2.0472809487444206 [Eh]
	 Total Energy              =    -492.7404995071933058 [Eh]

	 ================> DF-SCS-MP2 Energies <==================
	-----------------------------------------------------------
	 SCS Same-Spin Scale       =       0.3333333333333333 [-]
	 SCS Opposite-Spin Scale   =       1.2000000000000000 [-]
	 SCS Same-Spin Energy      =      -0.1678625750306642 [Eh]
	 SCS Opposite-Spin Energy  =      -1.8524318683829131 [Eh]
	 SCS Correlation Energy    =      -2.0202944434135772 [Eh]
	 SCS Total Energy          =    -492.7135130018625091 [Eh]
	-----------------------------------------------------------

  Dipole Moment: [D]
     X:     0.1850      Y:     5.0681      Z:     0.0001     Total:     5.0715

*** Psi4 exiting successfully. Buy a developer a beer!
