                               Psi4 1.3.2 release

  ==> Input File <==

--------------------------------------------------------------------------
#psi4
#
memory 32 gb

molecule  {
0 1
  O        2.3111590    -1.3984000     0.0000580
  O       -2.2718830    -1.4902890    -0.0001310
  N        1.1826080     0.6255060     0.0000550
  N        0.0153410    -1.3761840    -0.0000340
  C       -1.2346770     0.6647280    -0.0000250
  C       -0.1196638     1.3377327     0.0000336
  C        1.2605820    -0.7608720     0.0000310
  C       -1.2542960    -0.7955090    -0.0000670
  C        2.4243390     1.3942650     0.0001240
  C       -2.5504790     1.3758010    -0.0000570
  H        0.0516650     2.3739750     0.0000690
  H        0.0461780    -2.3935470    -0.0000610
  H        2.4800130     2.0209940     0.8935150
  H        2.4798690     2.0213500    -0.8930780
  H        3.2466700     0.6823050    -0.0000520
  H       -3.1375530     1.0948740    -0.8785960
  H       -2.4103180     2.4605130    -0.0000230
  H       -3.1376190     1.0948280     0.8784230
units angstrom
no_reorient  #important for SAPT in psi4, default
symmetry c1  #important for SAPT in psi4, default
}

set PROPERTIES_ORIGIN ["COM"]
properties('MP2/aug-cc-pvtz', properties = ['dipole'])
--------------------------------------------------------------------------

    Molecular point group: c1
  Charge       = 0
  Multiplicity = 1
  Basis Set: AUG-CC-PVTZ
    Blend: AUG-CC-PVTZ
  Basis Set: (AUG-CC-PVTZ AUX)
    Blend: AUG-CC-PVTZ-JKFIT

    Orbital Energies [Eh]
    ---------------------

    Doubly Occupied:

       1A    -20.546923     2A    -20.534955     3A    -15.627302
       4A    -15.623860     5A    -11.408027     6A    -11.384106
       7A    -11.320581     8A    -11.279089     9A    -11.262877
      10A    -11.240068    11A     -1.418637    12A     -1.391067
      13A     -1.286496    14A     -1.235087    15A     -1.124740
      16A     -0.983221    17A     -0.961898    18A     -0.916043
      19A     -0.847929    20A     -0.766509    21A     -0.735965
      22A     -0.698327    23A     -0.672266    24A     -0.643492
      25A     -0.638292    26A     -0.618769    27A     -0.614695
      28A     -0.586198    29A     -0.585633    30A     -0.555966
      31A     -0.543996    32A     -0.540397    33A     -0.476126
      34A     -0.474060    35A     -0.448591    36A     -0.430891
      37A     -0.360213

  @DF-RHF Final Energy:  -490.70201458550298

   => Energetics <=

    Nuclear Repulsion Energy =            529.4120999464564647
    One-Electron Energy =               -1718.6616422101030821
    Two-Electron Energy =                 698.5475276781436378
    Total Energy =                       -490.7020145855029796
  Basis Set: (AUG-CC-PVTZ AUX)
    Blend: AUG-CC-PVTZ-RI
    Molecular point group: c1

    Geometry (in Angstrom), charge = 0, multiplicity = 1:

       Center              X                  Y                   Z               Mass
    ------------   -----------------  -----------------  -----------------  -----------------
         O            2.315951494151    -1.336326774651     0.000059426708    15.994914619570
         O           -2.267090505849    -1.428215774651    -0.000129573292    15.994914619570
         N            1.187400494151     0.687579225349     0.000056426708    14.003074004430
         N            0.020133494151    -1.314110774651    -0.000032573292    14.003074004430
         C           -1.229884505849     0.726801225349    -0.000023573292    12.000000000000
         C           -0.114871305849     1.399805925349     0.000035026708    12.000000000000
         C            1.265374494151    -0.698798774651     0.000032426708    12.000000000000
         C           -1.249503505849    -0.733435774651    -0.000065573292    12.000000000000
         C            2.429131494151     1.456338225349     0.000125426708    12.000000000000
         C           -2.545686505849     1.437874225349    -0.000055573292    12.000000000000
         H            0.056457494151     2.436048225349     0.000070426708     1.007825032230
         H            0.050970494151    -2.331473774651    -0.000059573292     1.007825032230
         H            2.484805494151     2.083067225349     0.893516426708     1.007825032230
         H            2.484661494151     2.083423225349    -0.893076573292     1.007825032230
         H            3.251462494151     0.744378225349    -0.000050573292     1.007825032230
         H           -3.132760505849     1.156947225349    -0.878594573292     1.007825032230
         H           -2.405525505849     2.522586225349    -0.000021573292     1.007825032230
         H           -3.132826505849     1.156901225349     0.878424426708     1.007825032230

  Basis Set: AUG-CC-PVTZ
    Blend: AUG-CC-PVTZ
  Basis Set: (AUG-CC-PVTZ AUX)
    Blend: AUG-CC-PVTZ-JKFIT
	 Reference Energy          =    -490.7020145855029796 [Eh]
	 Singles Energy            =      -0.0000000000000000 [Eh]
	 Same-Spin Energy          =      -0.5012586949934590 [Eh]
	 Opposite-Spin Energy      =      -1.5411374665233533 [Eh]
	 Correlation Energy        =      -2.0423961615168125 [Eh]
	 Total Energy              =    -492.7444107470197991 [Eh]

	 ================> DF-SCS-MP2 Energies <==================
	-----------------------------------------------------------
	 SCS Same-Spin Scale       =       0.3333333333333333 [-]
	 SCS Opposite-Spin Scale   =       1.2000000000000000 [-]
	 SCS Same-Spin Energy      =      -0.1670862316644863 [Eh]
	 SCS Opposite-Spin Energy  =      -1.8493649598280237 [Eh]
	 SCS Correlation Energy    =      -2.0164511914925098 [Eh]
	 SCS Total Energy          =    -492.7184657769955152 [Eh]
	-----------------------------------------------------------

  Dipole Moment: [D]
     X:     0.5111      Y:     4.5308      Z:     0.0001     Total:     4.5595

*** Psi4 exiting successfully. Buy a developer a beer!
