                               Psi4 1.3.2 release

  ==> Input File <==

--------------------------------------------------------------------------
#psi4
#
memory 32 gb

molecule  {
0 1
  O        2.3055556    -1.4075436     0.0000576
  O       -2.2718830    -1.4902890    -0.0001310
  N        1.1705127     0.6247728     0.0000545
  N        0.0153410    -1.3761840    -0.0000340
  C       -1.2346770     0.6647280    -0.0000250
  C       -0.0319280     1.2897490     0.0000350
  C        1.2605820    -0.7608720     0.0000310
  C       -1.2542960    -0.7955090    -0.0000670
  C        2.4243390     1.3942650     0.0001240
  C       -2.5504790     1.3758010    -0.0000570
  H        0.0516650     2.3739750     0.0000690
  H        0.0461780    -2.3935470    -0.0000610
  H        2.4800130     2.0209940     0.8935150
  H        2.4798690     2.0213500    -0.8930780
  H        3.2466700     0.6823050    -0.0000520
  H       -3.1375530     1.0948740    -0.8785960
  H       -2.4103180     2.4605130    -0.0000230
  H       -3.1376190     1.0948280     0.8784230
units angstrom
no_reorient  #important for SAPT in psi4, default
symmetry c1  #important for SAPT in psi4, default
}

set PROPERTIES_ORIGIN ["COM"]
properties('MP2/aug-cc-pvtz', properties = ['dipole'])
--------------------------------------------------------------------------

    Molecular point group: c1
  Charge       = 0
  Multiplicity = 1
  Basis Set: AUG-CC-PVTZ
    Blend: AUG-CC-PVTZ
  Basis Set: (AUG-CC-PVTZ AUX)
    Blend: AUG-CC-PVTZ-JKFIT

    Orbital Energies [Eh]
    ---------------------

    Doubly Occupied:

       1A    -20.541290     2A    -20.537509     3A    -15.639090
       4A    -15.623646     5A    -11.414077     6A    -11.375280
       7A    -11.324393     8A    -11.287762     9A    -11.258487
      10A    -11.236508    11A     -1.424331    12A     -1.386208
      13A     -1.308838    14A     -1.241943    15A     -1.108322
      16A     -0.993126    17A     -0.964470    18A     -0.914318
      19A     -0.853148    20A     -0.770950    21A     -0.734007
      22A     -0.693333    23A     -0.682362    24A     -0.648410
      25A     -0.637867    26A     -0.615398    27A     -0.608519
      28A     -0.588905    29A     -0.583728    30A     -0.556033
      31A     -0.547481    32A     -0.543049    33A     -0.490476
      34A     -0.475769    35A     -0.443540    36A     -0.429923
      37A     -0.344990

  @DF-RHF Final Energy:  -490.71168251122003

   => Energetics <=

    Nuclear Repulsion Energy =            530.4679833594666434
    One-Electron Energy =               -1720.7043601387124454
    Two-Electron Energy =                 699.5246942680257689
    Total Energy =                       -490.7116825112200331
  Basis Set: (AUG-CC-PVTZ AUX)
    Blend: AUG-CC-PVTZ-RI
    Molecular point group: c1

    Geometry (in Angstrom), charge = 0, multiplicity = 1:

       Center              X                  Y                   Z               Mass
    ------------   -----------------  -----------------  -----------------  -----------------
         O            2.304680234827    -1.340241686996     0.000059002429    15.994914619570
         O           -2.272758365173    -1.422987086996    -0.000129597571    15.994914619570
         N            1.169637334827     0.692074713004     0.000055902429    14.003074004430
         N            0.014465634827    -1.308882086996    -0.000032597571    14.003074004430
         C           -1.235552365173     0.732029913004    -0.000023597571    12.000000000000
         C           -0.032803365173     1.357050913004     0.000036402429    12.000000000000
         C            1.259706634827    -0.693570086996     0.000032402429    12.000000000000
         C           -1.255171365173    -0.728207086996    -0.000065597571    12.000000000000
         C            2.423463634827     1.461566913004     0.000125402429    12.000000000000
         C           -2.551354365173     1.443102913004    -0.000055597571    12.000000000000
         H            0.050789634827     2.441276913004     0.000070402429     1.007825032230
         H            0.045302634827    -2.326245086996    -0.000059597571     1.007825032230
         H            2.479137634827     2.088295913004     0.893516402429     1.007825032230
         H            2.478993634827     2.088651913004    -0.893076597571     1.007825032230
         H            3.245794634827     0.749606913004    -0.000050597571     1.007825032230
         H           -3.138428365173     1.162175913004    -0.878594597571     1.007825032230
         H           -2.411193365173     2.527814913004    -0.000021597571     1.007825032230
         H           -3.138494365173     1.162129913004     0.878424402429     1.007825032230

  Basis Set: AUG-CC-PVTZ
    Blend: AUG-CC-PVTZ
  Basis Set: (AUG-CC-PVTZ AUX)
    Blend: AUG-CC-PVTZ-JKFIT
	 Reference Energy          =    -490.7116825112200331 [Eh]
	 Singles Energy            =      -0.0000000000000000 [Eh]
	 Same-Spin Energy          =      -0.5024670275852596 [Eh]
	 Opposite-Spin Energy      =      -1.5415244868179743 [Eh]
	 Correlation Energy        =      -2.0439915144032339 [Eh]
	 Total Energy              =    -492.7556740256232501 [Eh]

	 ================> DF-SCS-MP2 Energies <==================
	-----------------------------------------------------------
	 SCS Same-Spin Scale       =       0.3333333333333333 [-]
	 SCS Opposite-Spin Scale   =       1.2000000000000000 [-]
	 SCS Same-Spin Energy      =      -0.1674890091950865 [Eh]
	 SCS Opposite-Spin Energy  =      -1.8498293841815689 [Eh]
	 SCS Correlation Energy    =      -2.0173183933766556 [Eh]
	 SCS Total Energy          =    -492.7290009045967167 [Eh]
	-----------------------------------------------------------

  Dipole Moment: [D]
     X:     1.1308      Y:     4.5597      Z:     0.0002     Total:     4.6978

*** Psi4 exiting successfully. Buy a developer a beer!
