                               Psi4 1.4a3.dev225

  ==> Input File <==

--------------------------------------------------------------------------
#psi4
#
memory 32 gb

molecule  {
0 1
  O        2.3212770    -1.3580180     0.0000020
  O       -2.2717460    -1.4962290     0.0000010
  N        1.1724310     0.6334210    -0.0000020
  N        0.0162060    -1.3769820    -0.0000020
  C       -1.2398930     0.6613320     0.0000000
  C       -0.0223257     1.2839135    -0.0000010
  C        1.2527440    -0.7526170    -0.0000010
  C       -1.2589250    -0.7964470     0.0000000
  C        2.4447950     1.3519700     0.0000010
  C       -2.5550880     1.3760200     0.0000010
  H        0.0310140     2.3780990    -0.0000010
  H        0.0457120    -2.3937650    -0.0000010
  H        2.2343430     2.4214070    -0.0000200
  H        3.0241620     1.0875710    -0.8862110
  H        3.0241420     1.0876020     0.8862360
  H       -3.1432670     1.0977880    -0.8790540
  H       -2.4120010     2.4600010     0.0000010
  H       -3.1432670     1.0977870     0.8790540
units angstrom
no_reorient  #important for SAPT in psi4, default
symmetry c1  #important for SAPT in psi4, default
}

set PROPERTIES_ORIGIN ["COM"]
properties('MP2/aug-cc-pvtz', properties = ['dipole'])
--------------------------------------------------------------------------

    Molecular point group: c1
  Charge       = 0
  Multiplicity = 1
  Basis Set: AUG-CC-PVTZ
    Blend: AUG-CC-PVTZ
  Basis Set: (AUG-CC-PVTZ AUX)
    Blend: AUG-CC-PVTZ-JKFIT

    Orbital Energies [Eh]
    ---------------------

    Doubly Occupied:

       1A    -20.542389     2A    -20.536079     3A    -15.640952
       4A    -15.625002     5A    -11.412804     6A    -11.374111
       7A    -11.327554     8A    -11.290298     9A    -11.256211
      10A    -11.235768    11A     -1.426576    12A     -1.386102
      13A     -1.311921    14A     -1.244751    15A     -1.105574
      16A     -0.996174    17A     -0.963097    18A     -0.914857
      19A     -0.853733    20A     -0.771753    21A     -0.735336
      22A     -0.693231    23A     -0.685544    24A     -0.651640
      25A     -0.636334    26A     -0.612847    27A     -0.606293
      28A     -0.592071    29A     -0.580865    30A     -0.559031
      31A     -0.546716    32A     -0.540024    33A     -0.495197
      34A     -0.476043    35A     -0.442865    36A     -0.430217
      37A     -0.340684

  @DF-RHF Final Energy:  -490.71175404924406

   => Energetics <=

    Nuclear Repulsion Energy =            530.9655302501613505
    One-Electron Energy =               -1721.6732880714052953
    Two-Electron Energy =                 699.9960037719997672
    Total Energy =                       -490.7117540492440639
  Basis Set: (AUG-CC-PVTZ AUX)
    Blend: AUG-CC-PVTZ-RI
    Molecular point group: c1

    Geometry (in Angstrom), charge = 0, multiplicity = 1:

       Center              X                  Y                   Z               Mass
    ------------   -----------------  -----------------  -----------------  -----------------
         O            2.317345161996    -1.291854591010     0.000002028533    15.994914619570
         O           -2.275677838004    -1.430065591010     0.000001028533    15.994914619570
         N            1.168499161996     0.699584408990    -0.000001971467    14.003074004430
         N            0.012274161996    -1.310818591010    -0.000001971467    14.003074004430
         C           -1.243824838004     0.727495408990     0.000000028533    12.000000000000
         C           -0.026257538004     1.350076908990    -0.000000971467    12.000000000000
         C            1.248812161996    -0.686453591010    -0.000000971467    12.000000000000
         C           -1.262856838004    -0.730283591010     0.000000028533    12.000000000000
         C            2.440863161996     1.418133408990     0.000001028533    12.000000000000
         C           -2.559019838004     1.442183408990     0.000001028533    12.000000000000
         H            0.027082161996     2.444262408990    -0.000000971467     1.007825032230
         H            0.041780161996    -2.327601591010    -0.000000971467     1.007825032230
         H            2.230411161996     2.487570408990    -0.000019971467     1.007825032230
         H            3.020230161996     1.153734408990    -0.886210971467     1.007825032230
         H            3.020210161996     1.153765408990     0.886236028533     1.007825032230
         H           -3.147198838004     1.163951408990    -0.879053971467     1.007825032230
         H           -2.415932838004     2.526164408990     0.000001028533     1.007825032230
         H           -3.147198838004     1.163950408990     0.879054028533     1.007825032230

  Basis Set: AUG-CC-PVTZ
    Blend: AUG-CC-PVTZ
  Basis Set: (AUG-CC-PVTZ AUX)
    Blend: AUG-CC-PVTZ-JKFIT
	 Reference Energy          =    -490.7117540492440639 [Eh]
	 Singles Energy            =      -0.0000000000000000 [Eh]
	 Same-Spin Energy          =      -0.5026626992902499 [Eh]
	 Opposite-Spin Energy      =      -1.5414712006337128 [Eh]
	 Correlation Energy        =      -2.0441338999239624 [Eh]
	 Total Energy              =    -492.7558879491680273 [Eh]

	 ================> DF-SCS-MP2 Energies <==================
	-----------------------------------------------------------
	 SCS Same-Spin Scale       =       0.3333333333333333 [-]
	 SCS Opposite-Spin Scale   =       1.2000000000000000 [-]
	 SCS Same-Spin Energy      =      -0.1675542330967499 [Eh]
	 SCS Opposite-Spin Energy  =      -1.8497654407604553 [Eh]
	 SCS Correlation Energy    =      -2.0173196738572052 [Eh]
	 SCS Total Energy          =    -492.7290737231012940 [Eh]
	-----------------------------------------------------------

  Dipole Moment: [D]
     X:     1.2162      Y:     4.5135      Z:    -0.0000     Total:     4.6745

*** Psi4 exiting successfully. Buy a developer a beer!
