                               Psi4 1.3.2 release

  ==> Input File <==

--------------------------------------------------------------------------
#psi4
#
memory 32 gb

molecule  {
0 1
  O        2.3111590    -1.3984000     0.0000580
  O       -2.2718830    -1.4902890    -0.0001310
  N        1.1826080     0.6255060     0.0000550
  N        0.0153410    -1.3761840    -0.0000340
  C       -1.2346770     0.6647280    -0.0000250
  C       -0.0319280     1.2897490     0.0000350
  C        1.2605820    -0.7608720     0.0000310
  C       -1.2542960    -0.7955090    -0.0000670
  C        2.4243390     1.3942650     0.0001240
  C       -2.5504790     1.3758010    -0.0000570
  H        0.0516650     2.3739750     0.0000690
  H        0.0461780    -2.3935470    -0.0000610
  H        2.4800130     2.0209940     0.8935150
  H        2.4798690     2.0213500    -0.8930780
  H        3.2466700     0.6823050    -0.0000520
  H       -3.1912481     1.0691798    -0.9589492
  H       -2.4103180     2.4605130    -0.0000230
  H       -3.1376190     1.0948280     0.8784230
units angstrom
no_reorient  #important for SAPT in psi4, default
symmetry c1  #important for SAPT in psi4, default
}

set PROPERTIES_ORIGIN ["COM"]
properties('MP2/aug-cc-pvtz', properties = ['dipole'])
--------------------------------------------------------------------------

    Molecular point group: c1
  Charge       = 0
  Multiplicity = 1
  Basis Set: AUG-CC-PVTZ
    Blend: AUG-CC-PVTZ
  Basis Set: (AUG-CC-PVTZ AUX)
    Blend: AUG-CC-PVTZ-JKFIT

    Orbital Energies [Eh]
    ---------------------

    Doubly Occupied:

       1A    -20.540806     2A    -20.538599     3A    -15.638662
       4A    -15.624815     5A    -11.414010     6A    -11.376341
       7A    -11.325650     8A    -11.286272     9A    -11.260519
      10A    -11.248379    11A     -1.424366    12A     -1.387050
      13A     -1.307164    14A     -1.243141    15A     -1.108601
      16A     -0.992246    17A     -0.960231    18A     -0.913392
      19A     -0.851372    20A     -0.770781    21A     -0.734613
      22A     -0.692593    23A     -0.682393    24A     -0.649552
      25A     -0.637975    26A     -0.615103    27A     -0.609273
      28A     -0.589101    29A     -0.576348    30A     -0.555971
      31A     -0.546083    32A     -0.535642    33A     -0.486922
      34A     -0.475588    35A     -0.444419    36A     -0.430597
      37A     -0.345570

  @DF-RHF Final Energy:  -490.70546506176260

   => Energetics <=

    Nuclear Repulsion Energy =            529.9583684106547707
    One-Electron Energy =               -1719.6873798149695176
    Two-Electron Energy =                 699.0235463425522084
    Total Energy =                       -490.7054650617626521
  Basis Set: (AUG-CC-PVTZ AUX)
    Blend: AUG-CC-PVTZ-RI
    Molecular point group: c1

    Geometry (in Angstrom), charge = 0, multiplicity = 1:

       Center              X                  Y                   Z               Mass
    ------------   -----------------  -----------------  -----------------  -----------------
         O            2.308820803894    -1.332030717468     0.000637507450    15.994914619570
         O           -2.274221196106    -1.423919717468     0.000448507450    15.994914619570
         N            1.180269803894     0.691875282532     0.000634507450    14.003074004430
         N            0.013002803894    -1.309814717468     0.000545507450    14.003074004430
         C           -1.237015196106     0.731097282532     0.000554507450    12.000000000000
         C           -0.034266196106     1.356118282532     0.000614507450    12.000000000000
         C            1.258243803894    -0.694502717468     0.000610507450    12.000000000000
         C           -1.256634196106    -0.729139717468     0.000512507450    12.000000000000
         C            2.422000803894     1.460634282532     0.000703507450    12.000000000000
         C           -2.552817196106     1.442170282532     0.000522507450    12.000000000000
         H            0.049326803894     2.440344282532     0.000648507450     1.007825032230
         H            0.043839803894    -2.327177717468     0.000518507450     1.007825032230
         H            2.477674803894     2.087363282532     0.894094507450     1.007825032230
         H            2.477530803894     2.087719282532    -0.892498492550     1.007825032230
         H            3.244331803894     0.748674282532     0.000527507450     1.007825032230
         H           -3.193586296106     1.135549082532    -0.958369692550     1.007825032230
         H           -2.412656196106     2.526882282532     0.000556507450     1.007825032230
         H           -3.139957196106     1.161197282532     0.879002507450     1.007825032230

  Basis Set: AUG-CC-PVTZ
    Blend: AUG-CC-PVTZ
  Basis Set: (AUG-CC-PVTZ AUX)
    Blend: AUG-CC-PVTZ-JKFIT
	 Reference Energy          =    -490.7054650617625953 [Eh]
	 Singles Energy            =      -0.0000000000000000 [Eh]
	 Same-Spin Energy          =      -0.5024255554412912 [Eh]
	 Opposite-Spin Energy      =      -1.5422021516783120 [Eh]
	 Correlation Energy        =      -2.0446277071196031 [Eh]
	 Total Energy              =    -492.7500927688822117 [Eh]

	 ================> DF-SCS-MP2 Energies <==================
	-----------------------------------------------------------
	 SCS Same-Spin Scale       =       0.3333333333333333 [-]
	 SCS Opposite-Spin Scale   =       1.2000000000000000 [-]
	 SCS Same-Spin Energy      =      -0.1674751851470971 [Eh]
	 SCS Opposite-Spin Energy  =      -1.8506425820139742 [Eh]
	 SCS Correlation Energy    =      -2.0181177671610713 [Eh]
	 SCS Total Energy          =    -492.7235828289236679 [Eh]
	-----------------------------------------------------------

  Dipole Moment: [D]
     X:     1.0882      Y:     4.5111      Z:     0.0259     Total:     4.6405

*** Psi4 exiting successfully. Buy a developer a beer!
