                               Psi4 1.3.2 release

  ==> Input File <==

--------------------------------------------------------------------------
#psi4
#
memory 32 gb

molecule  {
0 1
  O        2.3111590    -1.3984000     0.0000580
  O       -2.2718830    -1.4902890    -0.0001310
  N        1.2157073     0.6899802     0.0000579
  N        0.0153410    -1.3761840    -0.0000340
  C       -1.2346770     0.6647280    -0.0000250
  C       -0.0319280     1.2897490     0.0000350
  C        1.2605820    -0.7608720     0.0000310
  C       -1.2542960    -0.7955090    -0.0000670
  C        2.4243390     1.3942650     0.0001240
  C       -2.5504790     1.3758010    -0.0000570
  H        0.1082944     2.3681142     0.0000707
  H        0.0461780    -2.3935470    -0.0000610
  H        2.4800130     2.0209940     0.8935150
  H        2.4798690     2.0213500    -0.8930780
  H        3.2466700     0.6823050    -0.0000520
  H       -3.1375530     1.0948740    -0.8785960
  H       -2.4103180     2.4605130    -0.0000230
  H       -3.1376190     1.0948280     0.8784230
units angstrom
no_reorient  #important for SAPT in psi4, default
symmetry c1  #important for SAPT in psi4, default
}

set PROPERTIES_ORIGIN ["COM"]
properties('MP2/aug-cc-pvtz', properties = ['dipole'])
--------------------------------------------------------------------------

    Molecular point group: c1
  Charge       = 0
  Multiplicity = 1
  Basis Set: AUG-CC-PVTZ
    Blend: AUG-CC-PVTZ
  Basis Set: (AUG-CC-PVTZ AUX)
    Blend: AUG-CC-PVTZ-JKFIT

    Orbital Energies [Eh]
    ---------------------

    Doubly Occupied:

       1A    -20.548239     2A    -20.540016     3A    -15.636897
       4A    -15.629565     5A    -11.421291     6A    -11.377609
       7A    -11.325512     8A    -11.279625     9A    -11.258980
      10A    -11.236511    11A     -1.424073    12A     -1.388754
      13A     -1.307625    14A     -1.249389    15A     -1.109307
      16A     -0.997017    17A     -0.953598    18A     -0.912488
      19A     -0.854917    20A     -0.767448    21A     -0.738284
      22A     -0.690681    23A     -0.682552    24A     -0.661473
      25A     -0.638490    26A     -0.618968    27A     -0.615251
      28A     -0.584244    29A     -0.583865    30A     -0.551928
      31A     -0.548897    32A     -0.542211    33A     -0.485163
      34A     -0.476546    35A     -0.446557    36A     -0.433251
      37A     -0.342916

  @DF-RHF Final Energy:  -490.70273193046961

   => Energetics <=

    Nuclear Repulsion Energy =            529.5208895058590315
    One-Electron Energy =               -1718.7269633636669823
    Two-Electron Energy =                 698.5033419273383970
    Total Energy =                       -490.7027319304695538
  Basis Set: (AUG-CC-PVTZ AUX)
    Blend: AUG-CC-PVTZ-RI
    Molecular point group: c1

    Geometry (in Angstrom), charge = 0, multiplicity = 1:

       Center              X                  Y                   Z               Mass
    ------------   -----------------  -----------------  -----------------  -----------------
         O            2.304717665404    -1.338619571985     0.000059004583    15.994914619570
         O           -2.278324334596    -1.430508571985    -0.000129995417    15.994914619570
         N            1.209265965404     0.749760628015     0.000058904583    14.003074004430
         N            0.008899665404    -1.316403571985    -0.000032995417    14.003074004430
         C           -1.241118334596     0.724508428015    -0.000023995417    12.000000000000
         C           -0.038369334596     1.349529428015     0.000036004583    12.000000000000
         C            1.254140665404    -0.701091571985     0.000032004583    12.000000000000
         C           -1.260737334596    -0.735728571985    -0.000065995417    12.000000000000
         C            2.417897665404     1.454045428015     0.000125004583    12.000000000000
         C           -2.556920334596     1.435581428015    -0.000055995417    12.000000000000
         H            0.101853065404     2.427894628015     0.000071704583     1.007825032230
         H            0.039736665404    -2.333766571985    -0.000059995417     1.007825032230
         H            2.473571665404     2.080774428015     0.893516004583     1.007825032230
         H            2.473427665404     2.081130428015    -0.893076995417     1.007825032230
         H            3.240228665404     0.742085428015    -0.000050995417     1.007825032230
         H           -3.143994334596     1.154654428015    -0.878594995417     1.007825032230
         H           -2.416759334596     2.520293428015    -0.000021995417     1.007825032230
         H           -3.144060334596     1.154608428015     0.878424004583     1.007825032230

  Basis Set: AUG-CC-PVTZ
    Blend: AUG-CC-PVTZ
  Basis Set: (AUG-CC-PVTZ AUX)
    Blend: AUG-CC-PVTZ-JKFIT
	 Reference Energy          =    -490.7027319304696107 [Eh]
	 Singles Energy            =      -0.0000000000000000 [Eh]
	 Same-Spin Energy          =      -0.5031113737258772 [Eh]
	 Opposite-Spin Energy      =      -1.5427673648297151 [Eh]
	 Correlation Energy        =      -2.0458787385555923 [Eh]
	 Total Energy              =    -492.7486106690251972 [Eh]

	 ================> DF-SCS-MP2 Energies <==================
	-----------------------------------------------------------
	 SCS Same-Spin Scale       =       0.3333333333333333 [-]
	 SCS Opposite-Spin Scale   =       1.2000000000000000 [-]
	 SCS Same-Spin Energy      =      -0.1677037912419591 [Eh]
	 SCS Opposite-Spin Energy  =      -1.8513208377956580 [Eh]
	 SCS Correlation Energy    =      -2.0190246290376170 [Eh]
	 SCS Total Energy          =    -492.7217565595072415 [Eh]
	-----------------------------------------------------------

  Dipole Moment: [D]
     X:     1.1132      Y:     4.1868      Z:     0.0002     Total:     4.3323

*** Psi4 exiting successfully. Buy a developer a beer!
