                               Psi4 1.3.2 release

  ==> Input File <==

--------------------------------------------------------------------------
#psi4
#
memory 32 gb

molecule  {
0 1
  O        2.3111590    -1.3984000     0.0000580
  O       -2.2718830    -1.4902890    -0.0001310
  N        1.1826080     0.6255060     0.0000550
  N       -0.0056977    -1.4201400    -0.0000361
  C       -1.2856505     0.6645232    -0.0000270
  C       -0.0319280     1.2897490     0.0000350
  C        1.2605820    -0.7608720     0.0000310
  C       -1.2542960    -0.7955090    -0.0000670
  C        2.4243390     1.3942650     0.0001240
  C       -2.5504790     1.3758010    -0.0000570
  H        0.0516650     2.3739750     0.0000690
  H        0.0461780    -2.3935470    -0.0000610
  H        2.4800130     2.0209940     0.8935150
  H        2.4798690     2.0213500    -0.8930780
  H        3.2466700     0.6823050    -0.0000520
  H       -3.1375530     1.0948740    -0.8785960
  H       -2.4103180     2.4605130    -0.0000230
  H       -3.1376190     1.0948280     0.8784230
units angstrom
no_reorient  #important for SAPT in psi4, default
symmetry c1  #important for SAPT in psi4, default
}

set PROPERTIES_ORIGIN ["COM"]
properties('MP2/aug-cc-pvtz', properties = ['dipole'])
--------------------------------------------------------------------------

    Molecular point group: c1
  Charge       = 0
  Multiplicity = 1
  Basis Set: AUG-CC-PVTZ
    Blend: AUG-CC-PVTZ
  Basis Set: (AUG-CC-PVTZ AUX)
    Blend: AUG-CC-PVTZ-JKFIT

    Orbital Energies [Eh]
    ---------------------

    Doubly Occupied:

       1A    -20.544400     2A    -20.531242     3A    -15.643328
       4A    -15.621183     5A    -11.417900     6A    -11.371869
       7A    -11.331522     8A    -11.288645     9A    -11.264355
      10A    -11.235151    11A     -1.422758    12A     -1.384579
      13A     -1.306464    14A     -1.238816    15A     -1.107990
      16A     -0.996519    17A     -0.964856    18A     -0.914851
      19A     -0.842652    20A     -0.766984    21A     -0.746753
      22A     -0.692713    23A     -0.680993    24A     -0.650115
      25A     -0.636681    26A     -0.615279    27A     -0.609513
      28A     -0.593913    29A     -0.586063    30A     -0.568257
      31A     -0.544256    32A     -0.543014    33A     -0.486340
      34A     -0.475733    35A     -0.439645    36A     -0.427914
      37A     -0.338670

  @DF-RHF Final Energy:  -490.70328508054774

   => Energetics <=

    Nuclear Repulsion Energy =            529.0374953391904000
    One-Electron Energy =               -1717.8177265422136770
    Two-Electron Energy =                 698.0769461224755332
    Total Energy =                       -490.7032850805477437
  Basis Set: (AUG-CC-PVTZ AUX)
    Blend: AUG-CC-PVTZ-RI
    Molecular point group: c1

    Geometry (in Angstrom), charge = 0, multiplicity = 1:

       Center              X                  Y                   Z               Mass
    ------------   -----------------  -----------------  -----------------  -----------------
         O            2.314905209593    -1.327803332944     0.000059688073    15.994914619570
         O           -2.268136790407    -1.419692332944    -0.000129311927    15.994914619570
         N            1.186354209593     0.696102667056     0.000056688073    14.003074004430
         N           -0.001951490407    -1.349543332944    -0.000034411927    14.003074004430
         C           -1.281904290407     0.735119867056    -0.000025311927    12.000000000000
         C           -0.028181790407     1.360345667056     0.000036688073    12.000000000000
         C            1.264328209593    -0.690275332944     0.000032688073    12.000000000000
         C           -1.250549790407    -0.724912332944    -0.000065311927    12.000000000000
         C            2.428085209593     1.464861667056     0.000125688073    12.000000000000
         C           -2.546732790407     1.446397667056    -0.000055311927    12.000000000000
         H            0.055411209593     2.444571667056     0.000070688073     1.007825032230
         H            0.049924209593    -2.322950332944    -0.000059311927     1.007825032230
         H            2.483759209593     2.091590667056     0.893516688073     1.007825032230
         H            2.483615209593     2.091946667056    -0.893076311927     1.007825032230
         H            3.250416209593     0.752901667056    -0.000050311927     1.007825032230
         H           -3.133806790407     1.165470667056    -0.878594311927     1.007825032230
         H           -2.406571790407     2.531109667056    -0.000021311927     1.007825032230
         H           -3.133872790407     1.165424667056     0.878424688073     1.007825032230

  Basis Set: AUG-CC-PVTZ
    Blend: AUG-CC-PVTZ
  Basis Set: (AUG-CC-PVTZ AUX)
    Blend: AUG-CC-PVTZ-JKFIT
	 Reference Energy          =    -490.7032850805477437 [Eh]
	 Singles Energy            =      -0.0000000000000000 [Eh]
	 Same-Spin Energy          =      -0.5027219057296476 [Eh]
	 Opposite-Spin Energy      =      -1.5424387997092146 [Eh]
	 Correlation Energy        =      -2.0451607054388621 [Eh]
	 Total Energy              =    -492.7484457859866325 [Eh]

	 ================> DF-SCS-MP2 Energies <==================
	-----------------------------------------------------------
	 SCS Same-Spin Scale       =       0.3333333333333333 [-]
	 SCS Opposite-Spin Scale   =       1.2000000000000000 [-]
	 SCS Same-Spin Energy      =      -0.1675739685765492 [Eh]
	 SCS Opposite-Spin Energy  =      -1.8509265596510573 [Eh]
	 SCS Correlation Energy    =      -2.0185005282276065 [Eh]
	 SCS Total Energy          =    -492.7217856087753489 [Eh]
	-----------------------------------------------------------

  Dipole Moment: [D]
     X:     1.2012      Y:     4.6480      Z:     0.0002     Total:     4.8007

*** Psi4 exiting successfully. Buy a developer a beer!
