                               Psi4 1.3.2 release

  ==> Input File <==

--------------------------------------------------------------------------
#psi4
#
memory 32 gb

molecule  {
0 1
  O        2.3166824    -1.3892078     0.0000584
  O       -2.2718830    -1.4902890    -0.0001310
  N        1.1826080     0.6255060     0.0000550
  N        0.0100189    -1.3652939    -0.0000340
  C       -1.2346770     0.6647280    -0.0000250
  C       -0.0319280     1.2897490     0.0000350
  C        1.2605820    -0.7608720     0.0000310
  C       -1.2542960    -0.7955090    -0.0000670
  C        2.4243390     1.3942650     0.0001240
  C       -2.5504790     1.3758010    -0.0000570
  H        0.0516650     2.3739750     0.0000690
  H        0.0461780    -2.3935470    -0.0000610
  H        2.4800130     2.0209940     0.8935150
  H        2.4798690     2.0213500    -0.8930780
  H        3.2466700     0.6823050    -0.0000520
  H       -3.1375530     1.0948740    -0.8785960
  H       -2.4103180     2.4605130    -0.0000230
  H       -3.1376190     1.0948280     0.8784230
units angstrom
no_reorient  #important for SAPT in psi4, default
symmetry c1  #important for SAPT in psi4, default
}

set PROPERTIES_ORIGIN ["COM"]
properties('MP2/aug-cc-pvtz', properties = ['dipole'])
--------------------------------------------------------------------------

    Molecular point group: c1
  Charge       = 0
  Multiplicity = 1
  Basis Set: AUG-CC-PVTZ
    Blend: AUG-CC-PVTZ
  Basis Set: (AUG-CC-PVTZ AUX)
    Blend: AUG-CC-PVTZ-JKFIT

    Orbital Energies [Eh]
    ---------------------

    Doubly Occupied:

       1A    -20.541653     2A    -20.537836     3A    -15.637599
       4A    -15.626371     5A    -11.414521     6A    -11.375547
       7A    -11.324365     8A    -11.285484     9A    -11.259096
      10A    -11.236750    11A     -1.424868    12A     -1.387277
      13A     -1.306989    14A     -1.244250    15A     -1.108635
      16A     -0.992994    17A     -0.964219    18A     -0.914229
      19A     -0.854358    20A     -0.770428    21A     -0.733217
      22A     -0.691479    23A     -0.682524    24A     -0.649309
      25A     -0.638683    26A     -0.616202    27A     -0.608967
      28A     -0.588268    29A     -0.583841    30A     -0.554630
      31A     -0.547604    32A     -0.543667    33A     -0.487704
      34A     -0.475547    35A     -0.444786    36A     -0.431349
      37A     -0.345562

  @DF-RHF Final Energy:  -490.71128789651101

   => Energetics <=

    Nuclear Repulsion Energy =            530.6238872614577531
    One-Electron Energy =               -1721.0087331522811382
    Two-Electron Energy =                 699.6735579943122048
    Total Energy =                       -490.7112878965110667
  Basis Set: (AUG-CC-PVTZ AUX)
    Blend: AUG-CC-PVTZ-RI
    Molecular point group: c1

    Geometry (in Angstrom), charge = 0, multiplicity = 1:

       Center              X                  Y                   Z               Mass
    ------------   -----------------  -----------------  -----------------  -----------------
         O            2.313859151008    -1.325161963801     0.000059661077    15.994914619570
         O           -2.274706248992    -1.426243163801    -0.000129738923    15.994914619570
         N            1.179784751008     0.689551836199     0.000056261077    14.003074004430
         N            0.007195651008    -1.301248063801    -0.000032738923    14.003074004430
         C           -1.237500248992     0.728773836199    -0.000023738923    12.000000000000
         C           -0.034751248992     1.353794836199     0.000036261077    12.000000000000
         C            1.257758751008    -0.696826163801     0.000032261077    12.000000000000
         C           -1.257119248992    -0.731463163801    -0.000065738923    12.000000000000
         C            2.421515751008     1.458310836199     0.000125261077    12.000000000000
         C           -2.553302248992     1.439846836199    -0.000055738923    12.000000000000
         H            0.048841751008     2.438020836199     0.000070261077     1.007825032230
         H            0.043354751008    -2.329501163801    -0.000059738923     1.007825032230
         H            2.477189751008     2.085039836199     0.893516261077     1.007825032230
         H            2.477045751008     2.085395836199    -0.893076738923     1.007825032230
         H            3.243846751008     0.746350836199    -0.000050738923     1.007825032230
         H           -3.140376248992     1.158919836199    -0.878594738923     1.007825032230
         H           -2.413141248992     2.524558836199    -0.000021738923     1.007825032230
         H           -3.140442248992     1.158873836199     0.878424261077     1.007825032230

  Basis Set: AUG-CC-PVTZ
    Blend: AUG-CC-PVTZ
  Basis Set: (AUG-CC-PVTZ AUX)
    Blend: AUG-CC-PVTZ-JKFIT
	 Reference Energy          =    -490.7112878965110099 [Eh]
	 Singles Energy            =      -0.0000000000000000 [Eh]
	 Same-Spin Energy          =      -0.5026079213064716 [Eh]
	 Opposite-Spin Energy      =      -1.5417116878948702 [Eh]
	 Correlation Energy        =      -2.0443196092013416 [Eh]
	 Total Energy              =    -492.7556075057123621 [Eh]

	 ================> DF-SCS-MP2 Energies <==================
	-----------------------------------------------------------
	 SCS Same-Spin Scale       =       0.3333333333333333 [-]
	 SCS Opposite-Spin Scale   =       1.2000000000000000 [-]
	 SCS Same-Spin Energy      =      -0.1675359737688238 [Eh]
	 SCS Opposite-Spin Energy  =      -1.8500540254738442 [Eh]
	 SCS Correlation Energy    =      -2.0175899992426682 [Eh]
	 SCS Total Energy          =    -492.7288778957536692 [Eh]
	-----------------------------------------------------------

  Dipole Moment: [D]
     X:     1.0794      Y:     4.4790      Z:     0.0002     Total:     4.6072

*** Psi4 exiting successfully. Buy a developer a beer!
