                               Psi4 1.3.2 release

  ==> Input File <==

--------------------------------------------------------------------------
#psi4
#
memory 32 gb

molecule  {
0 1
  O        2.3111590    -1.3984000     0.0000580
  O       -2.2718830    -1.4902890    -0.0001310
  N        1.1767652     0.6149326     0.0000545
  N        0.0153410    -1.3761840    -0.0000340
  C       -1.2291769     0.6542560    -0.0000251
  C       -0.0319280     1.2897490     0.0000350
  C        1.2605820    -0.7608720     0.0000310
  C       -1.2542960    -0.7955090    -0.0000670
  C        2.4243390     1.3942650     0.0001240
  C       -2.5504790     1.3758010    -0.0000570
  H        0.0516650     2.3739750     0.0000690
  H        0.0461780    -2.3935470    -0.0000610
  H        2.4800130     2.0209940     0.8935150
  H        2.4798690     2.0213500    -0.8930780
  H        3.2466700     0.6823050    -0.0000520
  H       -3.1375530     1.0948740    -0.8785960
  H       -2.4103180     2.4605130    -0.0000230
  H       -3.1376190     1.0948280     0.8784230
units angstrom
no_reorient  #important for SAPT in psi4, default
symmetry c1  #important for SAPT in psi4, default
}

set PROPERTIES_ORIGIN ["COM"]
properties('MP2/aug-cc-pvtz', properties = ['dipole'])
--------------------------------------------------------------------------

    Molecular point group: c1
  Charge       = 0
  Multiplicity = 1
  Basis Set: AUG-CC-PVTZ
    Blend: AUG-CC-PVTZ
  Basis Set: (AUG-CC-PVTZ AUX)
    Blend: AUG-CC-PVTZ-JKFIT

    Orbital Energies [Eh]
    ---------------------

    Doubly Occupied:

       1A    -20.539095     2A    -20.537874     3A    -15.638428
       4A    -15.623464     5A    -11.412248     6A    -11.375253
       7A    -11.325939     8A    -11.287242     9A    -11.259322
      10A    -11.237576    11A     -1.424265    12A     -1.386631
      13A     -1.307238    14A     -1.241852    15A     -1.108837
      16A     -0.992488    17A     -0.964944    18A     -0.916386
      19A     -0.852154    20A     -0.771723    21A     -0.734527
      22A     -0.693439    23A     -0.682489    24A     -0.647556
      25A     -0.637771    26A     -0.615371    27A     -0.608977
      28A     -0.588929    29A     -0.583365    30A     -0.553742
      31A     -0.547648    32A     -0.543366    33A     -0.488564
      34A     -0.475270    35A     -0.444250    36A     -0.429991
      37A     -0.346739

  @DF-RHF Final Energy:  -490.71177970487713

   => Energetics <=

    Nuclear Repulsion Energy =            530.6704564620248448
    One-Electron Energy =               -1721.1145641892858293
    Two-Electron Energy =                 699.7323280223837401
    Total Energy =                       -490.7117797048771308
  Basis Set: (AUG-CC-PVTZ AUX)
    Blend: AUG-CC-PVTZ-RI
    Molecular point group: c1

    Geometry (in Angstrom), charge = 0, multiplicity = 1:

       Center              X                  Y                   Z               Mass
    ------------   -----------------  -----------------  -----------------  -----------------
         O            2.308547351844    -1.330261251798     0.000059365316    15.994914619570
         O           -2.274494648156    -1.422150251798    -0.000129634684    15.994914619570
         N            1.174153551844     0.683071348202     0.000055865316    14.003074004430
         N            0.012729351844    -1.308045251798    -0.000032634684    14.003074004430
         C           -1.231788548156     0.722394748202    -0.000023734684    12.000000000000
         C           -0.034539648156     1.357887748202     0.000036365316    12.000000000000
         C            1.257970351844    -0.692733251798     0.000032365316    12.000000000000
         C           -1.256907648156    -0.727370251798    -0.000065634684    12.000000000000
         C            2.421727351844     1.462403748202     0.000125365316    12.000000000000
         C           -2.553090648156     1.443939748202    -0.000055634684    12.000000000000
         H            0.049053351844     2.442113748202     0.000070365316     1.007825032230
         H            0.043566351844    -2.325408251798    -0.000059634684     1.007825032230
         H            2.477401351844     2.089132748202     0.893516365316     1.007825032230
         H            2.477257351844     2.089488748202    -0.893076634684     1.007825032230
         H            3.244058351844     0.750443748202    -0.000050634684     1.007825032230
         H           -3.140164648156     1.163012748202    -0.878594634684     1.007825032230
         H           -2.412929648156     2.528651748202    -0.000021634684     1.007825032230
         H           -3.140230648156     1.162966748202     0.878424365316     1.007825032230

  Basis Set: AUG-CC-PVTZ
    Blend: AUG-CC-PVTZ
  Basis Set: (AUG-CC-PVTZ AUX)
    Blend: AUG-CC-PVTZ-JKFIT
	 Reference Energy          =    -490.7117797048771308 [Eh]
	 Singles Energy            =      -0.0000000000000000 [Eh]
	 Same-Spin Energy          =      -0.5023938439057154 [Eh]
	 Opposite-Spin Energy      =      -1.5414433245671866 [Eh]
	 Correlation Energy        =      -2.0438371684729022 [Eh]
	 Total Energy              =    -492.7556168733500499 [Eh]

	 ================> DF-SCS-MP2 Energies <==================
	-----------------------------------------------------------
	 SCS Same-Spin Scale       =       0.3333333333333333 [-]
	 SCS Opposite-Spin Scale   =       1.2000000000000000 [-]
	 SCS Same-Spin Energy      =      -0.1674646146352385 [Eh]
	 SCS Opposite-Spin Energy  =      -1.8497319894806239 [Eh]
	 SCS Correlation Energy    =      -2.0171966041158624 [Eh]
	 SCS Total Energy          =    -492.7289763089929693 [Eh]
	-----------------------------------------------------------

  Dipole Moment: [D]
     X:     1.0641      Y:     4.6003      Z:     0.0002     Total:     4.7218

*** Psi4 exiting successfully. Buy a developer a beer!
