                               Psi4 1.3.2 release

  ==> Input File <==

--------------------------------------------------------------------------
#psi4
#
memory 32 gb

molecule  {
0 1
  O        2.3111590    -1.3984000     0.0000580
  O       -2.2838536    -1.4724238    -0.0001309
  N        1.1826080     0.6255060     0.0000550
  N        0.0252818    -1.3539373    -0.0000329
  C       -1.2346770     0.6647280    -0.0000250
  C       -0.0319280     1.2897490     0.0000350
  C        1.2605820    -0.7608720     0.0000310
  C       -1.2542960    -0.7955090    -0.0000670
  C        2.4243390     1.3942650     0.0001240
  C       -2.5504790     1.3758010    -0.0000570
  H        0.0516650     2.3739750     0.0000690
  H        0.0461780    -2.3935470    -0.0000610
  H        2.4800130     2.0209940     0.8935150
  H        2.4798690     2.0213500    -0.8930780
  H        3.2466700     0.6823050    -0.0000520
  H       -3.1375530     1.0948740    -0.8785960
  H       -2.4103180     2.4605130    -0.0000230
  H       -3.1376190     1.0948280     0.8784230
units angstrom
no_reorient  #important for SAPT in psi4, default
symmetry c1  #important for SAPT in psi4, default
}

set PROPERTIES_ORIGIN ["COM"]
properties('MP2/aug-cc-pvtz', properties = ['dipole'])
--------------------------------------------------------------------------

    Molecular point group: c1
  Charge       = 0
  Multiplicity = 1
  Basis Set: AUG-CC-PVTZ
    Blend: AUG-CC-PVTZ
  Basis Set: (AUG-CC-PVTZ AUX)
    Blend: AUG-CC-PVTZ-JKFIT

    Orbital Energies [Eh]
    ---------------------

    Doubly Occupied:

       1A    -20.540868     2A    -20.539351     3A    -15.636946
       4A    -15.627674     5A    -11.412402     6A    -11.377715
       7A    -11.323960     8A    -11.285140     9A    -11.258280
      10A    -11.236329    11A     -1.425394    12A     -1.387689
      13A     -1.307250    14A     -1.245842    15A     -1.108333
      16A     -0.992654    17A     -0.964598    18A     -0.914007
      19A     -0.856194    20A     -0.770526    21A     -0.731020
      22A     -0.690383    23A     -0.683178    24A     -0.649466
      25A     -0.638164    26A     -0.616404    27A     -0.609467
      28A     -0.588079    29A     -0.584172    30A     -0.553821
      31A     -0.547142    32A     -0.543086    33A     -0.487492
      34A     -0.474797    35A     -0.445749    36A     -0.432579
      37A     -0.345195

  @DF-RHF Final Energy:  -490.71015395805517

   => Energetics <=

    Nuclear Repulsion Energy =            530.8671524328893838
    One-Electron Energy =               -1721.4919199881915119
    Two-Electron Energy =                 699.9146135972470120
    Total Energy =                       -490.7101539580552299
  Basis Set: (AUG-CC-PVTZ AUX)
    Blend: AUG-CC-PVTZ-RI
    Molecular point group: c1

    Geometry (in Angstrom), charge = 0, multiplicity = 1:

       Center              X                  Y                   Z               Mass
    ------------   -----------------  -----------------  -----------------  -----------------
         O            2.308807607279    -1.336480068619     0.000059185360    15.994914619570
         O           -2.286204992721    -1.410503868619    -0.000129714640    15.994914619570
         N            1.180256607279     0.687425931381     0.000056185360    14.003074004430
         N            0.022930407279    -1.292017368619    -0.000031714640    14.003074004430
         C           -1.237028392721     0.726647931381    -0.000023814640    12.000000000000
         C           -0.034279392721     1.351668931381     0.000036185360    12.000000000000
         C            1.258230607279    -0.698952068619     0.000032185360    12.000000000000
         C           -1.256647392721    -0.733589068619    -0.000065814640    12.000000000000
         C            2.421987607279     1.456184931381     0.000125185360    12.000000000000
         C           -2.552830392721     1.437720931381    -0.000055814640    12.000000000000
         H            0.049313607279     2.435894931381     0.000070185360     1.007825032230
         H            0.043826607279    -2.331627068619    -0.000059814640     1.007825032230
         H            2.477661607279     2.082913931381     0.893516185360     1.007825032230
         H            2.477517607279     2.083269931381    -0.893076814640     1.007825032230
         H            3.244318607279     0.744224931381    -0.000050814640     1.007825032230
         H           -3.139904392721     1.156793931381    -0.878594814640     1.007825032230
         H           -2.412669392721     2.522432931381    -0.000021814640     1.007825032230
         H           -3.139970392721     1.156747931381     0.878424185360     1.007825032230

  Basis Set: AUG-CC-PVTZ
    Blend: AUG-CC-PVTZ
  Basis Set: (AUG-CC-PVTZ AUX)
    Blend: AUG-CC-PVTZ-JKFIT
	 Reference Energy          =    -490.7101539580551730 [Eh]
	 Singles Energy            =      -0.0000000000000000 [Eh]
	 Same-Spin Energy          =      -0.5028091896079389 [Eh]
	 Opposite-Spin Energy      =      -1.5419481267785216 [Eh]
	 Correlation Energy        =      -2.0447573163864603 [Eh]
	 Total Energy              =    -492.7549112744416107 [Eh]

	 ================> DF-SCS-MP2 Energies <==================
	-----------------------------------------------------------
	 SCS Same-Spin Scale       =       0.3333333333333333 [-]
	 SCS Opposite-Spin Scale   =       1.2000000000000000 [-]
	 SCS Same-Spin Energy      =      -0.1676030632026463 [Eh]
	 SCS Opposite-Spin Energy  =      -1.8503377521342257 [Eh]
	 SCS Correlation Energy    =      -2.0179408153368721 [Eh]
	 SCS Total Energy          =    -492.7280947733920584 [Eh]
	-----------------------------------------------------------

  Dipole Moment: [D]
     X:     1.0032      Y:     4.4328      Z:     0.0002     Total:     4.5449

*** Psi4 exiting successfully. Buy a developer a beer!
