                               Psi4 1.3.2 release

  ==> Input File <==

--------------------------------------------------------------------------
#psi4
#
memory 32 gb

molecule  {
0 1
  O        2.3111590    -1.3984000     0.0000580
  O       -2.2718830    -1.4902890    -0.0001310
  N        1.1826080     0.6255060     0.0000550
  N        0.0153410    -1.3761840    -0.0000340
  C       -1.2346770     0.6647280    -0.0000250
  C       -0.0319280     1.2897490     0.0000350
  C        1.2496537    -0.7392333     0.0000312
  C       -1.2542960    -0.7955090    -0.0000670
  C        2.4243390     1.3942650     0.0001240
  C       -2.5504790     1.3758010    -0.0000570
  H        0.0516650     2.3739750     0.0000690
  H        0.0284179    -2.3939302    -0.0000617
  H        2.4800130     2.0209940     0.8935150
  H        2.4798690     2.0213500    -0.8930780
  H        3.2466700     0.6823050    -0.0000520
  H       -3.1375530     1.0948740    -0.8785960
  H       -2.4103180     2.4605130    -0.0000230
  H       -3.1376190     1.0948280     0.8784230
units angstrom
no_reorient  #important for SAPT in psi4, default
symmetry c1  #important for SAPT in psi4, default
}

set PROPERTIES_ORIGIN ["COM"]
properties('MP2/aug-cc-pvtz', properties = ['dipole'])
--------------------------------------------------------------------------

    Molecular point group: c1
  Charge       = 0
  Multiplicity = 1
  Basis Set: AUG-CC-PVTZ
    Blend: AUG-CC-PVTZ
  Basis Set: (AUG-CC-PVTZ AUX)
    Blend: AUG-CC-PVTZ-JKFIT

    Orbital Energies [Eh]
    ---------------------

    Doubly Occupied:

       1A    -20.539359     2A    -20.534394     3A    -15.641712
       4A    -15.625356     5A    -11.412861     6A    -11.376400
       7A    -11.326328     8A    -11.287726     9A    -11.262330
      10A    -11.238589    11A     -1.418165    12A     -1.384850
      13A     -1.306033    14A     -1.243435    15A     -1.110967
      16A     -0.996563    17A     -0.968077    18A     -0.915439
      19A     -0.853156    20A     -0.774130    21A     -0.736140
      22A     -0.692496    23A     -0.684461    24A     -0.650942
      25A     -0.630120    26A     -0.616319    27A     -0.610303
      28A     -0.591132    29A     -0.583389    30A     -0.556866
      31A     -0.549311    32A     -0.542145    33A     -0.487051
      34A     -0.471172    35A     -0.443234    36A     -0.428677
      37A     -0.348406

  @DF-RHF Final Energy:  -490.71013856273959

   => Energetics <=

    Nuclear Repulsion Energy =            530.5478137807585881
    One-Electron Energy =               -1720.8398357255250630
    Two-Electron Energy =                 699.5818833820268310
    Total Energy =                       -490.7101385627396439
  Basis Set: (AUG-CC-PVTZ AUX)
    Blend: AUG-CC-PVTZ-RI
    Molecular point group: c1

    Geometry (in Angstrom), charge = 0, multiplicity = 1:

       Center              X                  Y                   Z               Mass
    ------------   -----------------  -----------------  -----------------  -----------------
         O            2.309498544659    -1.334066818823     0.000059294659    15.994914619570
         O           -2.273543455341    -1.425955818823    -0.000129705341    15.994914619570
         N            1.180947544659     0.689839181177     0.000056294659    14.003074004430
         N            0.013680544659    -1.311850818823    -0.000032705341    14.003074004430
         C           -1.236337455341     0.729061181177    -0.000023705341    12.000000000000
         C           -0.033588455341     1.354082181177     0.000036294659    12.000000000000
         C            1.247993244659    -0.674900118823     0.000032494659    12.000000000000
         C           -1.255956455341    -0.731175818823    -0.000065705341    12.000000000000
         C            2.422678544659     1.458598181177     0.000125294659    12.000000000000
         C           -2.552139455341     1.440134181177    -0.000055705341    12.000000000000
         H            0.050004544659     2.438308181177     0.000070294659     1.007825032230
         H            0.026757444659    -2.329597018823    -0.000060405341     1.007825032230
         H            2.478352544659     2.085327181177     0.893516294659     1.007825032230
         H            2.478208544659     2.085683181177    -0.893076705341     1.007825032230
         H            3.245009544659     0.746638181177    -0.000050705341     1.007825032230
         H           -3.139213455341     1.159207181177    -0.878594705341     1.007825032230
         H           -2.411978455341     2.524846181177    -0.000021705341     1.007825032230
         H           -3.139279455341     1.159161181177     0.878424294659     1.007825032230

  Basis Set: AUG-CC-PVTZ
    Blend: AUG-CC-PVTZ
  Basis Set: (AUG-CC-PVTZ AUX)
    Blend: AUG-CC-PVTZ-JKFIT
	 Reference Energy          =    -490.7101385627395871 [Eh]
	 Singles Energy            =      -0.0000000000000000 [Eh]
	 Same-Spin Energy          =      -0.5026237702279656 [Eh]
	 Opposite-Spin Energy      =      -1.5419584111783442 [Eh]
	 Correlation Energy        =      -2.0445821814063097 [Eh]
	 Total Energy              =    -492.7547207441459136 [Eh]

	 ================> DF-SCS-MP2 Energies <==================
	-----------------------------------------------------------
	 SCS Same-Spin Scale       =       0.3333333333333333 [-]
	 SCS Opposite-Spin Scale   =       1.2000000000000000 [-]
	 SCS Same-Spin Energy      =      -0.1675412567426552 [Eh]
	 SCS Opposite-Spin Energy  =      -1.8503500934140129 [Eh]
	 SCS Correlation Energy    =      -2.0178913501566682 [Eh]
	 SCS Total Energy          =    -492.7280299128962611 [Eh]
	-----------------------------------------------------------

  Dipole Moment: [D]
     X:     0.8805      Y:     4.7089      Z:     0.0002     Total:     4.7905

*** Psi4 exiting successfully. Buy a developer a beer!
