                               Psi4 1.3.2 release

  ==> Input File <==

--------------------------------------------------------------------------
#psi4
#
memory 32 gb

molecule  {
0 1
  O        2.3111590    -1.3984000     0.0000580
  O       -2.2718830    -1.4902890    -0.0001310
  N        1.1826080     0.6255060     0.0000550
  N        0.0153410    -1.3761840    -0.0000340
  C       -1.2346770     0.6647280    -0.0000250
  C       -0.0430193     1.3106447     0.0000352
  C        1.2605820    -0.7608720     0.0000310
  C       -1.2797777    -0.7949442    -0.0000679
  C        2.4243390     1.3942650     0.0001240
  C       -2.5504790     1.3758010    -0.0000570
  H        0.0516650     2.3739750     0.0000690
  H        0.0461780    -2.3935470    -0.0000610
  H        2.4800130     2.0209940     0.8935150
  H        2.4798690     2.0213500    -0.8930780
  H        3.2466700     0.6823050    -0.0000520
  H       -3.1375530     1.0948740    -0.8785960
  H       -2.4103180     2.4605130    -0.0000230
  H       -3.1376190     1.0948280     0.8784230
units angstrom
no_reorient  #important for SAPT in psi4, default
symmetry c1  #important for SAPT in psi4, default
}

set PROPERTIES_ORIGIN ["COM"]
properties('MP2/aug-cc-pvtz', properties = ['dipole'])
--------------------------------------------------------------------------

    Molecular point group: c1
  Charge       = 0
  Multiplicity = 1
  Basis Set: AUG-CC-PVTZ
    Blend: AUG-CC-PVTZ
  Basis Set: (AUG-CC-PVTZ AUX)
    Blend: AUG-CC-PVTZ-JKFIT

    Orbital Energies [Eh]
    ---------------------

    Doubly Occupied:

       1A    -20.545441     2A    -20.536978     3A    -15.634699
       4A    -15.619962     5A    -11.410331     6A    -11.378438
       7A    -11.325010     8A    -11.283262     9A    -11.261020
      10A    -11.237485    11A     -1.422276    12A     -1.399424
      13A     -1.300199    14A     -1.236095    15A     -1.109937
      16A     -0.989620    17A     -0.962281    18A     -0.913154
      19A     -0.846618    20A     -0.768302    21A     -0.730925
      22A     -0.696713    23A     -0.677848    24A     -0.650973
      25A     -0.638037    26A     -0.615926    27A     -0.615217
      28A     -0.587105    29A     -0.583841    30A     -0.554188
      31A     -0.548197    32A     -0.547119    33A     -0.483497
      34A     -0.475791    35A     -0.445959    36A     -0.430771
      37A     -0.347092

  @DF-RHF Final Energy:  -490.71134531245900

   => Energetics <=

    Nuclear Repulsion Energy =            529.8386043248253827
    One-Electron Energy =               -1719.4804334711493539
    Two-Electron Energy =                 698.9304838338649688
    Total Energy =                       -490.7113453124590023
  Basis Set: (AUG-CC-PVTZ AUX)
    Blend: AUG-CC-PVTZ-RI
    Molecular point group: c1

    Geometry (in Angstrom), charge = 0, multiplicity = 1:

       Center              X                  Y                   Z               Mass
    ------------   -----------------  -----------------  -----------------  -----------------
         O            2.311567945418    -1.334054308333     0.000059366733    15.994914619570
         O           -2.271474054582    -1.425943308333    -0.000129633267    15.994914619570
         N            1.183016945418     0.689851691667     0.000056366733    14.003074004430
         N            0.015749945418    -1.311838308333    -0.000032633267    14.003074004430
         C           -1.234268054582     0.729073691667    -0.000023633267    12.000000000000
         C           -0.042610354582     1.374990391667     0.000036566733    12.000000000000
         C            1.260990945418    -0.696526308333     0.000032366733    12.000000000000
         C           -1.279368754582    -0.730598508333    -0.000066533267    12.000000000000
         C            2.424747945418     1.458610691667     0.000125366733    12.000000000000
         C           -2.550070054582     1.440146691667    -0.000055633267    12.000000000000
         H            0.052073945418     2.438320691667     0.000070366733     1.007825032230
         H            0.046586945418    -2.329201308333    -0.000059633267     1.007825032230
         H            2.480421945418     2.085339691667     0.893516366733     1.007825032230
         H            2.480277945418     2.085695691667    -0.893076633267     1.007825032230
         H            3.247078945418     0.746650691667    -0.000050633267     1.007825032230
         H           -3.137144054582     1.159219691667    -0.878594633267     1.007825032230
         H           -2.409909054582     2.524858691667    -0.000021633267     1.007825032230
         H           -3.137210054582     1.159173691667     0.878424366733     1.007825032230

  Basis Set: AUG-CC-PVTZ
    Blend: AUG-CC-PVTZ
  Basis Set: (AUG-CC-PVTZ AUX)
    Blend: AUG-CC-PVTZ-JKFIT
	 Reference Energy          =    -490.7113453124590023 [Eh]
	 Singles Energy            =      -0.0000000000000000 [Eh]
	 Same-Spin Energy          =      -0.5018712426835847 [Eh]
	 Opposite-Spin Energy      =      -1.5409391653290498 [Eh]
	 Correlation Energy        =      -2.0428104080126346 [Eh]
	 Total Energy              =    -492.7541557204716582 [Eh]

	 ================> DF-SCS-MP2 Energies <==================
	-----------------------------------------------------------
	 SCS Same-Spin Scale       =       0.3333333333333333 [-]
	 SCS Opposite-Spin Scale   =       1.2000000000000000 [-]
	 SCS Same-Spin Energy      =      -0.1672904142278616 [Eh]
	 SCS Opposite-Spin Energy  =      -1.8491269983948597 [Eh]
	 SCS Correlation Energy    =      -2.0164174126227215 [Eh]
	 SCS Total Energy          =    -492.7277627250817318 [Eh]
	-----------------------------------------------------------

  Dipole Moment: [D]
     X:     0.7334      Y:     4.5015      Z:     0.0002     Total:     4.5608

*** Psi4 exiting successfully. Buy a developer a beer!
