                               Psi4 1.3.2 release

  ==> Input File <==

--------------------------------------------------------------------------
#psi4
#
memory 32 gb

molecule  {
0 1
  O        2.3111590    -1.3984000     0.0000580
  O       -2.2718830    -1.4902890    -0.0001310
  N        1.1826080     0.6255060     0.0000550
  N        0.0153410    -1.3761840    -0.0000340
  C       -1.2346770     0.6647280    -0.0000250
  C       -0.0433357     1.2684513     0.0000343
  C        1.2363745    -0.7620217     0.0000303
  C       -1.2542960    -0.7955090    -0.0000670
  C        2.4243390     1.3942650     0.0001240
  C       -2.5504790     1.3758010    -0.0000570
  H        0.0516650     2.3739750     0.0000690
  H        0.0461780    -2.3935470    -0.0000610
  H        2.4800130     2.0209940     0.8935150
  H        2.4798690     2.0213500    -0.8930780
  H        3.2466700     0.6823050    -0.0000520
  H       -3.1375530     1.0948740    -0.8785960
  H       -2.4103180     2.4605130    -0.0000230
  H       -3.1376190     1.0948280     0.8784230
units angstrom
no_reorient  #important for SAPT in psi4, default
symmetry c1  #important for SAPT in psi4, default
}

set PROPERTIES_ORIGIN ["COM"]
properties('MP2/aug-cc-pvtz', properties = ['dipole'])
--------------------------------------------------------------------------

    Molecular point group: c1
  Charge       = 0
  Multiplicity = 1
  Basis Set: AUG-CC-PVTZ
    Blend: AUG-CC-PVTZ
  Basis Set: (AUG-CC-PVTZ AUX)
    Blend: AUG-CC-PVTZ-JKFIT

    Orbital Energies [Eh]
    ---------------------

    Doubly Occupied:

       1A    -20.541303     2A    -20.534700     3A    -15.638520
       4A    -15.628459     5A    -11.412466     6A    -11.378551
       7A    -11.324134     8A    -11.286320     9A    -11.258426
      10A    -11.238519    11A     -1.419220    12A     -1.385685
      13A     -1.302544    14A     -1.249208    15A     -1.113677
      16A     -0.994602    17A     -0.963875    18A     -0.915050
      19A     -0.858751    20A     -0.773175    21A     -0.738649
      22A     -0.686712    23A     -0.682746    24A     -0.651801
      25A     -0.629957    26A     -0.617542    27A     -0.608736
      28A     -0.589609    29A     -0.584390    30A     -0.555657
      31A     -0.550157    32A     -0.541579    33A     -0.488027
      34A     -0.469878    35A     -0.445464    36A     -0.431168
      37A     -0.349405

  @DF-RHF Final Energy:  -490.71030451034056

   => Energetics <=

    Nuclear Repulsion Energy =            530.8874914139757948
    One-Electron Energy =               -1721.5182648650074952
    Two-Electron Energy =                 699.9204689406911939
    Total Energy =                       -490.7103045103405066
  Basis Set: (AUG-CC-PVTZ AUX)
    Blend: AUG-CC-PVTZ-RI
    Molecular point group: c1

    Geometry (in Angstrom), charge = 0, multiplicity = 1:

       Center              X                  Y                   Z               Mass
    ------------   -----------------  -----------------  -----------------  -----------------
         O            2.311485882611    -1.330292348091     0.000059426708    15.994914619570
         O           -2.271556117389    -1.422181348091    -0.000129573292    15.994914619570
         N            1.182934882611     0.693613651909     0.000056426708    14.003074004430
         N            0.015667882611    -1.308076348091    -0.000032573292    14.003074004430
         C           -1.234350117389     0.732835651909    -0.000023573292    12.000000000000
         C           -0.043008817389     1.336558951909     0.000035726708    12.000000000000
         C            1.236701382611    -0.693914048091     0.000031726708    12.000000000000
         C           -1.253969117389    -0.727401348091    -0.000065573292    12.000000000000
         C            2.424665882611     1.462372651909     0.000125426708    12.000000000000
         C           -2.550152117389     1.443908651909    -0.000055573292    12.000000000000
         H            0.051991882611     2.442082651909     0.000070426708     1.007825032230
         H            0.046504882611    -2.325439348091    -0.000059573292     1.007825032230
         H            2.480339882611     2.089101651909     0.893516426708     1.007825032230
         H            2.480195882611     2.089457651909    -0.893076573292     1.007825032230
         H            3.246996882611     0.750412651909    -0.000050573292     1.007825032230
         H           -3.137226117389     1.162981651909    -0.878594573292     1.007825032230
         H           -2.409991117389     2.528620651909    -0.000021573292     1.007825032230
         H           -3.137292117389     1.162935651909     0.878424426708     1.007825032230

  Basis Set: AUG-CC-PVTZ
    Blend: AUG-CC-PVTZ
  Basis Set: (AUG-CC-PVTZ AUX)
    Blend: AUG-CC-PVTZ-JKFIT
	 Reference Energy          =    -490.7103045103405634 [Eh]
	 Singles Energy            =      -0.0000000000000000 [Eh]
	 Same-Spin Energy          =      -0.5024508070388296 [Eh]
	 Opposite-Spin Energy      =      -1.5414488054469704 [Eh]
	 Correlation Energy        =      -2.0438996124858000 [Eh]
	 Total Energy              =    -492.7542041228263656 [Eh]

	 ================> DF-SCS-MP2 Energies <==================
	-----------------------------------------------------------
	 SCS Same-Spin Scale       =       0.3333333333333333 [-]
	 SCS Opposite-Spin Scale   =       1.2000000000000000 [-]
	 SCS Same-Spin Energy      =      -0.1674836023462765 [Eh]
	 SCS Opposite-Spin Energy  =      -1.8497385665363644 [Eh]
	 SCS Correlation Energy    =      -2.0172221688826411 [Eh]
	 SCS Total Energy          =    -492.7275266792232173 [Eh]
	-----------------------------------------------------------

  Dipole Moment: [D]
     X:     0.8253      Y:     4.5410      Z:     0.0002     Total:     4.6154

*** Psi4 exiting successfully. Buy a developer a beer!
