                               Psi4 1.3.2 release

  ==> Input File <==

--------------------------------------------------------------------------
#psi4
#
memory 32 gb

molecule  {
0 1
  O        2.3111590    -1.3984000     0.0000580
  O       -2.2718830    -1.4902890    -0.0001310
  N        1.1826080     0.6255060     0.0000550
  N        0.0153410    -1.3761840    -0.0000340
  C       -1.2346770     0.6647280    -0.0000250
  C       -0.0319280     1.2897490     0.0000350
  C        1.2605820    -0.7608720     0.0000310
  C       -1.2542960    -0.7955090    -0.0000670
  C        2.4243390     1.3942650     0.0001240
  C       -2.5504790     1.3758010    -0.0000570
  H        0.0516650     2.3739750     0.0000690
  H        0.0461780    -2.3935470    -0.0000610
  H        2.4800130     2.0209940     0.8935150
  H        2.4328276     2.0485018    -0.8751081
  H        3.2270624     0.6619229     0.0493742
  H       -3.1375530     1.0948740    -0.8785960
  H       -2.4103180     2.4605130    -0.0000230
  H       -3.1376190     1.0948280     0.8784230
units angstrom
no_reorient  #important for SAPT in psi4, default
symmetry c1  #important for SAPT in psi4, default
}

set PROPERTIES_ORIGIN ["COM"]
properties('MP2/aug-cc-pvtz', properties = ['dipole'])
--------------------------------------------------------------------------

    Molecular point group: c1
  Charge       = 0
  Multiplicity = 1
  Basis Set: AUG-CC-PVTZ
    Blend: AUG-CC-PVTZ
  Basis Set: (AUG-CC-PVTZ AUX)
    Blend: AUG-CC-PVTZ-JKFIT

    Orbital Energies [Eh]
    ---------------------

    Doubly Occupied:

       1A    -20.540748     2A    -20.538566     3A    -15.637483
       4A    -15.624646     5A    -11.413758     6A    -11.376239
       7A    -11.324820     8A    -11.286141     9A    -11.259680
      10A    -11.237157    11A     -1.424317    12A     -1.387087
      13A     -1.306876    14A     -1.243041    15A     -1.109097
      16A     -0.993363    17A     -0.963980    18A     -0.914381
      19A     -0.852168    20A     -0.771234    21A     -0.734505
      22A     -0.692135    23A     -0.681857    24A     -0.648574
      25A     -0.638153    26A     -0.615875    27A     -0.608969
      28A     -0.592948    29A     -0.583688    30A     -0.555914
      31A     -0.548028    32A     -0.542729    33A     -0.487028
      34A     -0.475385    35A     -0.444395    36A     -0.430710
      37A     -0.345691

  @DF-RHF Final Energy:  -490.71083461160617

   => Energetics <=

    Nuclear Repulsion Energy =            530.5038256046777860
    One-Electron Energy =               -1720.7665902754267790
    Two-Electron Energy =                 699.5519300591428191
    Total Energy =                       -490.7108346116061739
  Basis Set: (AUG-CC-PVTZ AUX)
    Blend: AUG-CC-PVTZ-RI
    Molecular point group: c1

    Geometry (in Angstrom), charge = 0, multiplicity = 1:

       Center              X                  Y                   Z               Mass
    ------------   -----------------  -----------------  -----------------  -----------------
         O            2.308914016783    -1.332264319234    -0.000425658018    15.994914619570
         O           -2.274127983217    -1.424153319234    -0.000614658018    15.994914619570
         N            1.180363016783     0.691641680766    -0.000428658018    14.003074004430
         N            0.013096016783    -1.310048319234    -0.000517658018    14.003074004430
         C           -1.236921983217     0.730863680766    -0.000508658018    12.000000000000
         C           -0.034172983217     1.355884680766    -0.000448658018    12.000000000000
         C            1.258337016783    -0.694736319234    -0.000452658018    12.000000000000
         C           -1.256540983217    -0.729373319234    -0.000550658018    12.000000000000
         C            2.422094016783     1.460400680766    -0.000359658018    12.000000000000
         C           -2.552723983217     1.441936680766    -0.000540658018    12.000000000000
         H            0.049420016783     2.440110680766    -0.000414658018     1.007825032230
         H            0.043933016783    -2.327411319234    -0.000544658018     1.007825032230
         H            2.477768016783     2.087129680766     0.893031341982     1.007825032230
         H            2.430582616783     2.114637480766    -0.875591758018     1.007825032230
         H            3.224817416783     0.728058580766     0.048890541982     1.007825032230
         H           -3.139797983217     1.161009680766    -0.879079658018     1.007825032230
         H           -2.412562983217     2.526648680766    -0.000506658018     1.007825032230
         H           -3.139863983217     1.160963680766     0.877939341982     1.007825032230

  Basis Set: AUG-CC-PVTZ
    Blend: AUG-CC-PVTZ
  Basis Set: (AUG-CC-PVTZ AUX)
    Blend: AUG-CC-PVTZ-JKFIT
	 Reference Energy          =    -490.7108346116061739 [Eh]
	 Singles Energy            =      -0.0000000000000000 [Eh]
	 Same-Spin Energy          =      -0.5024954551556740 [Eh]
	 Opposite-Spin Energy      =      -1.5415962412142890 [Eh]
	 Correlation Energy        =      -2.0440916963699629 [Eh]
	 Total Energy              =    -492.7549263079761204 [Eh]

	 ================> DF-SCS-MP2 Energies <==================
	-----------------------------------------------------------
	 SCS Same-Spin Scale       =       0.3333333333333333 [-]
	 SCS Opposite-Spin Scale   =       1.2000000000000000 [-]
	 SCS Same-Spin Energy      =      -0.1674984850518913 [Eh]
	 SCS Opposite-Spin Energy  =      -1.8499154894571466 [Eh]
	 SCS Correlation Energy    =      -2.0174139745090378 [Eh]
	 SCS Total Energy          =    -492.7282485861152281 [Eh]
	-----------------------------------------------------------

  Dipole Moment: [D]
     X:     1.0202      Y:     4.5278      Z:     0.0331     Total:     4.6414

*** Psi4 exiting successfully. Buy a developer a beer!
