                               Psi4 1.3.2 release

  ==> Input File <==

--------------------------------------------------------------------------
#psi4
#
memory 32 gb

molecule  {
0 1
  O        2.3111590    -1.3984000     0.0000580
  O       -2.2718830    -1.4902890    -0.0001310
  N        1.1342716     0.6219402     0.0000529
  N       -0.0053745    -1.3323509    -0.0000340
  C       -1.2346770     0.6647280    -0.0000250
  C       -0.0319280     1.2897490     0.0000350
  C        1.2605820    -0.7608720     0.0000310
  C       -1.2542960    -0.7955090    -0.0000670
  C        2.4243390     1.3942650     0.0001240
  C       -2.5504790     1.3758010    -0.0000570
  H        0.0516650     2.3739750     0.0000690
  H        0.0461780    -2.3935470    -0.0000610
  H        2.4800130     2.0209940     0.8935150
  H        2.4798690     2.0213500    -0.8930780
  H        3.2466700     0.6823050    -0.0000520
  H       -3.1375530     1.0948740    -0.8785960
  H       -2.4103180     2.4605130    -0.0000230
  H       -3.1376190     1.0948280     0.8784230
units angstrom
no_reorient  #important for SAPT in psi4, default
symmetry c1  #important for SAPT in psi4, default
}

set PROPERTIES_ORIGIN ["COM"]
properties('MP2/aug-cc-pvtz', properties = ['dipole'])
--------------------------------------------------------------------------

    Molecular point group: c1
  Charge       = 0
  Multiplicity = 1
  Basis Set: AUG-CC-PVTZ
    Blend: AUG-CC-PVTZ
  Basis Set: (AUG-CC-PVTZ AUX)
    Blend: AUG-CC-PVTZ-JKFIT

    Orbital Energies [Eh]
    ---------------------

    Doubly Occupied:

       1A    -20.548243     2A    -20.531484     3A    -15.639534
       4A    -15.627736     5A    -11.418694     6A    -11.369726
       7A    -11.320337     8A    -11.291187     9A    -11.252818
      10A    -11.233121    11A     -1.428385    12A     -1.385072
      13A     -1.316264    14A     -1.244892    15A     -1.104964
      16A     -0.992647    17A     -0.968466    18A     -0.914264
      19A     -0.860489    20A     -0.770899    21A     -0.724787
      22A     -0.692540    23A     -0.684810    24A     -0.648871
      25A     -0.638282    26A     -0.616842    27A     -0.602614
      28A     -0.586022    29A     -0.582180    30A     -0.554168
      31A     -0.544836    32A     -0.542971    33A     -0.496857
      34A     -0.478320    35A     -0.442184    36A     -0.430752
      37A     -0.340738

  @DF-RHF Final Energy:  -490.70281101848525

   => Energetics <=

    Nuclear Repulsion Energy =            531.7489826909957173
    One-Electron Energy =               -1723.2495983346911999
    Two-Electron Energy =                 700.7978046252102331
    Total Energy =                       -490.7028110184852494
  Basis Set: (AUG-CC-PVTZ AUX)
    Blend: AUG-CC-PVTZ-RI
    Molecular point group: c1

    Geometry (in Angstrom), charge = 0, multiplicity = 1:

       Center              X                  Y                   Z               Mass
    ------------   -----------------  -----------------  -----------------  -----------------
         O            2.315338245497    -1.336241535901     0.000059516716    15.994914619570
         O           -2.267703754503    -1.428130535901    -0.000129483284    15.994914619570
         N            1.138450845497     0.684098664099     0.000054416716    14.003074004430
         N           -0.001195254503    -1.270192435901    -0.000032483284    14.003074004430
         C           -1.230497754503     0.726886464099    -0.000023483284    12.000000000000
         C           -0.027748754503     1.351907464099     0.000036516716    12.000000000000
         C            1.264761245497    -0.698713535901     0.000032516716    12.000000000000
         C           -1.250116754503    -0.733350535901    -0.000065483284    12.000000000000
         C            2.428518245497     1.456423464099     0.000125516716    12.000000000000
         C           -2.546299754503     1.437959464099    -0.000055483284    12.000000000000
         H            0.055844245497     2.436133464099     0.000070516716     1.007825032230
         H            0.050357245497    -2.331388535901    -0.000059483284     1.007825032230
         H            2.484192245497     2.083152464099     0.893516516716     1.007825032230
         H            2.484048245497     2.083508464099    -0.893076483284     1.007825032230
         H            3.250849245497     0.744463464099    -0.000050483284     1.007825032230
         H           -3.133373754503     1.157032464099    -0.878594483284     1.007825032230
         H           -2.406138754503     2.522671464099    -0.000021483284     1.007825032230
         H           -3.133439754503     1.156986464099     0.878424516716     1.007825032230

  Basis Set: AUG-CC-PVTZ
    Blend: AUG-CC-PVTZ
  Basis Set: (AUG-CC-PVTZ AUX)
    Blend: AUG-CC-PVTZ-JKFIT
	 Reference Energy          =    -490.7028110184852494 [Eh]
	 Singles Energy            =      -0.0000000000000000 [Eh]
	 Same-Spin Energy          =      -0.5037724004250582 [Eh]
	 Opposite-Spin Energy      =      -1.5430882477698744 [Eh]
	 Correlation Energy        =      -2.0468606481949325 [Eh]
	 Total Energy              =    -492.7496716666801717 [Eh]

	 ================> DF-SCS-MP2 Energies <==================
	-----------------------------------------------------------
	 SCS Same-Spin Scale       =       0.3333333333333333 [-]
	 SCS Opposite-Spin Scale   =       1.2000000000000000 [-]
	 SCS Same-Spin Energy      =      -0.1679241334750194 [Eh]
	 SCS Opposite-Spin Energy  =      -1.8517058973238492 [Eh]
	 SCS Correlation Energy    =      -2.0196300307988686 [Eh]
	 SCS Total Energy          =    -492.7224410492841002 [Eh]
	-----------------------------------------------------------

  Dipole Moment: [D]
     X:     1.4964      Y:     4.5067      Z:     0.0002     Total:     4.7487

*** Psi4 exiting successfully. Buy a developer a beer!
