                               Psi4 1.3.2 release

  ==> Input File <==

--------------------------------------------------------------------------
#psi4
#
memory 32 gb

molecule  {
0 1
  O        2.3111590    -1.3984000     0.0000580
  O       -2.2718830    -1.4902890    -0.0001310
  N        1.1826080     0.6255060     0.0000550
  N        0.0153410    -1.3761840    -0.0000340
  C       -1.2346770     0.6647280    -0.0000250
  C       -0.0319280     1.2897490     0.0000350
  C        1.2605820    -0.7608720     0.0000310
  C       -1.3306920    -0.7924810    -0.0000699
  C        2.4243390     1.3942650     0.0001240
  C       -2.5858904     1.3059627    -0.0000604
  H        0.0516650     2.3739750     0.0000690
  H        0.0461780    -2.3935470    -0.0000610
  H        2.4800130     2.0209940     0.8935150
  H        2.4798690     2.0213500    -0.8930780
  H        3.2466700     0.6823050    -0.0000520
  H       -3.1375530     1.0948740    -0.8785960
  H       -2.4103180     2.4605130    -0.0000230
  H       -3.1376190     1.0948280     0.8784230
units angstrom
no_reorient  #important for SAPT in psi4, default
symmetry c1  #important for SAPT in psi4, default
}

set PROPERTIES_ORIGIN ["COM"]
properties('MP2/aug-cc-pvtz', properties = ['dipole'])
--------------------------------------------------------------------------

    Molecular point group: c1
  Charge       = 0
  Multiplicity = 1
  Basis Set: AUG-CC-PVTZ
    Blend: AUG-CC-PVTZ
  Basis Set: (AUG-CC-PVTZ AUX)
    Blend: AUG-CC-PVTZ-JKFIT

    Orbital Energies [Eh]
    ---------------------

    Doubly Occupied:

       1A    -20.553959     2A    -20.532912     3A    -15.634238
       4A    -15.609523     5A    -11.405793     6A    -11.376317
       7A    -11.327520     8A    -11.283125     9A    -11.258161
      10A    -11.238149    11A     -1.438298    12A     -1.408895
      13A     -1.301944    14A     -1.224283    15A     -1.108511
      16A     -0.991644    17A     -0.960900    18A     -0.906773
      19A     -0.840598    20A     -0.767924    21A     -0.723507
      22A     -0.695821    23A     -0.677181    24A     -0.658780
      25A     -0.635821    26A     -0.622462    27A     -0.615906
      28A     -0.593639    29A     -0.588252    30A     -0.559109
      31A     -0.557840    32A     -0.527245    33A     -0.486454
      34A     -0.474824    35A     -0.441951    36A     -0.428226
      37A     -0.347604

  @DF-RHF Final Energy:  -490.70078451364816

   => Energetics <=

    Nuclear Repulsion Energy =            530.2473363098715708
    One-Electron Energy =               -1720.2880653003780935
    Two-Electron Energy =                 699.3399444768583635
    Total Energy =                       -490.7007845136481592
  Basis Set: (AUG-CC-PVTZ AUX)
    Blend: AUG-CC-PVTZ-RI
    Molecular point group: c1

    Geometry (in Angstrom), charge = 0, multiplicity = 1:

       Center              X                  Y                   Z               Mass
    ------------   -----------------  -----------------  -----------------  -----------------
         O            2.318013911214    -1.326491404162     0.000059846532    15.994914619570
         O           -2.265028088786    -1.418380404162    -0.000129153468    15.994914619570
         N            1.189462911214     0.697414595838     0.000056846532    14.003074004430
         N            0.022195911214    -1.304275404162    -0.000032153468    14.003074004430
         C           -1.227822088786     0.736636595838    -0.000023153468    12.000000000000
         C           -0.025073088786     1.361657595838     0.000036846532    12.000000000000
         C            1.267436911214    -0.688963404162     0.000032846532    12.000000000000
         C           -1.323837088786    -0.720572404162    -0.000068053468    12.000000000000
         C            2.431193911214     1.466173595838     0.000125846532    12.000000000000
         C           -2.579035488786     1.377871295838    -0.000058553468    12.000000000000
         H            0.058519911214     2.445883595838     0.000070846532     1.007825032230
         H            0.053032911214    -2.321638404162    -0.000059153468     1.007825032230
         H            2.486867911214     2.092902595838     0.893516846532     1.007825032230
         H            2.486723911214     2.093258595838    -0.893076153468     1.007825032230
         H            3.253524911214     0.754213595838    -0.000050153468     1.007825032230
         H           -3.130698088786     1.166782595838    -0.878594153468     1.007825032230
         H           -2.403463088786     2.532421595838    -0.000021153468     1.007825032230
         H           -3.130764088786     1.166736595838     0.878424846532     1.007825032230

  Basis Set: AUG-CC-PVTZ
    Blend: AUG-CC-PVTZ
  Basis Set: (AUG-CC-PVTZ AUX)
    Blend: AUG-CC-PVTZ-JKFIT
	 Reference Energy          =    -490.7007845136481592 [Eh]
	 Singles Energy            =      -0.0000000000000000 [Eh]
	 Same-Spin Energy          =      -0.5014652837099889 [Eh]
	 Opposite-Spin Energy      =      -1.5400185756355145 [Eh]
	 Correlation Energy        =      -2.0414838593455036 [Eh]
	 Total Energy              =    -492.7422683729936352 [Eh]

	 ================> DF-SCS-MP2 Energies <==================
	-----------------------------------------------------------
	 SCS Same-Spin Scale       =       0.3333333333333333 [-]
	 SCS Opposite-Spin Scale   =       1.2000000000000000 [-]
	 SCS Same-Spin Energy      =      -0.1671550945699963 [Eh]
	 SCS Opposite-Spin Energy  =      -1.8480222907626174 [Eh]
	 SCS Correlation Energy    =      -2.0151773853326138 [Eh]
	 SCS Total Energy          =    -492.7159618989807655 [Eh]
	-----------------------------------------------------------

  Dipole Moment: [D]
     X:     0.4139      Y:     4.3933      Z:     0.0001     Total:     4.4128

*** Psi4 exiting successfully. Buy a developer a beer!
