                               Psi4 1.3.2 release

  ==> Input File <==

--------------------------------------------------------------------------
#psi4
#
memory 32 gb

molecule  {
0 1
  O        2.3111590    -1.3984000     0.0000580
  O       -2.2718830    -1.4902890    -0.0001310
  N        1.1826080     0.6255060     0.0000550
  N        0.0153410    -1.3761840    -0.0000340
  C       -1.2346770     0.6647280    -0.0000250
  C       -0.0544736     1.3313436     0.0000354
  C        1.2605820    -0.7608720     0.0000310
  C       -1.3052456    -0.7939348    -0.0000687
  C        2.4243390     1.3942650     0.0001240
  C       -2.5504790     1.3758010    -0.0000570
  H        0.0516650     2.3739750     0.0000690
  H        0.0461780    -2.3935470    -0.0000610
  H        2.4800130     2.0209940     0.8935150
  H        2.4798690     2.0213500    -0.8930780
  H        3.2466700     0.6823050    -0.0000520
  H       -3.1375530     1.0948740    -0.8785960
  H       -2.4103180     2.4605130    -0.0000230
  H       -3.1376190     1.0948280     0.8784230
units angstrom
no_reorient  #important for SAPT in psi4, default
symmetry c1  #important for SAPT in psi4, default
}

set PROPERTIES_ORIGIN ["COM"]
properties('MP2/aug-cc-pvtz', properties = ['dipole'])
--------------------------------------------------------------------------

    Molecular point group: c1
  Charge       = 0
  Multiplicity = 1
  Basis Set: AUG-CC-PVTZ
    Blend: AUG-CC-PVTZ
  Basis Set: (AUG-CC-PVTZ AUX)
    Blend: AUG-CC-PVTZ-JKFIT

    Orbital Energies [Eh]
    ---------------------

    Doubly Occupied:

       1A    -20.552288     2A    -20.533412     3A    -15.631203
       4A    -15.615070     5A    -11.406840     6A    -11.380625
       7A    -11.325262     8A    -11.280571     9A    -11.262673
      10A    -11.237936    11A     -1.427841    12A     -1.405751
      13A     -1.293477    14A     -1.228805    15A     -1.111058
      16A     -0.986383    17A     -0.960782    18A     -0.912543
      19A     -0.840586    20A     -0.765905    21A     -0.726914
      22A     -0.702456    23A     -0.673761    24A     -0.655204
      25A     -0.637165    26A     -0.619365    27A     -0.615923
      28A     -0.585451    29A     -0.583326    30A     -0.555347
      31A     -0.551634    32A     -0.545906    33A     -0.479162
      34A     -0.476870    35A     -0.445772    36A     -0.429892
      37A     -0.348253

  @DF-RHF Final Energy:  -490.70726420507373

   => Energetics <=

    Nuclear Repulsion Energy =            529.3252869516683177
    One-Electron Energy =               -1718.4822820649967525
    Two-Electron Energy =                 698.4497309082546508
    Total Energy =                       -490.7072642050736704
  Basis Set: (AUG-CC-PVTZ AUX)
    Blend: AUG-CC-PVTZ-RI
    Molecular point group: c1

    Geometry (in Angstrom), charge = 0, multiplicity = 1:

       Center              X                  Y                   Z               Mass
    ------------   -----------------  -----------------  -----------------  -----------------
         O            2.314731381802    -1.335914241545     0.000059418140    15.994914619570
         O           -2.268310618198    -1.427803241545    -0.000129581860    15.994914619570
         N            1.186180381802     0.687991758455     0.000056418140    14.003074004430
         N            0.018913381802    -1.313698241545    -0.000032581860    14.003074004430
         C           -1.231104618198     0.727213758455    -0.000023581860    12.000000000000
         C           -0.050901218198     1.393829358455     0.000036818140    12.000000000000
         C            1.264154381802    -0.698386241545     0.000032418140    12.000000000000
         C           -1.301673218198    -0.731449041545    -0.000067281860    12.000000000000
         C            2.427911381802     1.456750758455     0.000125418140    12.000000000000
         C           -2.546906618198     1.438286758455    -0.000055581860    12.000000000000
         H            0.055237381802     2.436460758455     0.000070418140     1.007825032230
         H            0.049750381802    -2.331061241545    -0.000059581860     1.007825032230
         H            2.483585381802     2.083479758455     0.893516418140     1.007825032230
         H            2.483441381802     2.083835758455    -0.893076581860     1.007825032230
         H            3.250242381802     0.744790758455    -0.000050581860     1.007825032230
         H           -3.133980618198     1.157359758455    -0.878594581860     1.007825032230
         H           -2.406745618198     2.522998758455    -0.000021581860     1.007825032230
         H           -3.134046618198     1.157313758455     0.878424418140     1.007825032230

  Basis Set: AUG-CC-PVTZ
    Blend: AUG-CC-PVTZ
  Basis Set: (AUG-CC-PVTZ AUX)
    Blend: AUG-CC-PVTZ-JKFIT
	 Reference Energy          =    -490.7072642050737272 [Eh]
	 Singles Energy            =      -0.0000000000000000 [Eh]
	 Same-Spin Energy          =      -0.5014310439371724 [Eh]
	 Opposite-Spin Energy      =      -1.5405640083435514 [Eh]
	 Correlation Energy        =      -2.0419950522807238 [Eh]
	 Total Energy              =    -492.7492592573544243 [Eh]

	 ================> DF-SCS-MP2 Energies <==================
	-----------------------------------------------------------
	 SCS Same-Spin Scale       =       0.3333333333333333 [-]
	 SCS Opposite-Spin Scale   =       1.2000000000000000 [-]
	 SCS Same-Spin Energy      =      -0.1671436813123908 [Eh]
	 SCS Opposite-Spin Energy  =      -1.8486768100122617 [Eh]
	 SCS Correlation Energy    =      -2.0158204913246527 [Eh]
	 SCS Total Energy          =    -492.7230846963983595 [Eh]
	-----------------------------------------------------------

  Dipole Moment: [D]
     X:     0.4116      Y:     4.4832      Z:     0.0001     Total:     4.5020

*** Psi4 exiting successfully. Buy a developer a beer!
