                               Psi4 1.3.2 release

  ==> Input File <==

--------------------------------------------------------------------------
#psi4
#
memory 32 gb

molecule  {
0 1
  O        2.2763536    -1.4525092     0.0000556
  O       -2.2718830    -1.4902890    -0.0001310
  N        1.1101574     0.6195252     0.0000522
  N        0.0153410    -1.3761840    -0.0000340
  C       -1.2346770     0.6647280    -0.0000250
  C       -0.0319280     1.2897490     0.0000350
  C        1.2605820    -0.7608720     0.0000310
  C       -1.2542960    -0.7955090    -0.0000670
  C        2.4243390     1.3942650     0.0001240
  C       -2.5504790     1.3758010    -0.0000570
  H        0.0516650     2.3739750     0.0000690
  H        0.0461780    -2.3935470    -0.0000610
  H        2.4800130     2.0209940     0.8935150
  H        2.4798690     2.0213500    -0.8930780
  H        3.2466700     0.6823050    -0.0000520
  H       -3.1375530     1.0948740    -0.8785960
  H       -2.4103180     2.4605130    -0.0000230
  H       -3.1376190     1.0948280     0.8784230
units angstrom
no_reorient  #important for SAPT in psi4, default
symmetry c1  #important for SAPT in psi4, default
}

set PROPERTIES_ORIGIN ["COM"]
properties('MP2/aug-cc-pvtz', properties = ['dipole'])
--------------------------------------------------------------------------

    Molecular point group: c1
  Charge       = 0
  Multiplicity = 1
  Basis Set: AUG-CC-PVTZ
    Blend: AUG-CC-PVTZ
  Basis Set: (AUG-CC-PVTZ AUX)
    Blend: AUG-CC-PVTZ-JKFIT

    Orbital Energies [Eh]
    ---------------------

    Doubly Occupied:

       1A    -20.545167     2A    -20.532142     3A    -15.643453
       4A    -15.618852     5A    -11.416398     6A    -11.370449
       7A    -11.321375     8A    -11.296680     9A    -11.252422
      10A    -11.233241    11A     -1.426167    12A     -1.382133
      13A     -1.320207    14A     -1.237479    15A     -1.104828
      16A     -0.993498    17A     -0.968416    18A     -0.914312
      19A     -0.854558    20A     -0.771968    21A     -0.729334
      22A     -0.699022    23A     -0.683975    24A     -0.647260
      25A     -0.634962    26A     -0.614625    27A     -0.603992
      28A     -0.588467    29A     -0.582265    30A     -0.556560
      31A     -0.543604    32A     -0.542353    33A     -0.502619
      34A     -0.477379    35A     -0.439253    36A     -0.426536
      37A     -0.339927

  @DF-RHF Final Energy:  -490.70262077830381

   => Energetics <=

    Nuclear Repulsion Energy =            531.0073358529854204
    One-Electron Energy =               -1721.7881480151363576
    Two-Electron Energy =                 700.0781913838471837
    Total Energy =                       -490.7026207783038672
  Basis Set: (AUG-CC-PVTZ AUX)
    Blend: AUG-CC-PVTZ-RI
    Molecular point group: c1

    Geometry (in Angstrom), charge = 0, multiplicity = 1:

       Center              X                  Y                   Z               Mass
    ------------   -----------------  -----------------  -----------------  -----------------
         O            2.284847480557    -1.379547487517     0.000057460786    15.994914619570
         O           -2.263389119443    -1.417327287517    -0.000129139214    15.994914619570
         N            1.118651280557     0.692486912483     0.000054060786    14.003074004430
         N            0.023834880557    -1.303222287517    -0.000032139214    14.003074004430
         C           -1.226183119443     0.737689712483    -0.000023139214    12.000000000000
         C           -0.023434119443     1.362710712483     0.000036860786    12.000000000000
         C            1.269075880557    -0.687910287517     0.000032860786    12.000000000000
         C           -1.245802119443    -0.722547287517    -0.000065139214    12.000000000000
         C            2.432832880557     1.467226712483     0.000125860786    12.000000000000
         C           -2.541985119443     1.448762712483    -0.000055139214    12.000000000000
         H            0.060158880557     2.446936712483     0.000070860786     1.007825032230
         H            0.054671880557    -2.320585287517    -0.000059139214     1.007825032230
         H            2.488506880557     2.093955712483     0.893516860786     1.007825032230
         H            2.488362880557     2.094311712483    -0.893076139214     1.007825032230
         H            3.255163880557     0.755266712483    -0.000050139214     1.007825032230
         H           -3.129059119443     1.167835712483    -0.878594139214     1.007825032230
         H           -2.401824119443     2.533474712483    -0.000021139214     1.007825032230
         H           -3.129125119443     1.167789712483     0.878424860786     1.007825032230

  Basis Set: AUG-CC-PVTZ
    Blend: AUG-CC-PVTZ
  Basis Set: (AUG-CC-PVTZ AUX)
    Blend: AUG-CC-PVTZ-JKFIT
	 Reference Energy          =    -490.7026207783038103 [Eh]
	 Singles Energy            =      -0.0000000000000000 [Eh]
	 Same-Spin Energy          =      -0.5031682614416684 [Eh]
	 Opposite-Spin Energy      =      -1.5423987139238897 [Eh]
	 Correlation Energy        =      -2.0455669753655581 [Eh]
	 Total Energy              =    -492.7481877536693560 [Eh]

	 ================> DF-SCS-MP2 Energies <==================
	-----------------------------------------------------------
	 SCS Same-Spin Scale       =       0.3333333333333333 [-]
	 SCS Opposite-Spin Scale   =       1.2000000000000000 [-]
	 SCS Same-Spin Energy      =      -0.1677227538138895 [Eh]
	 SCS Opposite-Spin Energy  =      -1.8508784567086676 [Eh]
	 SCS Correlation Energy    =      -2.0186012105225570 [Eh]
	 SCS Total Energy          =    -492.7212219888263576 [Eh]
	-----------------------------------------------------------

  Dipole Moment: [D]
     X:     1.5454      Y:     4.7417      Z:     0.0002     Total:     4.9872

*** Psi4 exiting successfully. Buy a developer a beer!
