                               Psi4 1.3.2 release

  ==> Input File <==

--------------------------------------------------------------------------
#psi4
#
memory 32 gb

molecule  {
0 1
  O        2.3111590    -1.3984000     0.0000580
  O       -2.2718830    -1.4902890    -0.0001310
  N        1.1826080     0.6255060     0.0000550
  N        0.0153410    -1.3761840    -0.0000340
  C       -1.2346770     0.6647280    -0.0000250
  C       -0.0319280     1.2897490     0.0000350
  C        1.2605820    -0.7608720     0.0000310
  C       -1.2542960    -0.7955090    -0.0000670
  C        2.5093634     1.4469038     0.0001287
  C       -2.5504790     1.3758010    -0.0000570
  H        0.0516650     2.3739750     0.0000690
  H        0.0461780    -2.3935470    -0.0000610
  H        2.4800130     2.0209940     0.8935150
  H        2.4798690     2.0213500    -0.8930780
  H        3.2466700     0.6823050    -0.0000520
  H       -3.1375530     1.0948740    -0.8785960
  H       -2.4103180     2.4605130    -0.0000230
  H       -3.1376190     1.0948280     0.8784230
units angstrom
no_reorient  #important for SAPT in psi4, default
symmetry c1  #important for SAPT in psi4, default
}

set PROPERTIES_ORIGIN ["COM"]
properties('MP2/aug-cc-pvtz', properties = ['dipole'])
--------------------------------------------------------------------------

    Molecular point group: c1
  Charge       = 0
  Multiplicity = 1
  Basis Set: AUG-CC-PVTZ
    Blend: AUG-CC-PVTZ
  Basis Set: (AUG-CC-PVTZ AUX)
    Blend: AUG-CC-PVTZ-JKFIT

    Orbital Energies [Eh]
    ---------------------

    Doubly Occupied:

       1A    -20.537671     2A    -20.535537     3A    -15.634202
       4A    -15.621913     5A    -11.410479     6A    -11.373339
       7A    -11.322560     8A    -11.291419     9A    -11.255866
      10A    -11.234961    11A     -1.419473    12A     -1.384024
      13A     -1.295495    14A     -1.234909    15A     -1.103704
      16A     -0.995762    17A     -0.960753    18A     -0.910231
      19A     -0.852232    20A     -0.765193    21A     -0.728501
      22A     -0.688834    23A     -0.679171    24A     -0.638892
      25A     -0.632553    26A     -0.624556    27A     -0.610596
      28A     -0.594070    29A     -0.583497    30A     -0.555199
      31A     -0.544093    32A     -0.543796    33A     -0.490881
      34A     -0.472172    35A     -0.441541    36A     -0.428381
      37A     -0.342857

  @DF-RHF Final Energy:  -490.70451318517229

   => Energetics <=

    Nuclear Repulsion Energy =            528.3266960064880777
    One-Electron Energy =               -1716.5837909388596927
    Two-Electron Energy =                 697.5525817471994969
    Total Energy =                       -490.7045131851722317
  Basis Set: (AUG-CC-PVTZ AUX)
    Blend: AUG-CC-PVTZ-RI
    Molecular point group: c1

    Geometry (in Angstrom), charge = 0, multiplicity = 1:

       Center              X                  Y                   Z               Mass
    ------------   -----------------  -----------------  -----------------  -----------------
         O            2.301149670251    -1.336725616343     0.000058904069    15.994914619570
         O           -2.281892329749    -1.428614616343    -0.000130095931    15.994914619570
         N            1.172598670251     0.687180383657     0.000055904069    14.003074004430
         N            0.005331670251    -1.314509616343    -0.000033095931    14.003074004430
         C           -1.244686329749     0.726402383657    -0.000024095931    12.000000000000
         C           -0.041937329749     1.351423383657     0.000035904069    12.000000000000
         C            1.250572670251    -0.699197616343     0.000031904069    12.000000000000
         C           -1.264305329749    -0.733834616343    -0.000066095931    12.000000000000
         C            2.499354070251     1.508578183657     0.000129604069    12.000000000000
         C           -2.560488329749     1.437475383657    -0.000056095931    12.000000000000
         H            0.041655670251     2.435649383657     0.000069904069     1.007825032230
         H            0.036168670251    -2.331872616343    -0.000060095931     1.007825032230
         H            2.470003670251     2.082668383657     0.893515904069     1.007825032230
         H            2.469859670251     2.083024383657    -0.893077095931     1.007825032230
         H            3.236660670251     0.743979383657    -0.000051095931     1.007825032230
         H           -3.147562329749     1.156548383657    -0.878595095931     1.007825032230
         H           -2.420327329749     2.522187383657    -0.000022095931     1.007825032230
         H           -3.147628329749     1.156502383657     0.878423904069     1.007825032230

  Basis Set: AUG-CC-PVTZ
    Blend: AUG-CC-PVTZ
  Basis Set: (AUG-CC-PVTZ AUX)
    Blend: AUG-CC-PVTZ-JKFIT
	 Reference Energy          =    -490.7045131851722886 [Eh]
	 Singles Energy            =      -0.0000000000000000 [Eh]
	 Same-Spin Energy          =      -0.5020708680311161 [Eh]
	 Opposite-Spin Energy      =      -1.5416631466866817 [Eh]
	 Correlation Energy        =      -2.0437340147177978 [Eh]
	 Total Energy              =    -492.7482471998901019 [Eh]

	 ================> DF-SCS-MP2 Energies <==================
	-----------------------------------------------------------
	 SCS Same-Spin Scale       =       0.3333333333333333 [-]
	 SCS Opposite-Spin Scale   =       1.2000000000000000 [-]
	 SCS Same-Spin Energy      =      -0.1673569560103720 [Eh]
	 SCS Opposite-Spin Energy  =      -1.8499957760240180 [Eh]
	 SCS Correlation Energy    =      -2.0173527320343903 [Eh]
	 SCS Total Energy          =    -492.7218659172066850 [Eh]
	-----------------------------------------------------------

  Dipole Moment: [D]
     X:     1.3315      Y:     4.7363      Z:     0.0002     Total:     4.9199

*** Psi4 exiting successfully. Buy a developer a beer!
