                               Psi4 1.3.2 release

  ==> Input File <==

--------------------------------------------------------------------------
#psi4
#
memory 32 gb

molecule  {
0 1
  O        2.3111590    -1.3984000     0.0000580
  O       -2.2718830    -1.4902890    -0.0001310
  N        1.1826080     0.6255060     0.0000550
  N        0.0153410    -1.3761840    -0.0000340
  C       -1.2346770     0.6647280    -0.0000250
  C       -0.0108478     1.2473929     0.0000345
  C        1.2605820    -0.7608720     0.0000310
  C       -1.2033225    -0.7953042    -0.0000652
  C        2.4243390     1.3942650     0.0001240
  C       -2.5504790     1.3758010    -0.0000570
  H        0.0516650     2.3739750     0.0000690
  H        0.0461780    -2.3935470    -0.0000610
  H        2.4800130     2.0209940     0.8935150
  H        2.4798690     2.0213500    -0.8930780
  H        3.2466700     0.6823050    -0.0000520
  H       -3.1375530     1.0948740    -0.8785960
  H       -2.4103180     2.4605130    -0.0000230
  H       -3.1376190     1.0948280     0.8784230
units angstrom
no_reorient  #important for SAPT in psi4, default
symmetry c1  #important for SAPT in psi4, default
}

set PROPERTIES_ORIGIN ["COM"]
properties('MP2/aug-cc-pvtz', properties = ['dipole'])
--------------------------------------------------------------------------

    Molecular point group: c1
  Charge       = 0
  Multiplicity = 1
  Basis Set: AUG-CC-PVTZ
    Blend: AUG-CC-PVTZ
  Basis Set: (AUG-CC-PVTZ AUX)
    Blend: AUG-CC-PVTZ-JKFIT

    Orbital Energies [Eh]
    ---------------------

    Doubly Occupied:

       1A    -20.547528     2A    -20.524688     3A    -15.645140
       4A    -15.633291     5A    -11.420200     6A    -11.371621
       7A    -11.325395     8A    -11.291437     9A    -11.257755
      10A    -11.236698    11A     -1.432544    12A     -1.364443
      13A     -1.318564    14A     -1.253250    15A     -1.107803
      16A     -1.000806    17A     -0.967353    18A     -0.918038
      19A     -0.865120    20A     -0.775515    21A     -0.742279
      22A     -0.691407    23A     -0.688815    24A     -0.652967
      25A     -0.630403    26A     -0.619232    27A     -0.596842
      28A     -0.589596    29A     -0.583511    30A     -0.561434
      31A     -0.543104    32A     -0.538288    33A     -0.497322
      34A     -0.476339    35A     -0.436038    36A     -0.426986
      37A     -0.343544

  @DF-RHF Final Energy:  -490.70297252877151

   => Energetics <=

    Nuclear Repulsion Energy =            531.5367790694492669
    One-Electron Energy =               -1722.7289068512848189
    Two-Electron Energy =                 700.4891552530640411
    Total Energy =                       -490.7029725287715110
  Basis Set: (AUG-CC-PVTZ AUX)
    Blend: AUG-CC-PVTZ-RI
    Molecular point group: c1

    Geometry (in Angstrom), charge = 0, multiplicity = 1:

       Center              X                  Y                   Z               Mass
    ------------   -----------------  -----------------  -----------------  -----------------
         O            2.302260979553    -1.328604148738     0.000059195376    15.994914619570
         O           -2.280781020447    -1.420493148738    -0.000129804624    15.994914619570
         N            1.173709979553     0.695301851262     0.000056195376    14.003074004430
         N            0.006442979553    -1.306388148738    -0.000032804624    14.003074004430
         C           -1.243575020447     0.734523851262    -0.000023804624    12.000000000000
         C           -0.019745820447     1.317188751262     0.000035695376    12.000000000000
         C            1.251683979553    -0.691076148738     0.000032195376    12.000000000000
         C           -1.212220520447    -0.725508348738    -0.000064004624    12.000000000000
         C            2.415440979553     1.464060851262     0.000125195376    12.000000000000
         C           -2.559377020447     1.445596851262    -0.000055804624    12.000000000000
         H            0.042766979553     2.443770851262     0.000070195376     1.007825032230
         H            0.037279979553    -2.323751148738    -0.000059804624     1.007825032230
         H            2.471114979553     2.090789851262     0.893516195376     1.007825032230
         H            2.470970979553     2.091145851262    -0.893076804624     1.007825032230
         H            3.237771979553     0.752100851262    -0.000050804624     1.007825032230
         H           -3.146451020447     1.164669851262    -0.878594804624     1.007825032230
         H           -2.419216020447     2.530308851262    -0.000021804624     1.007825032230
         H           -3.146517020447     1.164623851262     0.878424195376     1.007825032230

  Basis Set: AUG-CC-PVTZ
    Blend: AUG-CC-PVTZ
  Basis Set: (AUG-CC-PVTZ AUX)
    Blend: AUG-CC-PVTZ-JKFIT
	 Reference Energy          =    -490.7029725287715110 [Eh]
	 Singles Energy            =      -0.0000000000000000 [Eh]
	 Same-Spin Energy          =      -0.5036231256455270 [Eh]
	 Opposite-Spin Energy      =      -1.5429144673637445 [Eh]
	 Correlation Energy        =      -2.0465375930092717 [Eh]
	 Total Energy              =    -492.7495101217807587 [Eh]

	 ================> DF-SCS-MP2 Energies <==================
	-----------------------------------------------------------
	 SCS Same-Spin Scale       =       0.3333333333333333 [-]
	 SCS Opposite-Spin Scale   =       1.2000000000000000 [-]
	 SCS Same-Spin Energy      =      -0.1678743752151757 [Eh]
	 SCS Opposite-Spin Energy  =      -1.8514973608364933 [Eh]
	 SCS Correlation Energy    =      -2.0193717360516690 [Eh]
	 SCS Total Energy          =    -492.7223442648231639 [Eh]
	-----------------------------------------------------------

  Dipole Moment: [D]
     X:     1.6581      Y:     4.5700      Z:     0.0002     Total:     4.8615

*** Psi4 exiting successfully. Buy a developer a beer!
