                               Psi4 1.3.2 release

  ==> Input File <==

--------------------------------------------------------------------------
#psi4
#
memory 32 gb

molecule  {
0 1
  O        2.3111590    -1.3984000     0.0000580
  O       -2.2718830    -1.4902890    -0.0001310
  N        1.1826080     0.6255060     0.0000550
  N       -0.0167892    -1.4418359    -0.0000371
  C       -1.3111268     0.6637536    -0.0000280
  C       -0.0319280     1.2897490     0.0000350
  C        1.2605820    -0.7608720     0.0000310
  C       -1.2542960    -0.7955090    -0.0000670
  C        2.4243390     1.3942650     0.0001240
  C       -2.5504790     1.3758010    -0.0000570
  H        0.0516650     2.3739750     0.0000690
  H        0.0461780    -2.3935470    -0.0000610
  H        2.4800130     2.0209940     0.8935150
  H        2.4798690     2.0213500    -0.8930780
  H        3.2466700     0.6823050    -0.0000520
  H       -3.1375530     1.0948740    -0.8785960
  H       -2.4103180     2.4605130    -0.0000230
  H       -3.1376190     1.0948280     0.8784230
units angstrom
no_reorient  #important for SAPT in psi4, default
symmetry c1  #important for SAPT in psi4, default
}

set PROPERTIES_ORIGIN ["COM"]
properties('MP2/aug-cc-pvtz', properties = ['dipole'])
--------------------------------------------------------------------------

    Molecular point group: c1
  Charge       = 0
  Multiplicity = 1
  Basis Set: AUG-CC-PVTZ
    Blend: AUG-CC-PVTZ
  Basis Set: (AUG-CC-PVTZ AUX)
    Blend: AUG-CC-PVTZ-JKFIT

    Orbital Energies [Eh]
    ---------------------

    Doubly Occupied:

       1A    -20.546319     2A    -20.527702     3A    -15.645774
       4A    -15.619417     5A    -11.419857     6A    -11.370044
       7A    -11.334588     8A    -11.289902     9A    -11.266763
      10A    -11.234177    11A     -1.422328    12A     -1.383482
      13A     -1.306597    14A     -1.236839    15A     -1.108372
      16A     -0.998333    17A     -0.965207    18A     -0.915668
      19A     -0.837297    20A     -0.764943    21A     -0.752801
      22A     -0.692982    23A     -0.680625    24A     -0.650600
      25A     -0.635914    26A     -0.615296    27A     -0.610017
      28A     -0.596601    29A     -0.587108    30A     -0.573433
      31A     -0.543055    32A     -0.541794    33A     -0.485694
      34A     -0.475622    35A     -0.436985    36A     -0.426547
      37A     -0.334860

  @DF-RHF Final Energy:  -490.69300790217216

   => Energetics <=

    Nuclear Repulsion Energy =            528.4054586616917959
    One-Electron Energy =               -1716.5298455048171036
    Two-Electron Energy =                 697.4313789409530955
    Total Energy =                       -490.6930079021720985
  Basis Set: (AUG-CC-PVTZ AUX)
    Blend: AUG-CC-PVTZ-RI
    Molecular point group: c1

    Geometry (in Angstrom), charge = 0, multiplicity = 1:

       Center              X                  Y                   Z               Mass
    ------------   -----------------  -----------------  -----------------  -----------------
         O            2.318196908705    -1.325568236038     0.000059873732    15.994914619570
         O           -2.264845091295    -1.417457236038    -0.000129126268    15.994914619570
         N            1.189645908705     0.698337763962     0.000056873732    14.003074004430
         N           -0.009751291295    -1.369004136038    -0.000035226268    14.003074004430
         C           -1.304088891295     0.736585363962    -0.000026126268    12.000000000000
         C           -0.024890091295     1.362580763962     0.000036873732    12.000000000000
         C            1.267619908705    -0.688040236038     0.000032873732    12.000000000000
         C           -1.247258091295    -0.722677236038    -0.000065126268    12.000000000000
         C            2.431376908705     1.467096763962     0.000125873732    12.000000000000
         C           -2.543441091295     1.448632763962    -0.000055126268    12.000000000000
         H            0.058702908705     2.446806763962     0.000070873732     1.007825032230
         H            0.053215908705    -2.320715236038    -0.000059126268     1.007825032230
         H            2.487050908705     2.093825763962     0.893516873732     1.007825032230
         H            2.486906908705     2.094181763962    -0.893076126268     1.007825032230
         H            3.253707908705     0.755136763962    -0.000050126268     1.007825032230
         H           -3.130515091295     1.167705763962    -0.878594126268     1.007825032230
         H           -2.403280091295     2.533344763962    -0.000021126268     1.007825032230
         H           -3.130581091295     1.167659763962     0.878424873732     1.007825032230

  Basis Set: AUG-CC-PVTZ
    Blend: AUG-CC-PVTZ
  Basis Set: (AUG-CC-PVTZ AUX)
    Blend: AUG-CC-PVTZ-JKFIT
	 Reference Energy          =    -490.6930079021721554 [Eh]
	 Singles Energy            =      -0.0000000000000000 [Eh]
	 Same-Spin Energy          =      -0.5030829844570742 [Eh]
	 Opposite-Spin Energy      =      -1.5433198936734722 [Eh]
	 Correlation Energy        =      -2.0464028781305466 [Eh]
	 Total Energy              =    -492.7394107803027055 [Eh]

	 ================> DF-SCS-MP2 Energies <==================
	-----------------------------------------------------------
	 SCS Same-Spin Scale       =       0.3333333333333333 [-]
	 SCS Opposite-Spin Scale   =       1.2000000000000000 [-]
	 SCS Same-Spin Energy      =      -0.1676943281523581 [Eh]
	 SCS Opposite-Spin Energy  =      -1.8519838724081665 [Eh]
	 SCS Correlation Energy    =      -2.0196782005605245 [Eh]
	 SCS Total Energy          =    -492.7126861027326754 [Eh]
	-----------------------------------------------------------

  Dipole Moment: [D]
     X:     1.2656      Y:     4.7106      Z:     0.0002     Total:     4.8777

*** Psi4 exiting successfully. Buy a developer a beer!
