                               Psi4 1.3.2 release

  ==> Input File <==

--------------------------------------------------------------------------
#psi4
#
memory 32 gb

molecule  {
0 1
  O        2.3111590    -1.3984000     0.0000580
  O       -2.2718830    -1.4902890    -0.0001310
  N        1.1826080     0.6255060     0.0000550
  N        0.0153410    -1.3761840    -0.0000340
  C       -1.2346770     0.6647280    -0.0000250
  C       -0.0008653     1.2259454     0.0000346
  C        1.2605820    -0.7608720     0.0000310
  C       -1.2542960    -0.7955090    -0.0000670
  C        2.4243390     1.3942650     0.0001240
  C       -2.5858904     1.3059627    -0.0000600
  H        0.0516650     2.3739750     0.0000690
  H        0.0461780    -2.3935470    -0.0000610
  H        2.4800130     2.0209940     0.8935150
  H        2.4798690     2.0213500    -0.8930780
  H        3.2466700     0.6823050    -0.0000520
  H       -3.1375530     1.0948740    -0.8785960
  H       -2.4103180     2.4605130    -0.0000230
  H       -3.1376190     1.0948280     0.8784230
units angstrom
no_reorient  #important for SAPT in psi4, default
symmetry c1  #important for SAPT in psi4, default
}

set PROPERTIES_ORIGIN ["COM"]
properties('MP2/aug-cc-pvtz', properties = ['dipole'])
--------------------------------------------------------------------------

    Molecular point group: c1
  Charge       = 0
  Multiplicity = 1
  Basis Set: AUG-CC-PVTZ
    Blend: AUG-CC-PVTZ
  Basis Set: (AUG-CC-PVTZ AUX)
    Blend: AUG-CC-PVTZ-JKFIT

    Orbital Energies [Eh]
    ---------------------

    Doubly Occupied:

       1A    -20.543856     2A    -20.533515     3A    -15.644373
       4A    -15.624448     5A    -11.416332     6A    -11.369914
       7A    -11.327721     8A    -11.291274     9A    -11.254214
      10A    -11.237165    11A     -1.429296    12A     -1.384183
      13A     -1.323350    14A     -1.245564    15A     -1.106013
      16A     -1.002089    17A     -0.965801    18A     -0.912308
      19A     -0.858095    20A     -0.774123    21A     -0.734952
      22A     -0.690346    23A     -0.684572    24A     -0.654528
      25A     -0.634485    26A     -0.619899    27A     -0.597308
      28A     -0.596884    29A     -0.590162    30A     -0.566524
      31A     -0.545449    32A     -0.520303    33A     -0.500440
      34A     -0.474302    35A     -0.439563    36A     -0.430358
      37A     -0.344161

  @DF-RHF Final Energy:  -490.69961790875055

   => Energetics <=

    Nuclear Repulsion Energy =            531.8619199081172155
    One-Electron Energy =               -1723.3873357018703700
    Two-Electron Energy =                 700.8257978850026575
    Total Energy =                       -490.6996179087504970
  Basis Set: (AUG-CC-PVTZ AUX)
    Blend: AUG-CC-PVTZ-RI
    Molecular point group: c1

    Geometry (in Angstrom), charge = 0, multiplicity = 1:

       Center              X                  Y                   Z               Mass
    ------------   -----------------  -----------------  -----------------  -----------------
         O            2.308807017763    -1.320765377136     0.000059598065    15.994914619570
         O           -2.274234982237    -1.412654377136    -0.000129401935    15.994914619570
         N            1.180256017763     0.703140622864     0.000056598065    14.003074004430
         N            0.012989017763    -1.298549377136    -0.000032401935    14.003074004430
         C           -1.237028982237     0.742362622864    -0.000023401935    12.000000000000
         C           -0.003217282237     1.303580022864     0.000036198065    12.000000000000
         C            1.258230017763    -0.683237377136     0.000032598065    12.000000000000
         C           -1.256647982237    -0.717874377136    -0.000065401935    12.000000000000
         C            2.421987017763     1.471899622864     0.000125598065    12.000000000000
         C           -2.588242382237     1.383597322864    -0.000058401935    12.000000000000
         H            0.049313017763     2.451609622864     0.000070598065     1.007825032230
         H            0.043826017763    -2.315912377136    -0.000059401935     1.007825032230
         H            2.477661017763     2.098628622864     0.893516598065     1.007825032230
         H            2.477517017763     2.098984622864    -0.893076401935     1.007825032230
         H            3.244318017763     0.759939622864    -0.000050401935     1.007825032230
         H           -3.139904982237     1.172508622864    -0.878594401935     1.007825032230
         H           -2.412669982237     2.538147622864    -0.000021401935     1.007825032230
         H           -3.139970982237     1.172462622864     0.878424598065     1.007825032230

  Basis Set: AUG-CC-PVTZ
    Blend: AUG-CC-PVTZ
  Basis Set: (AUG-CC-PVTZ AUX)
    Blend: AUG-CC-PVTZ-JKFIT
	 Reference Energy          =    -490.6996179087505539 [Eh]
	 Singles Energy            =      -0.0000000000000000 [Eh]
	 Same-Spin Energy          =      -0.5030486168081924 [Eh]
	 Opposite-Spin Energy      =      -1.5418479994098413 [Eh]
	 Correlation Energy        =      -2.0448966162180335 [Eh]
	 Total Energy              =    -492.7445145249685652 [Eh]

	 ================> DF-SCS-MP2 Energies <==================
	-----------------------------------------------------------
	 SCS Same-Spin Scale       =       0.3333333333333333 [-]
	 SCS Opposite-Spin Scale   =       1.2000000000000000 [-]
	 SCS Same-Spin Energy      =      -0.1676828722693974 [Eh]
	 SCS Opposite-Spin Energy  =      -1.8502175992918095 [Eh]
	 SCS Correlation Energy    =      -2.0179004715612070 [Eh]
	 SCS Total Energy          =    -492.7175183803117875 [Eh]
	-----------------------------------------------------------

  Dipole Moment: [D]
     X:     1.3752      Y:     4.4354      Z:     0.0002     Total:     4.6437

*** Psi4 exiting successfully. Buy a developer a beer!
