                               Psi4 1.4a3.dev225

  ==> Input File <==

--------------------------------------------------------------------------
#psi4
#
memory 32 gb

molecule  {
0 1
  O        2.3212770    -1.3580180     0.0000020
  O       -2.2717460    -1.4962290     0.0000010
  N        1.1724310     0.6334210    -0.0000020
  N        0.0162060    -1.3769820    -0.0000020
  C       -1.2398930     0.6613320     0.0000000
  C       -0.0398910     1.2934770    -0.0000010
  C        1.2527440    -0.7526170    -0.0000010
  C       -1.2589250    -0.7964470     0.0000000
  C        2.4447950     1.3519700     0.0000010
  C       -2.5111555     1.3521467     0.0000010
  H        0.0310140     2.3780990    -0.0000010
  H        0.0457120    -2.3937650    -0.0000010
  H        2.2343430     2.4214070    -0.0000200
  H        3.0241620     1.0875710    -0.8862110
  H        3.0241420     1.0876020     0.8862360
  H       -3.1432670     1.0977880    -0.8790540
  H       -2.4120010     2.4600010     0.0000010
  H       -3.1432670     1.0977870     0.8790540
units angstrom
no_reorient  #important for SAPT in psi4, default
symmetry c1  #important for SAPT in psi4, default
}

set PROPERTIES_ORIGIN ["COM"]
properties('MP2/aug-cc-pvtz', properties = ['dipole'])
--------------------------------------------------------------------------

    Molecular point group: c1
  Charge       = 0
  Multiplicity = 1
  Basis Set: AUG-CC-PVTZ
    Blend: AUG-CC-PVTZ
  Basis Set: (AUG-CC-PVTZ AUX)
    Blend: AUG-CC-PVTZ-JKFIT

    Orbital Energies [Eh]
    ---------------------

    Doubly Occupied:

       1A    -20.541391     2A    -20.538633     3A    -15.638976
       4A    -15.625162     5A    -11.411804     6A    -11.376207
       7A    -11.326783     8A    -11.288962     9A    -11.255391
      10A    -11.237559    11A     -1.425241    12A     -1.387818
      13A     -1.306954    14A     -1.243926    15A     -1.115115
      16A     -0.994991    17A     -0.962726    18A     -0.914390
      19A     -0.852049    20A     -0.772305    21A     -0.736755
      22A     -0.694091    23A     -0.683503    24A     -0.651095
      25A     -0.637541    26A     -0.612915    27A     -0.609335
      28A     -0.595150    29A     -0.577857    30A     -0.569180
      31A     -0.538544    32A     -0.536849    33A     -0.490725
      34A     -0.475980    35A     -0.444818    36A     -0.430477
      37A     -0.342544

  @DF-RHF Final Energy:  -490.70905996421970

   => Energetics <=

    Nuclear Repulsion Energy =            531.7039595948089072
    One-Electron Energy =               -1723.1385521169856929
    Two-Electron Energy =                 700.7255325579571945
    Total Energy =                       -490.7090599642197049
  Basis Set: (AUG-CC-PVTZ AUX)
    Blend: AUG-CC-PVTZ-RI
    Molecular point group: c1

    Geometry (in Angstrom), charge = 0, multiplicity = 1:

       Center              X                  Y                   Z               Mass
    ------------   -----------------  -----------------  -----------------  -----------------
         O            2.315086061514    -1.290628549713     0.000002028533    15.994914619570
         O           -2.277936938486    -1.428839549713     0.000001028533    15.994914619570
         N            1.166240061514     0.700810450287    -0.000001971467    14.003074004430
         N            0.010015061514    -1.309592549713    -0.000001971467    14.003074004430
         C           -1.246083938486     0.728721450287     0.000000028533    12.000000000000
         C           -0.046081938486     1.360866450287    -0.000000971467    12.000000000000
         C            1.246553061514    -0.685227549713    -0.000000971467    12.000000000000
         C           -1.265115938486    -0.729057549713     0.000000028533    12.000000000000
         C            2.438604061514     1.419359450287     0.000001028533    12.000000000000
         C           -2.517346438486     1.419536150287     0.000001028533    12.000000000000
         H            0.024823061514     2.445488450287    -0.000000971467     1.007825032230
         H            0.039521061514    -2.326375549713    -0.000000971467     1.007825032230
         H            2.228152061514     2.488796450287    -0.000019971467     1.007825032230
         H            3.017971061514     1.154960450287    -0.886210971467     1.007825032230
         H            3.017951061514     1.154991450287     0.886236028533     1.007825032230
         H           -3.149457938486     1.165177450287    -0.879053971467     1.007825032230
         H           -2.418191938486     2.527390450287     0.000001028533     1.007825032230
         H           -3.149457938486     1.165176450287     0.879054028533     1.007825032230

  Basis Set: AUG-CC-PVTZ
    Blend: AUG-CC-PVTZ
  Basis Set: (AUG-CC-PVTZ AUX)
    Blend: AUG-CC-PVTZ-JKFIT
	 Reference Energy          =    -490.7090599642197049 [Eh]
	 Singles Energy            =      -0.0000000000000000 [Eh]
	 Same-Spin Energy          =      -0.5029601754621073 [Eh]
	 Opposite-Spin Energy      =      -1.5419448670050795 [Eh]
	 Correlation Energy        =      -2.0449050424671866 [Eh]
	 Total Energy              =    -492.7539650066868830 [Eh]

	 ================> DF-SCS-MP2 Energies <==================
	-----------------------------------------------------------
	 SCS Same-Spin Scale       =       0.3333333333333333 [-]
	 SCS Opposite-Spin Scale   =       1.2000000000000000 [-]
	 SCS Same-Spin Energy      =      -0.1676533918207024 [Eh]
	 SCS Opposite-Spin Energy  =      -1.8503338404060954 [Eh]
	 SCS Correlation Energy    =      -2.0179872322267980 [Eh]
	 SCS Total Energy          =    -492.7270471964465060 [Eh]
	-----------------------------------------------------------

  Dipole Moment: [D]
     X:     1.1049      Y:     4.4957      Z:    -0.0000     Total:     4.6295

*** Psi4 exiting successfully. Buy a developer a beer!
