                               Psi4 1.3.2 release

  ==> Input File <==

--------------------------------------------------------------------------
#psi4
#
memory 32 gb

molecule  {
0 1
  O        2.3111590    -1.3984000     0.0000580
  O       -2.2341265    -1.5425932    -0.0001312
  N        1.1826080     0.6255060     0.0000550
  N       -0.0167892    -1.4418359    -0.0000374
  C       -1.2346770     0.6647280    -0.0000250
  C       -0.0319280     1.2897490     0.0000350
  C        1.2605820    -0.7608720     0.0000310
  C       -1.2542960    -0.7955090    -0.0000670
  C        2.4243390     1.3942650     0.0001240
  C       -2.5504790     1.3758010    -0.0000570
  H        0.0516650     2.3739750     0.0000690
  H        0.0461780    -2.3935470    -0.0000610
  H        2.4800130     2.0209940     0.8935150
  H        2.4798690     2.0213500    -0.8930780
  H        3.2466700     0.6823050    -0.0000520
  H       -3.1375530     1.0948740    -0.8785960
  H       -2.4103180     2.4605130    -0.0000230
  H       -3.1376190     1.0948280     0.8784230
units angstrom
no_reorient  #important for SAPT in psi4, default
symmetry c1  #important for SAPT in psi4, default
}

set PROPERTIES_ORIGIN ["COM"]
properties('MP2/aug-cc-pvtz', properties = ['dipole'])
--------------------------------------------------------------------------

    Molecular point group: c1
  Charge       = 0
  Multiplicity = 1
  Basis Set: AUG-CC-PVTZ
    Blend: AUG-CC-PVTZ
  Basis Set: (AUG-CC-PVTZ AUX)
    Blend: AUG-CC-PVTZ-JKFIT

    Orbital Energies [Eh]
    ---------------------

    Doubly Occupied:

       1A    -20.543785     2A    -20.531713     3A    -15.641653
       4A    -15.615056     5A    -11.416979     6A    -11.372714
       7A    -11.328053     8A    -11.288289     9A    -11.263803
      10A    -11.239617    11A     -1.420907    12A     -1.385765
      13A     -1.306371    14A     -1.233386    15A     -1.111574
      16A     -0.994968    17A     -0.962886    18A     -0.916927
      19A     -0.840977    20A     -0.769684    21A     -0.748500
      22A     -0.696510    23A     -0.679984    24A     -0.649140
      25A     -0.637042    26A     -0.613581    27A     -0.609186
      28A     -0.590391    29A     -0.583453    30A     -0.559997
      31A     -0.550655    32A     -0.543768    33A     -0.489361
      34A     -0.476466    35A     -0.438316    36A     -0.424138
      37A     -0.348101

  @DF-RHF Final Energy:  -490.70389996120753

   => Energetics <=

    Nuclear Repulsion Energy =            529.0237777973001130
    One-Electron Energy =               -1717.8079610326551574
    Two-Electron Energy =                 698.0802832741476323
    Total Energy =                       -490.7038999612075258
  Basis Set: (AUG-CC-PVTZ AUX)
    Blend: AUG-CC-PVTZ-RI
    Molecular point group: c1

    Geometry (in Angstrom), charge = 0, multiplicity = 1:

       Center              X                  Y                   Z               Mass
    ------------   -----------------  -----------------  -----------------  -----------------
         O            2.307334956364    -1.319678497416     0.000059669531    15.994914619570
         O           -2.237950543636    -1.463871697416    -0.000129530469    15.994914619570
         N            1.178783956364     0.704227502584     0.000056669531    14.003074004430
         N           -0.020613243636    -1.363114397416    -0.000035730469    14.003074004430
         C           -1.238501043636     0.743449502584    -0.000023330469    12.000000000000
         C           -0.035752043636     1.368470502584     0.000036669531    12.000000000000
         C            1.256757956364    -0.682150497416     0.000032669531    12.000000000000
         C           -1.258120043636    -0.716787497416    -0.000065330469    12.000000000000
         C            2.420514956364     1.472986502584     0.000125669531    12.000000000000
         C           -2.554303043636     1.454522502584    -0.000055330469    12.000000000000
         H            0.047840956364     2.452696502584     0.000070669531     1.007825032230
         H            0.042353956364    -2.314825497416    -0.000059330469     1.007825032230
         H            2.476188956364     2.099715502584     0.893516669531     1.007825032230
         H            2.476044956364     2.100071502584    -0.893076330469     1.007825032230
         H            3.242845956364     0.761026502584    -0.000050330469     1.007825032230
         H           -3.141377043636     1.173595502584    -0.878594330469     1.007825032230
         H           -2.414142043636     2.539234502584    -0.000021330469     1.007825032230
         H           -3.141443043636     1.173549502584     0.878424669531     1.007825032230

  Basis Set: AUG-CC-PVTZ
    Blend: AUG-CC-PVTZ
  Basis Set: (AUG-CC-PVTZ AUX)
    Blend: AUG-CC-PVTZ-JKFIT
	 Reference Energy          =    -490.7038999612075258 [Eh]
	 Singles Energy            =      -0.0000000000000000 [Eh]
	 Same-Spin Energy          =      -0.5015171289179213 [Eh]
	 Opposite-Spin Energy      =      -1.5409273978594733 [Eh]
	 Correlation Energy        =      -2.0424445267773947 [Eh]
	 Total Energy              =    -492.7463444879849135 [Eh]

	 ================> DF-SCS-MP2 Energies <==================
	-----------------------------------------------------------
	 SCS Same-Spin Scale       =       0.3333333333333333 [-]
	 SCS Opposite-Spin Scale   =       1.2000000000000000 [-]
	 SCS Same-Spin Energy      =      -0.1671723763059738 [Eh]
	 SCS Opposite-Spin Energy  =      -1.8491128774313679 [Eh]
	 SCS Correlation Energy    =      -2.0162852537373417 [Eh]
	 SCS Total Energy          =    -492.7201852149448769 [Eh]
	-----------------------------------------------------------

  Dipole Moment: [D]
     X:     1.1656      Y:     4.7982      Z:     0.0002     Total:     4.9377

*** Psi4 exiting successfully. Buy a developer a beer!
