                               Psi4 1.3.2 release

  ==> Input File <==

--------------------------------------------------------------------------
#psi4
#
memory 32 gb

molecule  {
0 1
  O        2.3111590    -1.3984000     0.0000580
  O       -2.2718830    -1.4902890    -0.0001310
  N        1.2552723     0.6276869     0.0000581
  N        0.0492505    -1.4405116    -0.0000338
  C       -1.2346770     0.6647280    -0.0000250
  C       -0.0319280     1.2897490     0.0000350
  C        1.2605820    -0.7608720     0.0000310
  C       -1.2542960    -0.7955090    -0.0000670
  C        2.4243390     1.3942650     0.0001240
  C       -2.5504790     1.3758010    -0.0000570
  H        0.0516650     2.3739750     0.0000690
  H        0.0461780    -2.3935470    -0.0000610
  H        2.4800130     2.0209940     0.8935150
  H        2.4798690     2.0213500    -0.8930780
  H        3.2466700     0.6823050    -0.0000520
  H       -3.1375530     1.0948740    -0.8785960
  H       -2.4103180     2.4605130    -0.0000230
  H       -3.1376190     1.0948280     0.8784230
units angstrom
no_reorient  #important for SAPT in psi4, default
symmetry c1  #important for SAPT in psi4, default
}

set PROPERTIES_ORIGIN ["COM"]
properties('MP2/aug-cc-pvtz', properties = ['dipole'])
--------------------------------------------------------------------------

    Molecular point group: c1
  Charge       = 0
  Multiplicity = 1
  Basis Set: AUG-CC-PVTZ
    Blend: AUG-CC-PVTZ
  Basis Set: (AUG-CC-PVTZ AUX)
    Blend: AUG-CC-PVTZ-JKFIT

    Orbital Energies [Eh]
    ---------------------

    Doubly Occupied:

       1A    -20.549010     2A    -20.529298     3A    -15.636456
       4A    -15.619723     5A    -11.408061     6A    -11.385579
       7A    -11.331411     8A    -11.278360     9A    -11.269864
      10A    -11.243069    11A     -1.419350    12A     -1.390679
      13A     -1.295831    14A     -1.241611    15A     -1.115905
      16A     -0.995411    17A     -0.960180    18A     -0.913920
      19A     -0.840604    20A     -0.773203    21A     -0.747819
      22A     -0.689784    23A     -0.680572    24A     -0.661760
      25A     -0.630228    26A     -0.620468    27A     -0.614886
      28A     -0.591516    29A     -0.586281    30A     -0.557790
      31A     -0.547096    32A     -0.541864    33A     -0.475510
      34A     -0.472544    35A     -0.443555    36A     -0.429561
      37A     -0.353020

  @DF-RHF Final Energy:  -490.69867745851627

   => Energetics <=

    Nuclear Repulsion Energy =            528.5068940567018672
    One-Electron Energy =               -1716.7275892137047322
    Two-Electron Energy =                 697.5220176984865930
    Total Energy =                       -490.6986774585162721
  Basis Set: (AUG-CC-PVTZ AUX)
    Blend: AUG-CC-PVTZ-RI
    Molecular point group: c1

    Geometry (in Angstrom), charge = 0, multiplicity = 1:

       Center              X                  Y                   Z               Mass
    ------------   -----------------  -----------------  -----------------  -----------------
         O            2.297779166161    -1.326002171439     0.000058976824    15.994914619570
         O           -2.285262833839    -1.417891171439    -0.000130023176    15.994914619570
         N            1.241892466161     0.700084728561     0.000059076824    14.003074004430
         N            0.035870666161    -1.368113771439    -0.000032823176    14.003074004430
         C           -1.248056833839     0.737125828561    -0.000024023176    12.000000000000
         C           -0.045307833839     1.362146828561     0.000035976824    12.000000000000
         C            1.247202166161    -0.688474171439     0.000031976824    12.000000000000
         C           -1.267675833839    -0.723111171439    -0.000066023176    12.000000000000
         C            2.410959166161     1.466662828561     0.000124976824    12.000000000000
         C           -2.563858833839     1.448198828561    -0.000056023176    12.000000000000
         H            0.038285166161     2.446372828561     0.000069976824     1.007825032230
         H            0.032798166161    -2.321149171439    -0.000060023176     1.007825032230
         H            2.466633166161     2.093391828561     0.893515976824     1.007825032230
         H            2.466489166161     2.093747828561    -0.893077023176     1.007825032230
         H            3.233290166161     0.754702828561    -0.000051023176     1.007825032230
         H           -3.150932833839     1.167271828561    -0.878595023176     1.007825032230
         H           -2.423697833839     2.532910828561    -0.000022023176     1.007825032230
         H           -3.150998833839     1.167225828561     0.878423976824     1.007825032230

  Basis Set: AUG-CC-PVTZ
    Blend: AUG-CC-PVTZ
  Basis Set: (AUG-CC-PVTZ AUX)
    Blend: AUG-CC-PVTZ-JKFIT
	 Reference Energy          =    -490.6986774585162721 [Eh]
	 Singles Energy            =      -0.0000000000000000 [Eh]
	 Same-Spin Energy          =      -0.5012644857061284 [Eh]
	 Opposite-Spin Energy      =      -1.5410378211268196 [Eh]
	 Correlation Energy        =      -2.0423023068329478 [Eh]
	 Total Energy              =    -492.7409797653492092 [Eh]

	 ================> DF-SCS-MP2 Energies <==================
	-----------------------------------------------------------
	 SCS Same-Spin Scale       =       0.3333333333333333 [-]
	 SCS Opposite-Spin Scale   =       1.2000000000000000 [-]
	 SCS Same-Spin Energy      =      -0.1670881619020428 [Eh]
	 SCS Opposite-Spin Energy  =      -1.8492453853521835 [Eh]
	 SCS Correlation Energy    =      -2.0163335472542263 [Eh]
	 SCS Total Energy          =    -492.7150110057705206 [Eh]
	-----------------------------------------------------------

  Dipole Moment: [D]
     X:     0.3640      Y:     4.5732      Z:     0.0001     Total:     4.5877

*** Psi4 exiting successfully. Buy a developer a beer!
