                               Psi4 1.3.2 release

  ==> Input File <==

--------------------------------------------------------------------------
#psi4
#
memory 32 gb

molecule  {
0 1
  O        2.3111590    -1.3984000     0.0000580
  O       -2.2718830    -1.4902890    -0.0001310
  N        1.1826080     0.6255060     0.0000550
  N        0.0153410    -1.3761840    -0.0000340
  C       -1.2346770     0.6647280    -0.0000250
  C       -0.0319280     1.2897490     0.0000350
  C        1.2605820    -0.7608720     0.0000310
  C       -1.3452361    -0.7539171    -0.0000694
  C        2.4243390     1.3942650     0.0001240
  C       -2.5504790     1.3758010    -0.0000570
  H        0.0516650     2.3739750     0.0000690
  H        0.0461780    -2.3935470    -0.0000610
  H        2.4800130     2.0209940     0.8935150
  H        2.4798690     2.0213500    -0.8930780
  H        3.2466700     0.6823050    -0.0000520
  H       -3.1375530     1.0948740    -0.8785960
  H       -2.4103180     2.4605130    -0.0000230
  H       -3.1376190     1.0948280     0.8784230
units angstrom
no_reorient  #important for SAPT in psi4, default
symmetry c1  #important for SAPT in psi4, default
}

set PROPERTIES_ORIGIN ["COM"]
properties('MP2/aug-cc-pvtz', properties = ['dipole'])
--------------------------------------------------------------------------

    Molecular point group: c1
  Charge       = 0
  Multiplicity = 1
  Basis Set: AUG-CC-PVTZ
    Blend: AUG-CC-PVTZ
  Basis Set: (AUG-CC-PVTZ AUX)
    Blend: AUG-CC-PVTZ-JKFIT

    Orbital Energies [Eh]
    ---------------------

    Doubly Occupied:

       1A    -20.553312     2A    -20.530748     3A    -15.635497
       4A    -15.606213     5A    -11.403007     6A    -11.378621
       7A    -11.331846     8A    -11.283732     9A    -11.257569
      10A    -11.238639    11A     -1.429953    12A     -1.406287
      13A     -1.302191    14A     -1.216773    15A     -1.115767
      16A     -0.992053    17A     -0.959660    18A     -0.915133
      19A     -0.835145    20A     -0.768730    21A     -0.723289
      22A     -0.696516    23A     -0.676564    24A     -0.654910
      25A     -0.634536    26A     -0.618539    27A     -0.616549
      28A     -0.586886    29A     -0.582546    30A     -0.555163
      31A     -0.553020    32A     -0.552578    33A     -0.485573
      34A     -0.477578    35A     -0.440751    36A     -0.423793
      37A     -0.348269

  @DF-RHF Final Energy:  -490.70349634141081

   => Energetics <=

    Nuclear Repulsion Energy =            530.0529638701052590
    One-Electron Energy =               -1719.9370453777967214
    Two-Electron Energy =                 699.1805851662807072
    Total Energy =                       -490.7034963414107551
  Basis Set: (AUG-CC-PVTZ AUX)
    Blend: AUG-CC-PVTZ-RI
    Molecular point group: c1

    Geometry (in Angstrom), charge = 0, multiplicity = 1:

       Center              X                  Y                   Z               Mass
    ------------   -----------------  -----------------  -----------------  -----------------
         O            2.316226033567    -1.335779135218     0.000059512386    15.994914619570
         O           -2.266815966433    -1.427668135218    -0.000129487614    15.994914619570
         N            1.187675033567     0.688126864782     0.000056512386    14.003074004430
         N            0.020408033567    -1.313563135218    -0.000032487614    14.003074004430
         C           -1.229609966433     0.727348864782    -0.000023487614    12.000000000000
         C           -0.026860966433     1.352369864782     0.000036512386    12.000000000000
         C            1.265649033567    -0.698251135218     0.000032512386    12.000000000000
         C           -1.340169066433    -0.691296235218    -0.000067887614    12.000000000000
         C            2.429406033567     1.456885864782     0.000125512386    12.000000000000
         C           -2.545411966433     1.438421864782    -0.000055487614    12.000000000000
         H            0.056732033567     2.436595864782     0.000070512386     1.007825032230
         H            0.051245033567    -2.330926135218    -0.000059487614     1.007825032230
         H            2.485080033567     2.083614864782     0.893516512386     1.007825032230
         H            2.484936033567     2.083970864782    -0.893076487614     1.007825032230
         H            3.251737033567     0.744925864782    -0.000050487614     1.007825032230
         H           -3.132485966433     1.157494864782    -0.878594487614     1.007825032230
         H           -2.405250966433     2.523133864782    -0.000021487614     1.007825032230
         H           -3.132551966433     1.157448864782     0.878424512386     1.007825032230

  Basis Set: AUG-CC-PVTZ
    Blend: AUG-CC-PVTZ
  Basis Set: (AUG-CC-PVTZ AUX)
    Blend: AUG-CC-PVTZ-JKFIT
	 Reference Energy          =    -490.7034963414108120 [Eh]
	 Singles Energy            =      -0.0000000000000000 [Eh]
	 Same-Spin Energy          =      -0.5022334300620622 [Eh]
	 Opposite-Spin Energy      =      -1.5410162731070591 [Eh]
	 Correlation Energy        =      -2.0432497031691215 [Eh]
	 Total Energy              =    -492.7467460445799361 [Eh]

	 ================> DF-SCS-MP2 Energies <==================
	-----------------------------------------------------------
	 SCS Same-Spin Scale       =       0.3333333333333333 [-]
	 SCS Opposite-Spin Scale   =       1.2000000000000000 [-]
	 SCS Same-Spin Energy      =      -0.1674111433540207 [Eh]
	 SCS Opposite-Spin Energy  =      -1.8492195277284709 [Eh]
	 SCS Correlation Energy    =      -2.0166306710824915 [Eh]
	 SCS Total Energy          =    -492.7201270124933217 [Eh]
	-----------------------------------------------------------

  Dipole Moment: [D]
     X:     0.3719      Y:     4.6609      Z:     0.0001     Total:     4.6757

*** Psi4 exiting successfully. Buy a developer a beer!
