                               Psi4 1.3.2 release

  ==> Input File <==

--------------------------------------------------------------------------
#psi4
#
memory 32 gb

molecule  {
0 1
  O        2.3111590    -1.3984000     0.0000580
  O       -2.2718830    -1.4902890    -0.0001310
  N        1.1826080     0.6255060     0.0000550
  N        0.0153410    -1.3761840    -0.0000340
  C       -1.2346770     0.6647280    -0.0000250
  C       -0.0080064     1.3317311     0.0000364
  C        1.3089184    -0.7573062     0.0000324
  C       -1.2542960    -0.7955090    -0.0000670
  C        2.4243390     1.3942650     0.0001240
  C       -2.5504790     1.3758010    -0.0000570
  H        0.0516650     2.3739750     0.0000690
  H        0.0461780    -2.3935470    -0.0000610
  H        2.4800130     2.0209940     0.8935150
  H        2.4798690     2.0213500    -0.8930780
  H        3.2466700     0.6823050    -0.0000520
  H       -3.1375530     1.0948740    -0.8785960
  H       -2.4103180     2.4605130    -0.0000230
  H       -3.1376190     1.0948280     0.8784230
units angstrom
no_reorient  #important for SAPT in psi4, default
symmetry c1  #important for SAPT in psi4, default
}

set PROPERTIES_ORIGIN ["COM"]
properties('MP2/aug-cc-pvtz', properties = ['dipole'])
--------------------------------------------------------------------------

    Molecular point group: c1
  Charge       = 0
  Multiplicity = 1
  Basis Set: AUG-CC-PVTZ
    Blend: AUG-CC-PVTZ
  Basis Set: (AUG-CC-PVTZ AUX)
    Blend: AUG-CC-PVTZ-JKFIT

    Orbital Energies [Eh]
    ---------------------

    Doubly Occupied:

       1A    -20.552146     2A    -20.533206     3A    -15.637938
       4A    -15.616575     5A    -11.416156     6A    -11.371542
       7A    -11.326706     8A    -11.285422     9A    -11.262401
      10A    -11.234496    11A     -1.443930    12A     -1.385372
      13A     -1.312141    14A     -1.230023    15A     -1.100337
      16A     -0.990500    17A     -0.965348    18A     -0.911859
      19A     -0.841257    20A     -0.767810    21A     -0.727459
      22A     -0.703856    23A     -0.682585    24A     -0.657462
      25A     -0.641887    26A     -0.612517    27A     -0.610419
      28A     -0.587550    29A     -0.585326    30A     -0.553284
      31A     -0.546041    32A     -0.543465    33A     -0.488935
      34A     -0.485196    35A     -0.440741    36A     -0.427170
      37A     -0.338744

  @DF-RHF Final Energy:  -490.70389301159855

   => Energetics <=

    Nuclear Repulsion Energy =            529.4375347276409229
    One-Electron Energy =               -1718.6472475526452399
    Two-Electron Energy =                 698.5058198134057648
    Total Energy =                       -490.7038930115985522
  Basis Set: (AUG-CC-PVTZ AUX)
    Blend: AUG-CC-PVTZ-RI
    Molecular point group: c1

    Geometry (in Angstrom), charge = 0, multiplicity = 1:

       Center              X                  Y                   Z               Mass
    ------------   -----------------  -----------------  -----------------  -----------------
         O            2.302243475448    -1.336118079114     0.000059066858    15.994914619570
         O           -2.280798524552    -1.428007079114    -0.000129933142    15.994914619570
         N            1.173692475448     0.687787920886     0.000056066858    14.003074004430
         N            0.006425475448    -1.313902079114    -0.000032933142    14.003074004430
         C           -1.243592524552     0.727009920886    -0.000023933142    12.000000000000
         C           -0.016921924552     1.394013020886     0.000037466858    12.000000000000
         C            1.300002875448    -0.695024279114     0.000033466858    12.000000000000
         C           -1.263211524552    -0.733227079114    -0.000065933142    12.000000000000
         C            2.415423475448     1.456546920886     0.000125066858    12.000000000000
         C           -2.559394524552     1.438082920886    -0.000055933142    12.000000000000
         H            0.042749475448     2.436256920886     0.000070066858     1.007825032230
         H            0.037262475448    -2.331265079114    -0.000059933142     1.007825032230
         H            2.471097475448     2.083275920886     0.893516066858     1.007825032230
         H            2.470953475448     2.083631920886    -0.893076933142     1.007825032230
         H            3.237754475448     0.744586920886    -0.000050933142     1.007825032230
         H           -3.146468524552     1.157155920886    -0.878594933142     1.007825032230
         H           -2.419233524552     2.522794920886    -0.000021933142     1.007825032230
         H           -3.146534524552     1.157109920886     0.878424066858     1.007825032230

  Basis Set: AUG-CC-PVTZ
    Blend: AUG-CC-PVTZ
  Basis Set: (AUG-CC-PVTZ AUX)
    Blend: AUG-CC-PVTZ-JKFIT
	 Reference Energy          =    -490.7038930115985522 [Eh]
	 Singles Energy            =      -0.0000000000000000 [Eh]
	 Same-Spin Energy          =      -0.5025141211441273 [Eh]
	 Opposite-Spin Energy      =      -1.5421108871215705 [Eh]
	 Correlation Energy        =      -2.0446250082656978 [Eh]
	 Total Energy              =    -492.7485180198642638 [Eh]

	 ================> DF-SCS-MP2 Energies <==================
	-----------------------------------------------------------
	 SCS Same-Spin Scale       =       0.3333333333333333 [-]
	 SCS Opposite-Spin Scale   =       1.2000000000000000 [-]
	 SCS Same-Spin Energy      =      -0.1675047070480424 [Eh]
	 SCS Opposite-Spin Energy  =      -1.8505330645458846 [Eh]
	 SCS Correlation Energy    =      -2.0180377715939271 [Eh]
	 SCS Total Energy          =    -492.7219307831924766 [Eh]
	-----------------------------------------------------------

  Dipole Moment: [D]
     X:     1.4920      Y:     4.4746      Z:     0.0002     Total:     4.7168

*** Psi4 exiting successfully. Buy a developer a beer!
