                               Psi4 1.3.2 release

  ==> Input File <==

--------------------------------------------------------------------------
#psi4
#
memory 32 gb

molecule  {
0 1
  O        2.3111590    -1.3984000     0.0000580
  O       -2.2718830    -1.4902890    -0.0001310
  N        1.1826080     0.6255060     0.0000550
  N        0.0153410    -1.3761840    -0.0000340
  C       -1.2346770     0.6647280    -0.0000250
  C       -0.0319280     1.2897490     0.0000350
  C        1.2661974    -0.8607142     0.0000293
  C       -1.2542960    -0.7955090    -0.0000670
  C        2.4243390     1.3942650     0.0001240
  C       -2.5504790     1.3758010    -0.0000570
  H        0.0516650     2.3739750     0.0000690
  H        0.0461780    -2.3935470    -0.0000610
  H        2.4800130     2.0209940     0.8935150
  H        2.4798690     2.0213500    -0.8930780
  H        3.2466700     0.6823050    -0.0000520
  H       -3.1375530     1.0948740    -0.8785960
  H       -2.4103180     2.4605130    -0.0000230
  H       -3.1376190     1.0948280     0.8784230
units angstrom
no_reorient  #important for SAPT in psi4, default
symmetry c1  #important for SAPT in psi4, default
}

set PROPERTIES_ORIGIN ["COM"]
properties('MP2/aug-cc-pvtz', properties = ['dipole'])
--------------------------------------------------------------------------

    Molecular point group: c1
  Charge       = 0
  Multiplicity = 1
  Basis Set: AUG-CC-PVTZ
    Blend: AUG-CC-PVTZ
  Basis Set: (AUG-CC-PVTZ AUX)
    Blend: AUG-CC-PVTZ-JKFIT

    Orbital Energies [Eh]
    ---------------------

    Doubly Occupied:

       1A    -20.557855     2A    -20.539541     3A    -15.628950
       4A    -15.622941     5A    -11.417495     6A    -11.378487
       7A    -11.319677     8A    -11.278605     9A    -11.249377
      10A    -11.232068    11A     -1.455254    12A     -1.393058
      13A     -1.300405    14A     -1.247036    15A     -1.101737
      16A     -0.982036    17A     -0.951487    18A     -0.908394
      19A     -0.858302    20A     -0.760759    21A     -0.733481
      22A     -0.696312    23A     -0.677413    24A     -0.661257
      25A     -0.639663    26A     -0.616336    27A     -0.609041
      28A     -0.588189    29A     -0.579785    30A     -0.549049
      31A     -0.547698    32A     -0.543473    33A     -0.484828
      34A     -0.481252    35A     -0.448748    36A     -0.440365
      37A     -0.335092

  @DF-RHF Final Energy:  -490.70245874468782

   => Energetics <=

    Nuclear Repulsion Energy =            529.8951026396246107
    One-Electron Energy =               -1719.5642301145799138
    Two-Electron Energy =                 698.9666687302675427
    Total Energy =                       -490.7024587446877604
  Basis Set: (AUG-CC-PVTZ AUX)
    Blend: AUG-CC-PVTZ-RI
    Molecular point group: c1

    Geometry (in Angstrom), charge = 0, multiplicity = 1:

       Center              X                  Y                   Z               Mass
    ------------   -----------------  -----------------  -----------------  -----------------
         O            2.307953309249    -1.323661282601     0.000059452411    15.994914619570
         O           -2.275088690751    -1.415550282601    -0.000129547589    15.994914619570
         N            1.179402309249     0.700244717399     0.000056452411    14.003074004430
         N            0.012135309249    -1.301445282601    -0.000032547589    14.003074004430
         C           -1.237882690751     0.739466717399    -0.000023547589    12.000000000000
         C           -0.035133690751     1.364487717399     0.000036452411    12.000000000000
         C            1.262991709249    -0.785975482601     0.000030752411    12.000000000000
         C           -1.257501690751    -0.720770282601    -0.000065547589    12.000000000000
         C            2.421133309249     1.469003717399     0.000125452411    12.000000000000
         C           -2.553684690751     1.450539717399    -0.000055547589    12.000000000000
         H            0.048459309249     2.448713717399     0.000070452411     1.007825032230
         H            0.042972309249    -2.318808282601    -0.000059547589     1.007825032230
         H            2.476807309249     2.095732717399     0.893516452411     1.007825032230
         H            2.476663309249     2.096088717399    -0.893076547589     1.007825032230
         H            3.243464309249     0.757043717399    -0.000050547589     1.007825032230
         H           -3.140758690751     1.169612717399    -0.878594547589     1.007825032230
         H           -2.413523690751     2.535251717399    -0.000021547589     1.007825032230
         H           -3.140824690751     1.169566717399     0.878424452411     1.007825032230

  Basis Set: AUG-CC-PVTZ
    Blend: AUG-CC-PVTZ
  Basis Set: (AUG-CC-PVTZ AUX)
    Blend: AUG-CC-PVTZ-JKFIT
	 Reference Energy          =    -490.7024587446878172 [Eh]
	 Singles Energy            =      -0.0000000000000000 [Eh]
	 Same-Spin Energy          =      -0.5022101715888683 [Eh]
	 Opposite-Spin Energy      =      -1.5408028977767594 [Eh]
	 Correlation Energy        =      -2.0430130693656277 [Eh]
	 Total Energy              =    -492.7454718140534169 [Eh]

	 ================> DF-SCS-MP2 Energies <==================
	-----------------------------------------------------------
	 SCS Same-Spin Scale       =       0.3333333333333333 [-]
	 SCS Opposite-Spin Scale   =       1.2000000000000000 [-]
	 SCS Same-Spin Energy      =      -0.1674033905296227 [Eh]
	 SCS Opposite-Spin Energy  =      -1.8489634773321111 [Eh]
	 SCS Correlation Energy    =      -2.0163668678617337 [Eh]
	 SCS Total Energy          =    -492.7188256125495514 [Eh]
	-----------------------------------------------------------

  Dipole Moment: [D]
     X:     1.4044      Y:     3.7360      Z:     0.0002     Total:     3.9913

*** Psi4 exiting successfully. Buy a developer a beer!
