                               Psi4 1.3.2 release

  ==> Input File <==

--------------------------------------------------------------------------
#psi4
#
memory 32 gb

molecule  {
0 1
  O        2.3111590    -1.3984000     0.0000580
  O       -2.2718830    -1.4902890    -0.0001310
  N        1.1826080     0.6255060     0.0000550
  N        0.0153410    -1.3761840    -0.0000340
  C       -1.2346770     0.6647280    -0.0000250
  C       -0.0374281     1.3002210     0.0000351
  C        1.2605820    -0.7608720     0.0000310
  C       -1.2670381    -0.7952822    -0.0000674
  C        2.4243390     1.3942650     0.0001240
  C       -2.5504790     1.3758010    -0.0000570
  H        0.0516650     2.3739750     0.0000690
  H        0.0461780    -2.3935470    -0.0000610
  H        2.4800130     2.0209940     0.8935150
  H        2.4798690     2.0213500    -0.8930780
  H        3.2466700     0.6823050    -0.0000520
  H       -3.1375530     1.0948740    -0.8785960
  H       -2.4103180     2.4605130    -0.0000230
  H       -3.1376190     1.0948280     0.8784230
units angstrom
no_reorient  #important for SAPT in psi4, default
symmetry c1  #important for SAPT in psi4, default
}

set PROPERTIES_ORIGIN ["COM"]
properties('MP2/aug-cc-pvtz', properties = ['dipole'])
--------------------------------------------------------------------------

    Molecular point group: c1
  Charge       = 0
  Multiplicity = 1
  Basis Set: AUG-CC-PVTZ
    Blend: AUG-CC-PVTZ
  Basis Set: (AUG-CC-PVTZ AUX)
    Blend: AUG-CC-PVTZ-JKFIT

    Orbital Energies [Eh]
    ---------------------

    Doubly Occupied:

       1A    -20.542005     2A    -20.538749     3A    -15.636443
       4A    -15.622317     5A    -11.412036     6A    -11.377336
       7A    -11.324958     8A    -11.284615     9A    -11.260302
      10A    -11.237298    11A     -1.422733    12A     -1.393475
      13A     -1.303518    14A     -1.239584    15A     -1.109453
      16A     -0.991354    17A     -0.963052    18A     -0.913644
      19A     -0.849674    20A     -0.769507    21A     -0.732941
      22A     -0.694285    23A     -0.679983    24A     -0.649884
      25A     -0.638147    26A     -0.615310    27A     -0.613109
      28A     -0.587945    29A     -0.583967    30A     -0.554453
      31A     -0.548494    32A     -0.545057    33A     -0.485732
      34A     -0.475464    35A     -0.445388    36A     -0.430820
      37A     -0.346505

  @DF-RHF Final Energy:  -490.71210180708982

   => Energetics <=

    Nuclear Repulsion Energy =            530.1050093379717509
    One-Electron Energy =               -1719.9951508907729476
    Two-Electron Energy =                 699.1780397457113168
    Total Energy =                       -490.7121018070898799
  Basis Set: (AUG-CC-PVTZ AUX)
    Blend: AUG-CC-PVTZ-RI
    Molecular point group: c1

    Geometry (in Angstrom), charge = 0, multiplicity = 1:

       Center              X                  Y                   Z               Mass
    ------------   -----------------  -----------------  -----------------  -----------------
         O            2.309997391126    -1.333132262698     0.000059332462    15.994914619570
         O           -2.273044608874    -1.425021262698    -0.000129667538    15.994914619570
         N            1.181446391126     0.690773737302     0.000056332462    14.003074004430
         N            0.014179391126    -1.310916262698    -0.000032667538    14.003074004430
         C           -1.235838608874     0.729995737302    -0.000023667538    12.000000000000
         C           -0.038589708874     1.365488737302     0.000036432462    12.000000000000
         C            1.259420391126    -0.695604262698     0.000032332462    12.000000000000
         C           -1.268199708874    -0.730014462698    -0.000066067538    12.000000000000
         C            2.423177391126     1.459532737302     0.000125332462    12.000000000000
         C           -2.551640608874     1.441068737302    -0.000055667538    12.000000000000
         H            0.050503391126     2.439242737302     0.000070332462     1.007825032230
         H            0.045016391126    -2.328279262698    -0.000059667538     1.007825032230
         H            2.478851391126     2.086261737302     0.893516332462     1.007825032230
         H            2.478707391126     2.086617737302    -0.893076667538     1.007825032230
         H            3.245508391126     0.747572737302    -0.000050667538     1.007825032230
         H           -3.138714608874     1.160141737302    -0.878594667538     1.007825032230
         H           -2.411479608874     2.525780737302    -0.000021667538     1.007825032230
         H           -3.138780608874     1.160095737302     0.878424332462     1.007825032230

  Basis Set: AUG-CC-PVTZ
    Blend: AUG-CC-PVTZ
  Basis Set: (AUG-CC-PVTZ AUX)
    Blend: AUG-CC-PVTZ-JKFIT
	 Reference Energy          =    -490.7121018070898231 [Eh]
	 Singles Energy            =      -0.0000000000000000 [Eh]
	 Same-Spin Energy          =      -0.5021199439969910 [Eh]
	 Opposite-Spin Energy      =      -1.5411828131998486 [Eh]
	 Correlation Energy        =      -2.0433027571968396 [Eh]
	 Total Energy              =    -492.7554045642866640 [Eh]

	 ================> DF-SCS-MP2 Energies <==================
	-----------------------------------------------------------
	 SCS Same-Spin Scale       =       0.3333333333333333 [-]
	 SCS Opposite-Spin Scale   =       1.2000000000000000 [-]
	 SCS Same-Spin Energy      =      -0.1673733146656637 [Eh]
	 SCS Opposite-Spin Energy  =      -1.8494193758398183 [Eh]
	 SCS Correlation Energy    =      -2.0167926905054818 [Eh]
	 SCS Total Energy          =    -492.7288944975953200 [Eh]
	-----------------------------------------------------------

  Dipole Moment: [D]
     X:     0.8916      Y:     4.5116      Z:     0.0002     Total:     4.5988

*** Psi4 exiting successfully. Buy a developer a beer!
