                               Psi4 1.4a3.dev225

  ==> Input File <==

--------------------------------------------------------------------------
#psi4
#
memory 32 gb

molecule  {
0 1
  O        2.3212770    -1.3580180     0.0000020
  O       -2.2717460    -1.4962290     0.0000010
  N        1.1724310     0.6334210    -0.0000020
  N        0.0162060    -1.3769820    -0.0000020
  C       -1.2398930     0.6613320     0.0000000
  C       -0.0398910     1.2934770    -0.0000010
  C        1.2527440    -0.7526170    -0.0000010
  C       -1.2589250    -0.7964470     0.0000000
  C        2.4447950     1.3519700     0.0000010
  C       -2.5550880     1.3760200     0.0000010
  H        0.0310140     2.3780990    -0.0000010
  H        0.0457120    -2.3937650    -0.0000010
  H        2.2343430     2.4214070    -0.0000200
  H        2.9976173     1.0996849    -0.8456077
  H        3.0241420     1.0876020     0.8862360
  H       -3.1432670     1.0977880    -0.8790540
  H       -2.4120010     2.4600010     0.0000010
  H       -3.1432670     1.0977870     0.8790540
units angstrom
no_reorient  #important for SAPT in psi4, default
symmetry c1  #important for SAPT in psi4, default
}

set PROPERTIES_ORIGIN ["COM"]
properties('MP2/aug-cc-pvtz', properties = ['dipole'])
--------------------------------------------------------------------------

    Molecular point group: c1
  Charge       = 0
  Multiplicity = 1
  Basis Set: AUG-CC-PVTZ
    Blend: AUG-CC-PVTZ
  Basis Set: (AUG-CC-PVTZ AUX)
    Blend: AUG-CC-PVTZ-JKFIT

    Orbital Energies [Eh]
    ---------------------

    Doubly Occupied:

       1A    -20.541076     2A    -20.537919     3A    -15.638163
       4A    -15.624765     5A    -11.411483     6A    -11.375793
       7A    -11.326274     8A    -11.283066     9A    -11.256976
      10A    -11.236351    11A     -1.424865    12A     -1.387173
      13A     -1.306474    14A     -1.243586    15A     -1.108800
      16A     -0.997451    17A     -0.962555    18A     -0.914710
      19A     -0.854276    20A     -0.770782    21A     -0.735812
      22A     -0.694214    23A     -0.684964    24A     -0.650906
      25A     -0.636794    26A     -0.616183    27A     -0.609160
      28A     -0.592125    29A     -0.581843    30A     -0.558372
      31A     -0.547831    32A     -0.541056    33A     -0.492990
      34A     -0.475544    35A     -0.444147    36A     -0.430326
      37A     -0.343860

  @DF-RHF Final Energy:  -490.71162654124441

   => Energetics <=

    Nuclear Repulsion Energy =            530.9854636334522411
    One-Electron Energy =               -1721.7168505480308340
    Two-Electron Energy =                 700.0197603733342930
    Total Energy =                       -490.7116265412444136
  Basis Set: (AUG-CC-PVTZ AUX)
    Blend: AUG-CC-PVTZ-RI
    Molecular point group: c1

    Geometry (in Angstrom), charge = 0, multiplicity = 1:

       Center              X                  Y                   Z               Mass
    ------------   -----------------  -----------------  -----------------  -----------------
         O            2.319041138189    -1.292761145210    -0.000290142235    15.994914619570
         O           -2.273981861811    -1.430972145210    -0.000291142235    15.994914619570
         N            1.170195138189     0.698677854790    -0.000294142235    14.003074004430
         N            0.013970138189    -1.311725145210    -0.000294142235    14.003074004430
         C           -1.242128861811     0.726588854790    -0.000292142235    12.000000000000
         C           -0.042126861811     1.358733854790    -0.000293142235    12.000000000000
         C            1.250508138189    -0.687360145210    -0.000293142235    12.000000000000
         C           -1.261160861811    -0.731190145210    -0.000292142235    12.000000000000
         C            2.442559138189     1.417226854790    -0.000291142235    12.000000000000
         C           -2.557323861811     1.441276854790    -0.000291142235    12.000000000000
         H            0.028778138189     2.443355854790    -0.000293142235     1.007825032230
         H            0.043476138189    -2.328508145210    -0.000293142235     1.007825032230
         H            2.232107138189     2.486663854790    -0.000312142235     1.007825032230
         H            2.995381438189     1.164941754790    -0.845899842235     1.007825032230
         H            3.021906138189     1.152858854790     0.885943857765     1.007825032230
         H           -3.145502861811     1.163044854790    -0.879346142235     1.007825032230
         H           -2.414236861811     2.525257854790    -0.000291142235     1.007825032230
         H           -3.145502861811     1.163043854790     0.878761857765     1.007825032230

  Basis Set: AUG-CC-PVTZ
    Blend: AUG-CC-PVTZ
  Basis Set: (AUG-CC-PVTZ AUX)
    Blend: AUG-CC-PVTZ-JKFIT
	 Reference Energy          =    -490.7116265412444136 [Eh]
	 Singles Energy            =      -0.0000000000000000 [Eh]
	 Same-Spin Energy          =      -0.5023181829351449 [Eh]
	 Opposite-Spin Energy      =      -1.5409648797356039 [Eh]
	 Correlation Energy        =      -2.0432830626707488 [Eh]
	 Total Energy              =    -492.7549096039151664 [Eh]

	 ================> DF-SCS-MP2 Energies <==================
	-----------------------------------------------------------
	 SCS Same-Spin Scale       =       0.3333333333333333 [-]
	 SCS Opposite-Spin Scale   =       1.2000000000000000 [-]
	 SCS Same-Spin Energy      =      -0.1674393943117150 [Eh]
	 SCS Opposite-Spin Energy  =      -1.8491578556827246 [Eh]
	 SCS Correlation Energy    =      -2.0165972499944393 [Eh]
	 SCS Total Energy          =    -492.7282237912388609 [Eh]
	-----------------------------------------------------------

  Dipole Moment: [D]
     X:     1.1119      Y:     4.5218      Z:    -0.0085     Total:     4.6565

*** Psi4 exiting successfully. Buy a developer a beer!
