                               Psi4 1.3.2 release

  ==> Input File <==

--------------------------------------------------------------------------
#psi4
#
memory 32 gb

molecule  {
0 1
  O        2.3111590    -1.3984000     0.0000580
  O       -2.2718830    -1.4902890    -0.0001310
  N        1.1826080     0.6255060     0.0000550
  N        0.0153410    -1.3761840    -0.0000340
  C       -1.2346770     0.6647280    -0.0000250
  C       -0.0319280     1.2897490     0.0000350
  C        1.2605820    -0.7608720     0.0000310
  C       -1.2439685    -0.7734392    -0.0000660
  C        2.4243390     1.3942650     0.0001240
  C       -2.5504790     1.3758010    -0.0000570
  H        0.0516650     2.3739750     0.0000690
  H        0.0639287    -2.3928539    -0.0000603
  H        2.4800130     2.0209940     0.8935150
  H        2.4798690     2.0213500    -0.8930780
  H        3.2466700     0.6823050    -0.0000520
  H       -3.1375530     1.0948740    -0.8785960
  H       -2.4103180     2.4605130    -0.0000230
  H       -3.1376190     1.0948280     0.8784230
units angstrom
no_reorient  #important for SAPT in psi4, default
symmetry c1  #important for SAPT in psi4, default
}

set PROPERTIES_ORIGIN ["COM"]
properties('MP2/aug-cc-pvtz', properties = ['dipole'])
--------------------------------------------------------------------------

    Molecular point group: c1
  Charge       = 0
  Multiplicity = 1
  Basis Set: AUG-CC-PVTZ
    Blend: AUG-CC-PVTZ
  Basis Set: (AUG-CC-PVTZ AUX)
    Blend: AUG-CC-PVTZ-JKFIT

    Orbital Energies [Eh]
    ---------------------

    Doubly Occupied:

       1A    -20.541283     2A    -20.534126     3A    -15.640439
       4A    -15.625867     5A    -11.413864     6A    -11.376110
       7A    -11.328431     8A    -11.287304     9A    -11.259821
      10A    -11.237881    11A     -1.424335    12A     -1.374578
      13A     -1.307807    14A     -1.241631    15A     -1.113203
      16A     -0.994321    17A     -0.964853    18A     -0.919371
      19A     -0.852188    20A     -0.772094    21A     -0.738470
      22A     -0.693250    23A     -0.683452    24A     -0.647410
      25A     -0.636847    26A     -0.615302    27A     -0.606847
      28A     -0.589307    29A     -0.584771    30A     -0.556517
      31A     -0.548351    32A     -0.538779    33A     -0.489545
      34A     -0.475643    35A     -0.442631    36A     -0.427763
      37A     -0.347588

  @DF-RHF Final Energy:  -490.70897753584603

   => Energetics <=

    Nuclear Repulsion Energy =            530.4953847044490658
    One-Electron Energy =               -1720.7447617797267867
    Two-Electron Energy =                 699.5403995394316325
    Total Energy =                       -490.7089775358459747
  Basis Set: (AUG-CC-PVTZ AUX)
    Blend: AUG-CC-PVTZ-RI
    Molecular point group: c1

    Geometry (in Angstrom), charge = 0, multiplicity = 1:

       Center              X                  Y                   Z               Mass
    ------------   -----------------  -----------------  -----------------  -----------------
         O            2.307421854474    -1.334111499571     0.000059216043    15.994914619570
         O           -2.275620145526    -1.426000499571    -0.000129783957    15.994914619570
         N            1.178870854474     0.689794500429     0.000056216043    14.003074004430
         N            0.011603854474    -1.311895499571    -0.000032783957    14.003074004430
         C           -1.238414145526     0.729016500429    -0.000023783957    12.000000000000
         C           -0.035665145526     1.354037500429     0.000036216043    12.000000000000
         C            1.256844854474    -0.696583499571     0.000032216043    12.000000000000
         C           -1.247705645526    -0.709150699571    -0.000064783957    12.000000000000
         C            2.420601854474     1.458553500429     0.000125216043    12.000000000000
         C           -2.554216145526     1.440089500429    -0.000055783957    12.000000000000
         H            0.047927854474     2.438263500429     0.000070216043     1.007825032230
         H            0.060191554474    -2.328565399571    -0.000059083957     1.007825032230
         H            2.476275854474     2.085282500429     0.893516216043     1.007825032230
         H            2.476131854474     2.085638500429    -0.893076783957     1.007825032230
         H            3.242932854474     0.746593500429    -0.000050783957     1.007825032230
         H           -3.141290145526     1.159162500429    -0.878594783957     1.007825032230
         H           -2.414055145526     2.524801500429    -0.000021783957     1.007825032230
         H           -3.141356145526     1.159116500429     0.878424216043     1.007825032230

  Basis Set: AUG-CC-PVTZ
    Blend: AUG-CC-PVTZ
  Basis Set: (AUG-CC-PVTZ AUX)
    Blend: AUG-CC-PVTZ-JKFIT
	 Reference Energy          =    -490.7089775358460315 [Eh]
	 Singles Energy            =      -0.0000000000000000 [Eh]
	 Same-Spin Energy          =      -0.5030715219409745 [Eh]
	 Opposite-Spin Energy      =      -1.5425888925323243 [Eh]
	 Correlation Energy        =      -2.0456604144732990 [Eh]
	 Total Energy              =    -492.7546379503193066 [Eh]

	 ================> DF-SCS-MP2 Energies <==================
	-----------------------------------------------------------
	 SCS Same-Spin Scale       =       0.3333333333333333 [-]
	 SCS Opposite-Spin Scale   =       1.2000000000000000 [-]
	 SCS Same-Spin Energy      =      -0.1676905073136581 [Eh]
	 SCS Opposite-Spin Energy  =      -1.8511066710387891 [Eh]
	 SCS Correlation Energy    =      -2.0187971783524472 [Eh]
	 SCS Total Energy          =    -492.7277747141984605 [Eh]
	-----------------------------------------------------------

  Dipole Moment: [D]
     X:     1.1866      Y:     4.6605      Z:     0.0002     Total:     4.8092

*** Psi4 exiting successfully. Buy a developer a beer!
