                               Psi4 1.4a3.dev225

  ==> Input File <==

--------------------------------------------------------------------------
#psi4
#
memory 32 gb

molecule  {
0 1
  O        2.3212770    -1.3580180     0.0000020
  O       -2.2717460    -1.4962290     0.0000010
  N        1.1724310     0.6334210    -0.0000020
  N        0.0162060    -1.3769820    -0.0000020
  C       -1.2398930     0.6613320     0.0000000
  C       -0.0398910     1.2934770    -0.0000010
  C        1.2701451    -0.7624760    -0.0000010
  C       -1.2589250    -0.7964470     0.0000000
  C        2.4447950     1.3519700     0.0000010
  C       -2.5550880     1.3760200     0.0000010
  H        0.0310140     2.3780990    -0.0000010
  H        0.0457120    -2.3937650    -0.0000010
  H        2.2343430     2.4214070    -0.0000200
  H        3.0241620     1.0875710    -0.8862110
  H        3.0241420     1.0876020     0.8862360
  H       -3.1432670     1.0977880    -0.8790540
  H       -2.4120010     2.4600010     0.0000010
  H       -3.1432670     1.0977870     0.8790540
units angstrom
no_reorient  #important for SAPT in psi4, default
symmetry c1  #important for SAPT in psi4, default
}

set PROPERTIES_ORIGIN ["COM"]
properties('MP2/aug-cc-pvtz', properties = ['dipole'])
--------------------------------------------------------------------------

    Molecular point group: c1
  Charge       = 0
  Multiplicity = 1
  Basis Set: AUG-CC-PVTZ
    Blend: AUG-CC-PVTZ
  Basis Set: (AUG-CC-PVTZ AUX)
    Blend: AUG-CC-PVTZ-JKFIT

    Orbital Energies [Eh]
    ---------------------

    Doubly Occupied:

       1A    -20.546732     2A    -20.536507     3A    -15.636419
       4A    -15.622507     5A    -11.412237     6A    -11.374572
       7A    -11.325326     8A    -11.287897     9A    -11.255315
      10A    -11.235289    11A     -1.433525    12A     -1.387932
      13A     -1.307785    14A     -1.239823    15A     -1.107282
      16A     -0.991867    17A     -0.960009    18A     -0.912724
      19A     -0.850759    20A     -0.768913    21A     -0.732578
      22A     -0.694451    23A     -0.682351    24A     -0.650852
      25A     -0.641483    26A     -0.611587    27A     -0.608579
      28A     -0.589693    29A     -0.582050    30A     -0.557044
      31A     -0.546771    32A     -0.542101    33A     -0.492834
      34A     -0.479475    35A     -0.443638    36A     -0.430629
      37A     -0.342356

  @DF-RHF Final Energy:  -490.71272149600713

   => Energetics <=

    Nuclear Repulsion Energy =            530.6222509825080351
    One-Electron Energy =               -1721.0261612215124387
    Two-Electron Energy =                 699.6911887429971557
    Total Energy =                       -490.7127214960071342
  Basis Set: (AUG-CC-PVTZ AUX)
    Blend: AUG-CC-PVTZ-RI
    Molecular point group: c1

    Geometry (in Angstrom), charge = 0, multiplicity = 1:

       Center              X                  Y                   Z               Mass
    ------------   -----------------  -----------------  -----------------  -----------------
         O            2.317359230395    -1.291829273032     0.000002028533    15.994914619570
         O           -2.275663769605    -1.430040273032     0.000001028533    15.994914619570
         N            1.168513230395     0.699609726968    -0.000001971467    14.003074004430
         N            0.012288230395    -1.310793273032    -0.000001971467    14.003074004430
         C           -1.243810769605     0.727520726968     0.000000028533    12.000000000000
         C           -0.043808769605     1.359665726968    -0.000000971467    12.000000000000
         C            1.266227330395    -0.696287273032    -0.000000971467    12.000000000000
         C           -1.262842769605    -0.730258273032     0.000000028533    12.000000000000
         C            2.440877230395     1.418158726968     0.000001028533    12.000000000000
         C           -2.559005769605     1.442208726968     0.000001028533    12.000000000000
         H            0.027096230395     2.444287726968    -0.000000971467     1.007825032230
         H            0.041794230395    -2.327576273032    -0.000000971467     1.007825032230
         H            2.230425230395     2.487595726968    -0.000019971467     1.007825032230
         H            3.020244230395     1.153759726968    -0.886210971467     1.007825032230
         H            3.020224230395     1.153790726968     0.886236028533     1.007825032230
         H           -3.147184769605     1.163976726968    -0.879053971467     1.007825032230
         H           -2.415918769605     2.526189726968     0.000001028533     1.007825032230
         H           -3.147184769605     1.163975726968     0.879054028533     1.007825032230

  Basis Set: AUG-CC-PVTZ
    Blend: AUG-CC-PVTZ
  Basis Set: (AUG-CC-PVTZ AUX)
    Blend: AUG-CC-PVTZ-JKFIT
	 Reference Energy          =    -490.7127214960071342 [Eh]
	 Singles Energy            =      -0.0000000000000000 [Eh]
	 Same-Spin Energy          =      -0.5020913373290453 [Eh]
	 Opposite-Spin Energy      =      -1.5408121499224772 [Eh]
	 Correlation Energy        =      -2.0429034872515226 [Eh]
	 Total Energy              =    -492.7556249832586559 [Eh]

	 ================> DF-SCS-MP2 Energies <==================
	-----------------------------------------------------------
	 SCS Same-Spin Scale       =       0.3333333333333333 [-]
	 SCS Opposite-Spin Scale   =       1.2000000000000000 [-]
	 SCS Same-Spin Energy      =      -0.1673637791096818 [Eh]
	 SCS Opposite-Spin Energy  =      -1.8489745799069726 [Eh]
	 SCS Correlation Energy    =      -2.0163383590166544 [Eh]
	 SCS Total Energy          =    -492.7290598550237632 [Eh]
	-----------------------------------------------------------

  Dipole Moment: [D]
     X:     1.2815      Y:     4.4052      Z:    -0.0000     Total:     4.5878

*** Psi4 exiting successfully. Buy a developer a beer!
