                               Psi4 1.3.2 release

  ==> Input File <==

--------------------------------------------------------------------------
#psi4
#
memory 32 gb

molecule  {
0 1
  O        2.3111590    -1.3984000     0.0000580
  O       -2.2718830    -1.4902890    -0.0001310
  N        1.1826080     0.6255060     0.0000550
  N        0.0153410    -1.3761840    -0.0000340
  C       -1.2346770     0.6647280    -0.0000250
  C       -0.0319280     1.2897490     0.0000350
  C        1.2605820    -0.7608720     0.0000310
  C       -1.2542960    -0.7955090    -0.0000670
  C        2.4243390     1.3942650     0.0001240
  C       -2.5504790     1.3758010    -0.0000570
  H        0.0516650     2.3739750     0.0000690
  H        0.0461780    -2.3935470    -0.0000610
  H        2.4800130     2.0209940     0.8935150
  H        2.4798690     2.0213500    -0.8930780
  H        3.2466700     0.6823050    -0.0000520
  H       -3.1375530     1.0948740    -0.8785960
  H       -2.4103180     2.4605130    -0.0000230
  H       -3.1376190     1.0948280     0.8784230
units angstrom
no_reorient  #important for SAPT in psi4, default
symmetry c1  #important for SAPT in psi4, default
}

set PROPERTIES_ORIGIN ["COM"]
properties('MP2/aug-cc-pvtz', properties = ['dipole'])
--------------------------------------------------------------------------

    Molecular point group: c1
  Charge       = 0
  Multiplicity = 1
  Basis Set: AUG-CC-PVTZ
    Blend: AUG-CC-PVTZ
  Basis Set: (AUG-CC-PVTZ AUX)
    Blend: AUG-CC-PVTZ-JKFIT

    Orbital Energies [Eh]
    ---------------------

    Doubly Occupied:

       1A    -20.540514     2A    -20.538560     3A    -15.638185
       4A    -15.624614     5A    -11.413716     6A    -11.376225
       7A    -11.324953     8A    -11.285972     9A    -11.259655
      10A    -11.237134    11A     -1.424098    12A     -1.387015
      13A     -1.306781    14A     -1.242914    15A     -1.109020
      16A     -0.993151    17A     -0.963848    18A     -0.914262
      19A     -0.852748    20A     -0.770707    21A     -0.734933
      22A     -0.692255    23A     -0.682171    24A     -0.649490
      25A     -0.637786    26A     -0.615670    27A     -0.609775
      28A     -0.588769    29A     -0.584007    30A     -0.555396
      31A     -0.548078    32A     -0.543189    33A     -0.488003
      34A     -0.475326    35A     -0.444346    36A     -0.430598
      37A     -0.345914

  @DF-RHF Final Energy:  -490.71199944360887

   => Energetics <=

    Nuclear Repulsion Energy =            530.3780018061636383
    One-Electron Energy =               -1720.5204467703497357
    Two-Electron Energy =                 699.4304455205772229
    Total Energy =                       -490.7119994436088746
  Basis Set: (AUG-CC-PVTZ AUX)
    Blend: AUG-CC-PVTZ-RI
    Molecular point group: c1

    Geometry (in Angstrom), charge = 0, multiplicity = 1:

       Center              X                  Y                   Z               Mass
    ------------   -----------------  -----------------  -----------------  -----------------
         O            2.308434427944    -1.332215606237     0.000059306758    15.994914619570
         O           -2.274607572056    -1.424104606237    -0.000129693242    15.994914619570
         N            1.179883427944     0.691690393763     0.000056306758    14.003074004430
         N            0.012616427944    -1.309999606237    -0.000032693242    14.003074004430
         C           -1.237401572056     0.730912393763    -0.000023693242    12.000000000000
         C           -0.034652572056     1.355933393763     0.000036306758    12.000000000000
         C            1.257857427944    -0.694687606237     0.000032306758    12.000000000000
         C           -1.257020572056    -0.729324606237    -0.000065693242    12.000000000000
         C            2.421614427944     1.460449393763     0.000125306758    12.000000000000
         C           -2.553203572056     1.441985393763    -0.000055693242    12.000000000000
         H            0.048940427944     2.440159393763     0.000070306758     1.007825032230
         H            0.043453427944    -2.327362606237    -0.000059693242     1.007825032230
         H            2.477288427944     2.087178393763     0.893516306758     1.007825032230
         H            2.477144427944     2.087534393763    -0.893076693242     1.007825032230
         H            3.243945427944     0.748489393763    -0.000050693242     1.007825032230
         H           -3.140277572056     1.161058393763    -0.878594693242     1.007825032230
         H           -2.413042572056     2.526697393763    -0.000021693242     1.007825032230
         H           -3.140343572056     1.161012393763     0.878424306758     1.007825032230

  Basis Set: AUG-CC-PVTZ
    Blend: AUG-CC-PVTZ
  Basis Set: (AUG-CC-PVTZ AUX)
    Blend: AUG-CC-PVTZ-JKFIT
	 Reference Energy          =    -490.7119994436088746 [Eh]
	 Singles Energy            =      -0.0000000000000000 [Eh]
	 Same-Spin Energy          =      -0.5023869430837729 [Eh]
	 Opposite-Spin Energy      =      -1.5414623846264885 [Eh]
	 Correlation Energy        =      -2.0438493277102614 [Eh]
	 Total Energy              =    -492.7558487713191084 [Eh]

	 ================> DF-SCS-MP2 Energies <==================
	-----------------------------------------------------------
	 SCS Same-Spin Scale       =       0.3333333333333333 [-]
	 SCS Opposite-Spin Scale   =       1.2000000000000000 [-]
	 SCS Same-Spin Energy      =      -0.1674623143612576 [Eh]
	 SCS Opposite-Spin Energy  =      -1.8497548615517863 [Eh]
	 SCS Correlation Energy    =      -2.0172171759130437 [Eh]
	 SCS Total Energy          =    -492.7292166195219352 [Eh]
	-----------------------------------------------------------

  Dipole Moment: [D]
     X:     1.0481      Y:     4.5223      Z:     0.0002     Total:     4.6421

*** Psi4 exiting successfully. Buy a developer a beer!
