                               Psi4 1.3.2 release

  ==> Input File <==

--------------------------------------------------------------------------
#psi4
#
memory 32 gb

molecule  {
0 1
  O        2.3111590    -1.3984000     0.0000580
  O       -2.2718830    -1.4902890    -0.0001310
  N        1.1826080     0.6255060     0.0000550
  N        0.0153410    -1.3761840    -0.0000340
  C       -1.2346770     0.6647280    -0.0000250
  C       -0.0376783     1.2791250     0.0000344
  C        1.2605820    -0.7608720     0.0000310
  C       -1.2542960    -0.7955090    -0.0000670
  C        2.4310003     1.3833997     0.0001239
  C       -2.5504790     1.3758010    -0.0000570
  H        0.0516650     2.3739750     0.0000690
  H        0.0461780    -2.3935470    -0.0000610
  H        2.4800130     2.0209940     0.8935150
  H        2.4798690     2.0213500    -0.8930780
  H        3.2466700     0.6823050    -0.0000520
  H       -3.1375530     1.0948740    -0.8785960
  H       -2.4103180     2.4605130    -0.0000230
  H       -3.1376190     1.0948280     0.8784230
units angstrom
no_reorient  #important for SAPT in psi4, default
symmetry c1  #important for SAPT in psi4, default
}

set PROPERTIES_ORIGIN ["COM"]
properties('MP2/aug-cc-pvtz', properties = ['dipole'])
--------------------------------------------------------------------------

    Molecular point group: c1
  Charge       = 0
  Multiplicity = 1
  Basis Set: AUG-CC-PVTZ
    Blend: AUG-CC-PVTZ
  Basis Set: (AUG-CC-PVTZ AUX)
    Blend: AUG-CC-PVTZ-JKFIT

    Orbital Energies [Eh]
    ---------------------

    Doubly Occupied:

       1A    -20.540322     2A    -20.538748     3A    -15.637920
       4A    -15.624496     5A    -11.413180     6A    -11.376279
       7A    -11.324409     8A    -11.286299     9A    -11.258722
      10A    -11.237480    11A     -1.424132    12A     -1.387141
      13A     -1.306751    14A     -1.242779    15A     -1.111097
      16A     -0.993586    17A     -0.963285    18A     -0.913550
      19A     -0.853647    20A     -0.771429    21A     -0.734813
      22A     -0.689952    23A     -0.681529    24A     -0.649611
      25A     -0.637463    26A     -0.614273    27A     -0.609833
      28A     -0.590410    29A     -0.583995    30A     -0.557008
      31A     -0.548887    32A     -0.542829    33A     -0.487891
      34A     -0.474896    35A     -0.444374    36A     -0.430593
      37A     -0.347416

  @DF-RHF Final Energy:  -490.71214712042553

   => Energetics <=

    Nuclear Repulsion Energy =            530.5975915163807031
    One-Electron Energy =               -1720.9574259161661303
    Two-Electron Energy =                 699.6476872793600705
    Total Energy =                       -490.7121471204254703
  Basis Set: (AUG-CC-PVTZ AUX)
    Blend: AUG-CC-PVTZ-RI
    Molecular point group: c1

    Geometry (in Angstrom), charge = 0, multiplicity = 1:

       Center              X                  Y                   Z               Mass
    ------------   -----------------  -----------------  -----------------  -----------------
         O            2.308356374888    -1.330374436602     0.000059366733    15.994914619570
         O           -2.274685625112    -1.422263436602    -0.000129633267    15.994914619570
         N            1.179805374888     0.693531563398     0.000056366733    14.003074004430
         N            0.012538374888    -1.308158436602    -0.000032633267    14.003074004430
         C           -1.237479625112     0.732753563398    -0.000023633267    12.000000000000
         C           -0.040480925112     1.347150563398     0.000035766733    12.000000000000
         C            1.257779374888    -0.692846436602     0.000032366733    12.000000000000
         C           -1.257098625112    -0.727483436602    -0.000065633267    12.000000000000
         C            2.428197674888     1.451425263398     0.000125266733    12.000000000000
         C           -2.553281625112     1.443826563398    -0.000055633267    12.000000000000
         H            0.048862374888     2.442000563398     0.000070366733     1.007825032230
         H            0.043375374888    -2.325521436602    -0.000059633267     1.007825032230
         H            2.477210374888     2.089019563398     0.893516366733     1.007825032230
         H            2.477066374888     2.089375563398    -0.893076633267     1.007825032230
         H            3.243867374888     0.750330563398    -0.000050633267     1.007825032230
         H           -3.140355625112     1.162899563398    -0.878594633267     1.007825032230
         H           -2.413120625112     2.528538563398    -0.000021633267     1.007825032230
         H           -3.140421625112     1.162853563398     0.878424366733     1.007825032230

  Basis Set: AUG-CC-PVTZ
    Blend: AUG-CC-PVTZ
  Basis Set: (AUG-CC-PVTZ AUX)
    Blend: AUG-CC-PVTZ-JKFIT
	 Reference Energy          =    -490.7121471204255272 [Eh]
	 Singles Energy            =      -0.0000000000000000 [Eh]
	 Same-Spin Energy          =      -0.5022353047137904 [Eh]
	 Opposite-Spin Energy      =      -1.5411727041180738 [Eh]
	 Correlation Energy        =      -2.0434080088318645 [Eh]
	 Total Energy              =    -492.7555551292574023 [Eh]

	 ================> DF-SCS-MP2 Energies <==================
	-----------------------------------------------------------
	 SCS Same-Spin Scale       =       0.3333333333333333 [-]
	 SCS Opposite-Spin Scale   =       1.2000000000000000 [-]
	 SCS Same-Spin Energy      =      -0.1674117682379301 [Eh]
	 SCS Opposite-Spin Energy  =      -1.8494072449416885 [Eh]
	 SCS Correlation Energy    =      -2.0168190131796186 [Eh]
	 SCS Total Energy          =    -492.7289661336051267 [Eh]
	-----------------------------------------------------------

  Dipole Moment: [D]
     X:     1.0387      Y:     4.5111      Z:     0.0002     Total:     4.6292

*** Psi4 exiting successfully. Buy a developer a beer!
