                               Psi4 1.3.2 release

  ==> Input File <==

--------------------------------------------------------------------------
#psi4
#
memory 32 gb

molecule  {
0 1
  O        2.3111590    -1.3984000     0.0000580
  O       -2.2718830    -1.4902890    -0.0001310
  N        1.1826080     0.6255060     0.0000550
  N        0.0153410    -1.3761840    -0.0000340
  C       -1.2346770     0.6647280    -0.0000250
  C       -0.0260852     1.3003224     0.0000354
  C        1.2726773    -0.7601388     0.0000313
  C       -1.2542960    -0.7955090    -0.0000670
  C        2.4243390     1.3942650     0.0001240
  C       -2.5504790     1.3758010    -0.0000570
  H        0.0516650     2.3739750     0.0000690
  H        0.0461780    -2.3935470    -0.0000610
  H        2.4800130     2.0209940     0.8935150
  H        2.4798690     2.0213500    -0.8930780
  H        3.2466700     0.6823050    -0.0000520
  H       -3.1375530     1.0948740    -0.8785960
  H       -2.4103180     2.4605130    -0.0000230
  H       -3.1376190     1.0948280     0.8784230
units angstrom
no_reorient  #important for SAPT in psi4, default
symmetry c1  #important for SAPT in psi4, default
}

set PROPERTIES_ORIGIN ["COM"]
properties('MP2/aug-cc-pvtz', properties = ['dipole'])
--------------------------------------------------------------------------

    Molecular point group: c1
  Charge       = 0
  Multiplicity = 1
  Basis Set: AUG-CC-PVTZ
    Blend: AUG-CC-PVTZ
  Basis Set: (AUG-CC-PVTZ AUX)
    Blend: AUG-CC-PVTZ-JKFIT

    Orbital Energies [Eh]
    ---------------------

    Doubly Occupied:

       1A    -20.543422     2A    -20.537206     3A    -15.638068
       4A    -15.622652     5A    -11.414328     6A    -11.375059
       7A    -11.325380     8A    -11.285815     9A    -11.260307
      10A    -11.236457    11A     -1.427950    12A     -1.387067
      13A     -1.308457    14A     -1.239716    15A     -1.106767
      16A     -0.992455    17A     -0.964037    18A     -0.913765
      19A     -0.849795    20A     -0.769679    21A     -0.733070
      22A     -0.695164    23A     -0.682076    24A     -0.649041
      25A     -0.641172    26A     -0.614783    27A     -0.610075
      28A     -0.588402    29A     -0.584065    30A     -0.555021
      31A     -0.546976    32A     -0.543992    33A     -0.488142
      34A     -0.477991    35A     -0.443577    36A     -0.430005
      37A     -0.344140

  @DF-RHF Final Energy:  -490.71141189099330

   => Energetics <=

    Nuclear Repulsion Energy =            530.1331312616374589
    One-Electron Energy =               -1720.0369437820529583
    Two-Electron Energy =                 699.1924006294223091
    Total Energy =                       -490.7114118909933040
  Basis Set: (AUG-CC-PVTZ AUX)
    Blend: AUG-CC-PVTZ-RI
    Molecular point group: c1

    Geometry (in Angstrom), charge = 0, multiplicity = 1:

       Center              X                  Y                   Z               Mass
    ------------   -----------------  -----------------  -----------------  -----------------
         O            2.306897519574    -1.333184338052     0.000059246783    15.994914619570
         O           -2.276144480426    -1.425073338052    -0.000129753217    15.994914619570
         N            1.178346519574     0.690721661948     0.000056246783    14.003074004430
         N            0.011079519574    -1.310968338052    -0.000032753217    14.003074004430
         C           -1.238938480426     0.729943661948    -0.000023753217    12.000000000000
         C           -0.030346680426     1.365538061948     0.000036646783    12.000000000000
         C            1.268415819574    -0.694923138052     0.000032546783    12.000000000000
         C           -1.258557480426    -0.730293338052    -0.000065753217    12.000000000000
         C            2.420077519574     1.459480661948     0.000125246783    12.000000000000
         C           -2.554740480426     1.441016661948    -0.000055753217    12.000000000000
         H            0.047403519574     2.439190661948     0.000070246783     1.007825032230
         H            0.041916519574    -2.328331338052    -0.000059753217     1.007825032230
         H            2.475751519574     2.086209661948     0.893516246783     1.007825032230
         H            2.475607519574     2.086565661948    -0.893076753217     1.007825032230
         H            3.242408519574     0.747520661948    -0.000050753217     1.007825032230
         H           -3.141814480426     1.160089661948    -0.878594753217     1.007825032230
         H           -2.414579480426     2.525728661948    -0.000021753217     1.007825032230
         H           -3.141880480426     1.160043661948     0.878424246783     1.007825032230

  Basis Set: AUG-CC-PVTZ
    Blend: AUG-CC-PVTZ
  Basis Set: (AUG-CC-PVTZ AUX)
    Blend: AUG-CC-PVTZ-JKFIT
	 Reference Energy          =    -490.7114118909933040 [Eh]
	 Singles Energy            =      -0.0000000000000000 [Eh]
	 Same-Spin Energy          =      -0.5023859498559068 [Eh]
	 Opposite-Spin Energy      =      -1.5415450863862210 [Eh]
	 Correlation Energy        =      -2.0439310362421277 [Eh]
	 Total Energy              =    -492.7553429272354037 [Eh]

	 ================> DF-SCS-MP2 Energies <==================
	-----------------------------------------------------------
	 SCS Same-Spin Scale       =       0.3333333333333333 [-]
	 SCS Opposite-Spin Scale   =       1.2000000000000000 [-]
	 SCS Same-Spin Energy      =      -0.1674619832853023 [Eh]
	 SCS Opposite-Spin Energy  =      -1.8498541036634650 [Eh]
	 SCS Correlation Energy    =      -2.0173160869487674 [Eh]
	 SCS Total Energy          =    -492.7287279779420714 [Eh]
	-----------------------------------------------------------

  Dipole Moment: [D]
     X:     1.1592      Y:     4.5116      Z:     0.0002     Total:     4.6581

*** Psi4 exiting successfully. Buy a developer a beer!
