                               Psi4 1.4a3.dev225

  ==> Input File <==

--------------------------------------------------------------------------
#psi4
#
memory 32 gb

molecule  {
0 1
  O        2.3212770    -1.3580180     0.0000020
  O       -2.2717460    -1.4962290     0.0000010
  N        1.1724310     0.6334210    -0.0000020
  N        0.0162060    -1.3769820    -0.0000020
  C       -1.2398930     0.6613320     0.0000000
  C       -0.0398910     1.2934770    -0.0000010
  C        1.2527440    -0.7526170    -0.0000010
  C       -1.2589250    -0.7964470     0.0000000
  C        2.4012579     1.3273830     0.0000009
  C       -2.5550880     1.3760200     0.0000010
  H        0.0310140     2.3780990    -0.0000010
  H        0.0457120    -2.3937650    -0.0000010
  H        2.2343430     2.4214070    -0.0000200
  H        3.0241620     1.0875710    -0.8862110
  H        3.0241420     1.0876020     0.8862360
  H       -3.1432670     1.0977880    -0.8790540
  H       -2.4120010     2.4600010     0.0000010
  H       -3.1432670     1.0977870     0.8790540
units angstrom
no_reorient  #important for SAPT in psi4, default
symmetry c1  #important for SAPT in psi4, default
}

set PROPERTIES_ORIGIN ["COM"]
properties('MP2/aug-cc-pvtz', properties = ['dipole'])
--------------------------------------------------------------------------

    Molecular point group: c1
  Charge       = 0
  Multiplicity = 1
  Basis Set: AUG-CC-PVTZ
    Blend: AUG-CC-PVTZ
  Basis Set: (AUG-CC-PVTZ AUX)
    Blend: AUG-CC-PVTZ-JKFIT

    Orbital Energies [Eh]
    ---------------------

    Doubly Occupied:

       1A    -20.542896     2A    -20.539443     3A    -15.640004
       4A    -15.626169     5A    -11.413106     6A    -11.377262
       7A    -11.327621     8A    -11.287600     9A    -11.258923
      10A    -11.237511    11A     -1.427873    12A     -1.388767
      13A     -1.313751    14A     -1.247602    15A     -1.111628
      16A     -0.993720    17A     -0.963952    18A     -0.916860
      19A     -0.852641    20A     -0.773853    21A     -0.739336
      22A     -0.695703    23A     -0.686103    24A     -0.658638
      25A     -0.638123    26A     -0.612791    27A     -0.610626
      28A     -0.582844    29A     -0.581171    30A     -0.555632
      31A     -0.549106    32A     -0.538665    33A     -0.488925
      34A     -0.477267    35A     -0.445599    36A     -0.431207
      37A     -0.344900

  @DF-RHF Final Energy:  -490.70974909838071

   => Energetics <=

    Nuclear Repulsion Energy =            531.8274522789099592
    One-Electron Energy =               -1723.3187706384367175
    Two-Electron Energy =                 700.7815692611460463
    Total Energy =                       -490.7097490983807120
  Basis Set: (AUG-CC-PVTZ AUX)
    Blend: AUG-CC-PVTZ-RI
    Molecular point group: c1

    Geometry (in Angstrom), charge = 0, multiplicity = 1:

       Center              X                  Y                   Z               Mass
    ------------   -----------------  -----------------  -----------------  -----------------
         O            2.322580320121    -1.290567401013     0.000002037101    15.994914619570
         O           -2.270442679879    -1.428778401013     0.000001037101    15.994914619570
         N            1.173734320121     0.700871598987    -0.000001962899    14.003074004430
         N            0.017509320121    -1.309531401013    -0.000001962899    14.003074004430
         C           -1.238589679879     0.728782598987     0.000000037101    12.000000000000
         C           -0.038587679879     1.360927598987    -0.000000962899    12.000000000000
         C            1.254047320121    -0.685166401013    -0.000000962899    12.000000000000
         C           -1.257621679879    -0.728996401013     0.000000037101    12.000000000000
         C            2.402561220121     1.394833598987     0.000000937101    12.000000000000
         C           -2.553784679879     1.443470598987     0.000001037101    12.000000000000
         H            0.032317320121     2.445549598987    -0.000000962899     1.007825032230
         H            0.047015320121    -2.326314401013    -0.000000962899     1.007825032230
         H            2.235646320121     2.488857598987    -0.000019962899     1.007825032230
         H            3.025465320121     1.155021598987    -0.886210962899     1.007825032230
         H            3.025445320121     1.155052598987     0.886236037101     1.007825032230
         H           -3.141963679879     1.165238598987    -0.879053962899     1.007825032230
         H           -2.410697679879     2.527451598987     0.000001037101     1.007825032230
         H           -3.141963679879     1.165237598987     0.879054037101     1.007825032230

  Basis Set: AUG-CC-PVTZ
    Blend: AUG-CC-PVTZ
  Basis Set: (AUG-CC-PVTZ AUX)
    Blend: AUG-CC-PVTZ-JKFIT
	 Reference Energy          =    -490.7097490983807120 [Eh]
	 Singles Energy            =      -0.0000000000000000 [Eh]
	 Same-Spin Energy          =      -0.5027936808686861 [Eh]
	 Opposite-Spin Energy      =      -1.5416310731886809 [Eh]
	 Correlation Energy        =      -2.0444247540573670 [Eh]
	 Total Energy              =    -492.7541738524381003 [Eh]

	 ================> DF-SCS-MP2 Energies <==================
	-----------------------------------------------------------
	 SCS Same-Spin Scale       =       0.3333333333333333 [-]
	 SCS Opposite-Spin Scale   =       1.2000000000000000 [-]
	 SCS Same-Spin Energy      =      -0.1675978936228954 [Eh]
	 SCS Opposite-Spin Energy  =      -1.8499572878264170 [Eh]
	 SCS Correlation Energy    =      -2.0175551814493122 [Eh]
	 SCS Total Energy          =    -492.7273042798300366 [Eh]
	-----------------------------------------------------------

  Dipole Moment: [D]
     X:     0.9458      Y:     4.4214      Z:    -0.0000     Total:     4.5214

*** Psi4 exiting successfully. Buy a developer a beer!
