                               Psi4 1.3.2 release

  ==> Input File <==

--------------------------------------------------------------------------
#psi4
#
memory 32 gb

molecule  {
0 1
  O        2.3111590    -1.3984000     0.0000580
  O       -2.2718830    -1.4902890    -0.0001310
  N        1.1826080     0.6255060     0.0000550
  N        0.0153410    -1.3761840    -0.0000340
  C       -1.2346770     0.6647280    -0.0000250
  C       -0.0319280     1.2897490     0.0000350
  C        1.4315628    -0.8646293     0.0000354
  C       -1.2542960    -0.7955090    -0.0000670
  C        2.4243390     1.3942650     0.0001240
  C       -2.5504790     1.3758010    -0.0000570
  H        0.0516650     2.3739750     0.0000690
  H        0.0461780    -2.3935470    -0.0000610
  H        2.4800130     2.0209940     0.8935150
  H        2.4798690     2.0213500    -0.8930780
  H        3.2466700     0.6823050    -0.0000520
  H       -3.1375530     1.0948740    -0.8785960
  H       -2.4103180     2.4605130    -0.0000230
  H       -3.1376190     1.0948280     0.8784230
units angstrom
no_reorient  #important for SAPT in psi4, default
symmetry c1  #important for SAPT in psi4, default
}

set PROPERTIES_ORIGIN ["COM"]
properties('MP2/aug-cc-pvtz', properties = ['dipole'])
--------------------------------------------------------------------------

    Molecular point group: c1
  Charge       = 0
  Multiplicity = 1
  Basis Set: AUG-CC-PVTZ
    Blend: AUG-CC-PVTZ
  Basis Set: (AUG-CC-PVTZ AUX)
    Blend: AUG-CC-PVTZ-JKFIT

    Orbital Energies [Eh]
    ---------------------

    Doubly Occupied:

       1A    -20.599495     2A    -20.522222     3A    -15.613780
       4A    -15.599542     5A    -11.416237     6A    -11.361398
       7A    -11.312209     8A    -11.277297     9A    -11.240401
      10A    -11.224856    11A     -1.585625    12A     -1.375598
      13A     -1.285567    14A     -1.205839    15A     -1.092581
      16A     -0.976280    17A     -0.934747    18A     -0.893801
      19A     -0.832995    20A     -0.769249    21A     -0.753004
      22A     -0.709916    23A     -0.704267    24A     -0.661207
      25A     -0.633338    26A     -0.627049    27A     -0.618803
      28A     -0.593677    29A     -0.582820    30A     -0.547001
      31A     -0.545747    32A     -0.538306    33A     -0.483749
      34A     -0.481157    35A     -0.431451    36A     -0.419855
      37A     -0.328393

  @DF-RHF Final Energy:  -490.62794218220500

   => Energetics <=

    Nuclear Repulsion Energy =            529.7508781692810089
    One-Electron Energy =               -1719.1987228461312043
    Two-Electron Energy =                 698.8199024946452482
    Total Energy =                       -490.6279421822050608
  Basis Set: (AUG-CC-PVTZ AUX)
    Blend: AUG-CC-PVTZ-RI
    Molecular point group: c1

    Geometry (in Angstrom), charge = 0, multiplicity = 1:

       Center              X                  Y                   Z               Mass
    ------------   -----------------  -----------------  -----------------  -----------------
         O            2.293785060254    -1.323325842952     0.000058929773    15.994914619570
         O           -2.289256939746    -1.415214842952    -0.000130070227    15.994914619570
         N            1.165234060254     0.700580157048     0.000055929773    14.003074004430
         N           -0.002032939746    -1.301109842952    -0.000033070227    14.003074004430
         C           -1.252050939746     0.739802157048    -0.000024070227    12.000000000000
         C           -0.049301939746     1.364823157048     0.000035929773    12.000000000000
         C            1.414188860254    -0.789555142952     0.000036329773    12.000000000000
         C           -1.271669939746    -0.720434842952    -0.000066070227    12.000000000000
         C            2.406965060254     1.469339157048     0.000124929773    12.000000000000
         C           -2.567852939746     1.450875157048    -0.000056070227    12.000000000000
         H            0.034291060254     2.449049157048     0.000069929773     1.007825032230
         H            0.028804060254    -2.318472842952    -0.000060070227     1.007825032230
         H            2.462639060254     2.096068157048     0.893515929773     1.007825032230
         H            2.462495060254     2.096424157048    -0.893077070227     1.007825032230
         H            3.229296060254     0.757379157048    -0.000051070227     1.007825032230
         H           -3.154926939746     1.169948157048    -0.878595070227     1.007825032230
         H           -2.427691939746     2.535587157048    -0.000022070227     1.007825032230
         H           -3.154992939746     1.169902157048     0.878423929773     1.007825032230

  Basis Set: AUG-CC-PVTZ
    Blend: AUG-CC-PVTZ
  Basis Set: (AUG-CC-PVTZ AUX)
    Blend: AUG-CC-PVTZ-JKFIT
	 Reference Energy          =    -490.6279421822050040 [Eh]
	 Singles Energy            =      -0.0000000000000000 [Eh]
	 Same-Spin Energy          =      -0.4998978399297292 [Eh]
	 Opposite-Spin Energy      =      -1.5372281513859110 [Eh]
	 Correlation Energy        =      -2.0371259913156403 [Eh]
	 Total Energy              =    -492.6650681735206376 [Eh]

	 ================> DF-SCS-MP2 Energies <==================
	-----------------------------------------------------------
	 SCS Same-Spin Scale       =       0.3333333333333333 [-]
	 SCS Opposite-Spin Scale   =       1.2000000000000000 [-]
	 SCS Same-Spin Energy      =      -0.1666326133099097 [Eh]
	 SCS Opposite-Spin Energy  =      -1.8446737816630931 [Eh]
	 SCS Correlation Energy    =      -2.0113063949730030 [Eh]
	 SCS Total Energy          =    -492.6392485771780230 [Eh]
	-----------------------------------------------------------

  Dipole Moment: [D]
     X:     3.0509      Y:     3.2746      Z:     0.0002     Total:     4.4756

*** Psi4 exiting successfully. Buy a developer a beer!
