                               Psi4 1.4a3.dev225

  ==> Input File <==

--------------------------------------------------------------------------
#psi4
#
memory 32 gb

molecule  {
0 1
  O        2.3212770    -1.3580180     0.0000020
  O       -2.2717460    -1.4962290     0.0000010
  N        1.1724310     0.6334210    -0.0000020
  N        0.0162060    -1.3769820    -0.0000020
  C       -1.2398930     0.6613320     0.0000000
  C       -0.0398910     1.2934770    -0.0000010
  C        1.2527440    -0.7526170    -0.0000010
  C       -1.2589250    -0.7964470     0.0000000
  C        2.4883321     1.3765570     0.0000011
  C       -2.5550880     1.3760200     0.0000010
  H        0.0310140     2.3780990    -0.0000010
  H        0.0457120    -2.3937650    -0.0000010
  H        2.2343430     2.4214070    -0.0000200
  H        3.0241620     1.0875710    -0.8862110
  H        3.0241420     1.0876020     0.8862360
  H       -3.1432670     1.0977880    -0.8790540
  H       -2.4120010     2.4600010     0.0000010
  H       -3.1432670     1.0977870     0.8790540
units angstrom
no_reorient  #important for SAPT in psi4, default
symmetry c1  #important for SAPT in psi4, default
}

set PROPERTIES_ORIGIN ["COM"]
properties('MP2/aug-cc-pvtz', properties = ['dipole'])
--------------------------------------------------------------------------

    Molecular point group: c1
  Charge       = 0
  Multiplicity = 1
  Basis Set: AUG-CC-PVTZ
    Blend: AUG-CC-PVTZ
  Basis Set: (AUG-CC-PVTZ AUX)
    Blend: AUG-CC-PVTZ-JKFIT

    Orbital Energies [Eh]
    ---------------------

    Doubly Occupied:

       1A    -20.539422     2A    -20.536670     3A    -15.636691
       4A    -15.623535     5A    -11.409926     6A    -11.374574
       7A    -11.325217     8A    -11.290781     9A    -11.255475
      10A    -11.235436    11A     -1.422299    12A     -1.385819
      13A     -1.300490    14A     -1.239579    15A     -1.105947
      16A     -0.994570    17A     -0.960952    18A     -0.912828
      19A     -0.852877    20A     -0.768038    21A     -0.731940
      22A     -0.692017    23A     -0.680849    24A     -0.642696
      25A     -0.635391    26A     -0.616115    27A     -0.607294
      28A     -0.597527    29A     -0.581501    30A     -0.557747
      31A     -0.546124    32A     -0.541453    33A     -0.493592
      34A     -0.473850    35A     -0.442901    36A     -0.429353
      37A     -0.342613

  @DF-RHF Final Energy:  -490.71065028071297

   => Energetics <=

    Nuclear Repulsion Energy =            529.7084051131608931
    One-Electron Energy =               -1719.2699315665101949
    Two-Electron Energy =                 698.8508761726363900
    Total Energy =                       -490.7106502807130255
  Basis Set: (AUG-CC-PVTZ AUX)
    Blend: AUG-CC-PVTZ-RI
    Molecular point group: c1

    Geometry (in Angstrom), charge = 0, multiplicity = 1:

       Center              X                  Y                   Z               Mass
    ------------   -----------------  -----------------  -----------------  -----------------
         O            2.315119938767    -1.294780552471     0.000002019965    15.994914619570
         O           -2.277903061233    -1.432991552471     0.000001019965    15.994914619570
         N            1.166273938767     0.696658447529    -0.000001980035    14.003074004430
         N            0.010048938767    -1.313744552471    -0.000001980035    14.003074004430
         C           -1.246050061233     0.724569447529     0.000000019965    12.000000000000
         C           -0.046048061233     1.356714447529    -0.000000980035    12.000000000000
         C            1.246586938767    -0.689379552471    -0.000000980035    12.000000000000
         C           -1.265082061233    -0.733209552471     0.000000019965    12.000000000000
         C            2.482175038767     1.439794447529     0.000001119965    12.000000000000
         C           -2.561245061233     1.439257447529     0.000001019965    12.000000000000
         H            0.024856938767     2.441336447529    -0.000000980035     1.007825032230
         H            0.039554938767    -2.330527552471    -0.000000980035     1.007825032230
         H            2.228185938767     2.484644447529    -0.000019980035     1.007825032230
         H            3.018004938767     1.150808447529    -0.886210980035     1.007825032230
         H            3.017984938767     1.150839447529     0.886236019965     1.007825032230
         H           -3.149424061233     1.161025447529    -0.879053980035     1.007825032230
         H           -2.418158061233     2.523238447529     0.000001019965     1.007825032230
         H           -3.149424061233     1.161024447529     0.879054019965     1.007825032230

  Basis Set: AUG-CC-PVTZ
    Blend: AUG-CC-PVTZ
  Basis Set: (AUG-CC-PVTZ AUX)
    Blend: AUG-CC-PVTZ-JKFIT
	 Reference Energy          =    -490.7106502807129687 [Eh]
	 Singles Energy            =      -0.0000000000000000 [Eh]
	 Same-Spin Energy          =      -0.5021080121906013 [Eh]
	 Opposite-Spin Energy      =      -1.5412595643512041 [Eh]
	 Correlation Energy        =      -2.0433675765418053 [Eh]
	 Total Energy              =    -492.7540178572547802 [Eh]

	 ================> DF-SCS-MP2 Energies <==================
	-----------------------------------------------------------
	 SCS Same-Spin Scale       =       0.3333333333333333 [-]
	 SCS Opposite-Spin Scale   =       1.2000000000000000 [-]
	 SCS Same-Spin Energy      =      -0.1673693373968671 [Eh]
	 SCS Opposite-Spin Energy  =      -1.8495114772214449 [Eh]
	 SCS Correlation Energy    =      -2.0168808146183119 [Eh]
	 SCS Total Energy          =    -492.7275310953313010 [Eh]
	-----------------------------------------------------------

  Dipole Moment: [D]
     X:     1.2411      Y:     4.5985      Z:    -0.0000     Total:     4.7630

*** Psi4 exiting successfully. Buy a developer a beer!
