                               Psi4 1.3.2 release

  ==> Input File <==

--------------------------------------------------------------------------
#psi4
#
memory 32 gb

molecule  {
0 1
  O        2.3111590    -1.3984000     0.0000580
  O       -2.2718830    -1.4902890    -0.0001310
  N        1.1826080     0.6255060     0.0000550
  N        0.0252818    -1.3539373    -0.0000330
  C       -1.2091953     0.6641632    -0.0000240
  C       -0.0319280     1.2897490     0.0000350
  C        1.2605820    -0.7608720     0.0000310
  C       -1.2542960    -0.7955090    -0.0000670
  C        2.4243390     1.3942650     0.0001240
  C       -2.5504790     1.3758010    -0.0000570
  H        0.0516650     2.3739750     0.0000690
  H        0.0461780    -2.3935470    -0.0000610
  H        2.4800130     2.0209940     0.8935150
  H        2.4798690     2.0213500    -0.8930780
  H        3.2466700     0.6823050    -0.0000520
  H       -3.1375530     1.0948740    -0.8785960
  H       -2.4103180     2.4605130    -0.0000230
  H       -3.1376190     1.0948280     0.8784230
units angstrom
no_reorient  #important for SAPT in psi4, default
symmetry c1  #important for SAPT in psi4, default
}

set PROPERTIES_ORIGIN ["COM"]
properties('MP2/aug-cc-pvtz', properties = ['dipole'])
--------------------------------------------------------------------------

    Molecular point group: c1
  Charge       = 0
  Multiplicity = 1
  Basis Set: AUG-CC-PVTZ
    Blend: AUG-CC-PVTZ
  Basis Set: (AUG-CC-PVTZ AUX)
    Blend: AUG-CC-PVTZ-JKFIT

    Orbital Energies [Eh]
    ---------------------

    Doubly Occupied:

       1A    -20.542325     2A    -20.538572     3A    -15.635514
       4A    -15.626269     5A    -11.411532     6A    -11.378742
       7A    -11.321499     8A    -11.284570     9A    -11.257390
      10A    -11.238111    11A     -1.425060    12A     -1.388338
      13A     -1.307319    14A     -1.244916    15A     -1.110383
      16A     -0.991750    17A     -0.963181    18A     -0.914621
      19A     -0.857135    20A     -0.772342    21A     -0.729532
      22A     -0.691981    23A     -0.683032    24A     -0.649509
      25A     -0.638125    26A     -0.615978    27A     -0.609756
      28A     -0.586444    29A     -0.583059    30A     -0.549990
      31A     -0.547702    32A     -0.543410    33A     -0.489062
      34A     -0.474838    35A     -0.446292    36A     -0.431899
      37A     -0.349318

  @DF-RHF Final Energy:  -490.71039978406253

   => Energetics <=

    Nuclear Repulsion Energy =            531.0861131100157309
    One-Electron Energy =               -1721.9340309450562927
    Two-Electron Energy =                 700.1375180509780876
    Total Energy =                       -490.7103997840624743
  Basis Set: (AUG-CC-PVTZ AUX)
    Blend: AUG-CC-PVTZ-RI
    Molecular point group: c1

    Geometry (in Angstrom), charge = 0, multiplicity = 1:

       Center              X                  Y                   Z               Mass
    ------------   -----------------  -----------------  -----------------  -----------------
         O            2.305257313297    -1.334391442889     0.000059121100    15.994914619570
         O           -2.277784686703    -1.426280442889    -0.000129878900    15.994914619570
         N            1.176706313297     0.689514557111     0.000056121100    14.003074004430
         N            0.019380113297    -1.289928742889    -0.000031878900    14.003074004430
         C           -1.215096986703     0.728171757111    -0.000022878900    12.000000000000
         C           -0.037829686703     1.353757557111     0.000036121100    12.000000000000
         C            1.254680313297    -0.696863442889     0.000032121100    12.000000000000
         C           -1.260197686703    -0.731500442889    -0.000065878900    12.000000000000
         C            2.418437313297     1.458273557111     0.000125121100    12.000000000000
         C           -2.556380686703     1.439809557111    -0.000055878900    12.000000000000
         H            0.045763313297     2.437983557111     0.000070121100     1.007825032230
         H            0.040276313297    -2.329538442889    -0.000059878900     1.007825032230
         H            2.474111313297     2.085002557111     0.893516121100     1.007825032230
         H            2.473967313297     2.085358557111    -0.893076878900     1.007825032230
         H            3.240768313297     0.746313557111    -0.000050878900     1.007825032230
         H           -3.143454686703     1.158882557111    -0.878594878900     1.007825032230
         H           -2.416219686703     2.524521557111    -0.000021878900     1.007825032230
         H           -3.143520686703     1.158836557111     0.878424121100     1.007825032230

  Basis Set: AUG-CC-PVTZ
    Blend: AUG-CC-PVTZ
  Basis Set: (AUG-CC-PVTZ AUX)
    Blend: AUG-CC-PVTZ-JKFIT
	 Reference Energy          =    -490.7103997840625311 [Eh]
	 Singles Energy            =      -0.0000000000000000 [Eh]
	 Same-Spin Energy          =      -0.5024153905719380 [Eh]
	 Opposite-Spin Energy      =      -1.5413671304709886 [Eh]
	 Correlation Energy        =      -2.0437825210429263 [Eh]
	 Total Energy              =    -492.7541823051054735 [Eh]

	 ================> DF-SCS-MP2 Energies <==================
	-----------------------------------------------------------
	 SCS Same-Spin Scale       =       0.3333333333333333 [-]
	 SCS Opposite-Spin Scale   =       1.2000000000000000 [-]
	 SCS Same-Spin Energy      =      -0.1674717968573126 [Eh]
	 SCS Opposite-Spin Energy  =      -1.8496405565651863 [Eh]
	 SCS Correlation Energy    =      -2.0171123534224988 [Eh]
	 SCS Total Energy          =    -492.7275121374850073 [Eh]
	-----------------------------------------------------------

  Dipole Moment: [D]
     X:     0.9619      Y:     4.4599      Z:     0.0002     Total:     4.5624

*** Psi4 exiting successfully. Buy a developer a beer!
