                               Psi4 1.3.2 release

  ==> Input File <==

--------------------------------------------------------------------------
#psi4
#
memory 32 gb

molecule  {
0 1
  O        2.3111590    -1.3984000     0.0000580
  O       -2.2718830    -1.4902890    -0.0001310
  N        1.1826080     0.6255060     0.0000550
  N        0.0153410    -1.3761840    -0.0000340
  C       -1.2346770     0.6647280    -0.0000250
  C       -0.0543699     1.2469577     0.0000336
  C        1.2121506    -0.7627487     0.0000297
  C       -1.2542960    -0.7955090    -0.0000670
  C        2.4243390     1.3942650     0.0001240
  C       -2.5504790     1.3758010    -0.0000570
  H        0.0516650     2.3739750     0.0000690
  H        0.0461780    -2.3935470    -0.0000610
  H        2.4800130     2.0209940     0.8935150
  H        2.4798690     2.0213500    -0.8930780
  H        3.2466700     0.6823050    -0.0000520
  H       -3.1375530     1.0948740    -0.8785960
  H       -2.4103180     2.4605130    -0.0000230
  H       -3.1376190     1.0948280     0.8784230
units angstrom
no_reorient  #important for SAPT in psi4, default
symmetry c1  #important for SAPT in psi4, default
}

set PROPERTIES_ORIGIN ["COM"]
properties('MP2/aug-cc-pvtz', properties = ['dipole'])
--------------------------------------------------------------------------

    Molecular point group: c1
  Charge       = 0
  Multiplicity = 1
  Basis Set: AUG-CC-PVTZ
    Blend: AUG-CC-PVTZ
  Basis Set: (AUG-CC-PVTZ AUX)
    Blend: AUG-CC-PVTZ-JKFIT

    Orbital Energies [Eh]
    ---------------------

    Doubly Occupied:

       1A    -20.544096     2A    -20.528891     3A    -15.638984
       4A    -15.632211     5A    -11.411160     6A    -11.380876
       7A    -11.323375     8A    -11.286706     9A    -11.257303
      10A    -11.239942    11A     -1.417957    12A     -1.383171
      13A     -1.296972    14A     -1.255285    15A     -1.118509
      16A     -0.996121    17A     -0.964450    18A     -0.915596
      19A     -0.864818    20A     -0.776004    21A     -0.742358
      22A     -0.683824    23A     -0.681873    24A     -0.654526
      25A     -0.622360    26A     -0.619473    27A     -0.607022
      28A     -0.590517    29A     -0.585338    30A     -0.555089
      31A     -0.552001    32A     -0.540136    33A     -0.488570
      34A     -0.464727    35A     -0.445663    36A     -0.430861
      37A     -0.352793

  @DF-RHF Final Energy:  -490.70479338950565

   => Energetics <=

    Nuclear Repulsion Energy =            531.4234489826892514
    One-Electron Energy =               -1722.5573624468727303
    Two-Electron Energy =                 700.4291200746778259
    Total Energy =                       -490.7047933895056531
  Basis Set: (AUG-CC-PVTZ AUX)
    Blend: AUG-CC-PVTZ-RI
    Molecular point group: c1

    Geometry (in Angstrom), charge = 0, multiplicity = 1:

       Center              X                  Y                   Z               Mass
    ------------   -----------------  -----------------  -----------------  -----------------
         O            2.314506741508    -1.328388521816     0.000059538090    15.994914619570
         O           -2.268535258492    -1.420277521816    -0.000129461910    15.994914619570
         N            1.185955741508     0.695517478184     0.000056538090    14.003074004430
         N            0.018688741508    -1.306172521816    -0.000032461910    14.003074004430
         C           -1.231329258492     0.734739478184    -0.000023461910    12.000000000000
         C           -0.051022158492     1.316969178184     0.000035138090    12.000000000000
         C            1.215498341508    -0.692737221816     0.000031238090    12.000000000000
         C           -1.250948258492    -0.725497521816    -0.000065461910    12.000000000000
         C            2.427686741508     1.464276478184     0.000125538090    12.000000000000
         C           -2.547131258492     1.445812478184    -0.000055461910    12.000000000000
         H            0.055012741508     2.443986478184     0.000070538090     1.007825032230
         H            0.049525741508    -2.323535521816    -0.000059461910     1.007825032230
         H            2.483360741508     2.091005478184     0.893516538090     1.007825032230
         H            2.483216741508     2.091361478184    -0.893076461910     1.007825032230
         H            3.250017741508     0.752316478184    -0.000050461910     1.007825032230
         H           -3.134205258492     1.164885478184    -0.878594461910     1.007825032230
         H           -2.406970258492     2.530524478184    -0.000021461910     1.007825032230
         H           -3.134271258492     1.164839478184     0.878424538090     1.007825032230

  Basis Set: AUG-CC-PVTZ
    Blend: AUG-CC-PVTZ
  Basis Set: (AUG-CC-PVTZ AUX)
    Blend: AUG-CC-PVTZ-JKFIT
	 Reference Energy          =    -490.7047933895056531 [Eh]
	 Singles Energy            =      -0.0000000000000000 [Eh]
	 Same-Spin Energy          =      -0.5025927371258661 [Eh]
	 Opposite-Spin Energy      =      -1.5416280070643911 [Eh]
	 Correlation Energy        =      -2.0442207441902571 [Eh]
	 Total Energy              =    -492.7490141336959368 [Eh]

	 ================> DF-SCS-MP2 Energies <==================
	-----------------------------------------------------------
	 SCS Same-Spin Scale       =       0.3333333333333333 [-]
	 SCS Opposite-Spin Scale   =       1.2000000000000000 [-]
	 SCS Same-Spin Energy      =      -0.1675309123752887 [Eh]
	 SCS Opposite-Spin Energy  =      -1.8499536084772692 [Eh]
	 SCS Correlation Energy    =      -2.0174845208525580 [Eh]
	 SCS Total Energy          =    -492.7222779103582297 [Eh]
	-----------------------------------------------------------

  Dipole Moment: [D]
     X:     0.6016      Y:     4.5562      Z:     0.0001     Total:     4.5957

*** Psi4 exiting successfully. Buy a developer a beer!
