                               Psi4 1.3.2 release

  ==> Input File <==

--------------------------------------------------------------------------
#psi4
#
memory 32 gb

molecule  {
0 1
  O        2.3111590    -1.3984000     0.0000580
  O       -2.2718830    -1.4902890    -0.0001310
  N        1.1826080     0.6255060     0.0000550
  N        0.0153410    -1.3761840    -0.0000340
  C       -1.2346770     0.6647280    -0.0000250
  C       -0.0319280     1.2897490     0.0000350
  C        1.2812975    -0.8047051     0.0000306
  C       -1.2737878    -0.8401724    -0.0000690
  C        2.4243390     1.3942650     0.0001240
  C       -2.5504790     1.3758010    -0.0000570
  H        0.0516650     2.3739750     0.0000690
  H        0.0461780    -2.3935470    -0.0000610
  H        2.4800130     2.0209940     0.8935150
  H        2.4798690     2.0213500    -0.8930780
  H        3.2466700     0.6823050    -0.0000520
  H       -3.1375530     1.0948740    -0.8785960
  H       -2.4103180     2.4605130    -0.0000230
  H       -3.1376190     1.0948280     0.8784230
units angstrom
no_reorient  #important for SAPT in psi4, default
symmetry c1  #important for SAPT in psi4, default
}

set PROPERTIES_ORIGIN ["COM"]
properties('MP2/aug-cc-pvtz', properties = ['dipole'])
--------------------------------------------------------------------------

    Molecular point group: c1
  Charge       = 0
  Multiplicity = 1
  Basis Set: AUG-CC-PVTZ
    Blend: AUG-CC-PVTZ
  Basis Set: (AUG-CC-PVTZ AUX)
    Blend: AUG-CC-PVTZ-JKFIT

    Orbital Energies [Eh]
    ---------------------

    Doubly Occupied:

       1A    -20.551287     2A    -20.545663     3A    -15.626309
       4A    -15.621174     5A    -11.414929     6A    -11.375885
       7A    -11.315289     8A    -11.279857     9A    -11.253381
      10A    -11.232669    11A     -1.444265    12A     -1.416888
      13A     -1.302298    14A     -1.242327    15A     -1.097001
      16A     -0.984669    17A     -0.953945    18A     -0.901776
      19A     -0.852553    20A     -0.762118    21A     -0.725772
      22A     -0.694088    23A     -0.676956    24A     -0.653770
      25A     -0.652945    26A     -0.616458    27A     -0.611459
      28A     -0.585626    29A     -0.582223    30A     -0.554859
      31A     -0.551607    32A     -0.544935    33A     -0.485434
      34A     -0.480768    35A     -0.446017    36A     -0.439123
      37A     -0.336912

  @DF-RHF Final Energy:  -490.70991189282142

   => Energetics <=

    Nuclear Repulsion Energy =            529.8926748874555415
    One-Electron Energy =               -1719.5787050256085422
    Two-Electron Energy =                 698.9761182453315769
    Total Energy =                       -490.7099118928214239
  Basis Set: (AUG-CC-PVTZ AUX)
    Blend: AUG-CC-PVTZ-RI
    Molecular point group: c1

    Geometry (in Angstrom), charge = 0, multiplicity = 1:

       Center              X                  Y                   Z               Mass
    ------------   -----------------  -----------------  -----------------  -----------------
         O            2.308329583241    -1.324633364443     0.000059512386    15.994914619570
         O           -2.274712416759    -1.416522364443    -0.000129487614    15.994914619570
         N            1.179778583241     0.699272635557     0.000056512386    14.003074004430
         N            0.012511583241    -1.302417364443    -0.000032487614    14.003074004430
         C           -1.237506416759     0.738494635557    -0.000023487614    12.000000000000
         C           -0.034757416759     1.363515635557     0.000036512386    12.000000000000
         C            1.278468083241    -0.730938464443     0.000032112386    12.000000000000
         C           -1.276617216759    -0.766405764443    -0.000067487614    12.000000000000
         C            2.421509583241     1.468031635557     0.000125512386    12.000000000000
         C           -2.553308416759     1.449567635557    -0.000055487614    12.000000000000
         H            0.048835583241     2.447741635557     0.000070512386     1.007825032230
         H            0.043348583241    -2.319780364443    -0.000059487614     1.007825032230
         H            2.477183583241     2.094760635557     0.893516512386     1.007825032230
         H            2.477039583241     2.095116635557    -0.893076487614     1.007825032230
         H            3.243840583241     0.756071635557    -0.000050487614     1.007825032230
         H           -3.140382416759     1.168640635557    -0.878594487614     1.007825032230
         H           -2.413147416759     2.534279635557    -0.000021487614     1.007825032230
         H           -3.140448416759     1.168594635557     0.878424512386     1.007825032230

  Basis Set: AUG-CC-PVTZ
    Blend: AUG-CC-PVTZ
  Basis Set: (AUG-CC-PVTZ AUX)
    Blend: AUG-CC-PVTZ-JKFIT
	 Reference Energy          =    -490.7099118928214239 [Eh]
	 Singles Energy            =      -0.0000000000000000 [Eh]
	 Same-Spin Energy          =      -0.5007804775971565 [Eh]
	 Opposite-Spin Energy      =      -1.5386753411412106 [Eh]
	 Correlation Energy        =      -2.0394558187383671 [Eh]
	 Total Energy              =    -492.7493677115597848 [Eh]

	 ================> DF-SCS-MP2 Energies <==================
	-----------------------------------------------------------
	 SCS Same-Spin Scale       =       0.3333333333333333 [-]
	 SCS Opposite-Spin Scale   =       1.2000000000000000 [-]
	 SCS Same-Spin Energy      =      -0.1669268258657188 [Eh]
	 SCS Opposite-Spin Energy  =      -1.8464104093694527 [Eh]
	 SCS Correlation Energy    =      -2.0133372352351717 [Eh]
	 SCS Total Energy          =    -492.7232491280565796 [Eh]
	-----------------------------------------------------------

  Dipole Moment: [D]
     X:     1.0996      Y:     3.8413      Z:     0.0002     Total:     3.9956

*** Psi4 exiting successfully. Buy a developer a beer!
