                               Psi4 1.3.2 release

  ==> Input File <==

--------------------------------------------------------------------------
#psi4
#
memory 32 gb

molecule  {
0 1
  O        2.3111590    -1.3984000     0.0000580
  O       -2.2718830    -1.4902890    -0.0001310
  N        1.1826080     0.6255060     0.0000550
  N        0.0153410    -1.3761840    -0.0000340
  C       -1.2346770     0.6647280    -0.0000250
  C       -0.0662874     1.3518394     0.0000355
  C        1.2605820    -0.7608720     0.0000310
  C       -1.3306920    -0.7924810    -0.0000696
  C        2.4243390     1.3942650     0.0001240
  C       -2.5504790     1.3758010    -0.0000570
  H        0.0516650     2.3739750     0.0000690
  H        0.0461780    -2.3935470    -0.0000610
  H        2.4800130     2.0209940     0.8935150
  H        2.4798690     2.0213500    -0.8930780
  H        3.2466700     0.6823050    -0.0000520
  H       -3.1375530     1.0948740    -0.8785960
  H       -2.4103180     2.4605130    -0.0000230
  H       -3.1376190     1.0948280     0.8784230
units angstrom
no_reorient  #important for SAPT in psi4, default
symmetry c1  #important for SAPT in psi4, default
}

set PROPERTIES_ORIGIN ["COM"]
properties('MP2/aug-cc-pvtz', properties = ['dipole'])
--------------------------------------------------------------------------

    Molecular point group: c1
  Charge       = 0
  Multiplicity = 1
  Basis Set: AUG-CC-PVTZ
    Blend: AUG-CC-PVTZ
  Basis Set: (AUG-CC-PVTZ AUX)
    Blend: AUG-CC-PVTZ-JKFIT

    Orbital Energies [Eh]
    ---------------------

    Doubly Occupied:

       1A    -20.559115     2A    -20.529806     3A    -15.627693
       4A    -15.609914     5A    -11.403234     6A    -11.382812
       7A    -11.325717     8A    -11.277898     9A    -11.264623
      10A    -11.238495    11A     -1.441780    12A     -1.404567
      13A     -1.286737    14A     -1.221280    15A     -1.112379
      16A     -0.983543    17A     -0.959279    18A     -0.912387
      19A     -0.834703    20A     -0.763629    21A     -0.723219
      22A     -0.708686    23A     -0.669975    24A     -0.661877
      25A     -0.636037    26A     -0.619798    27A     -0.617910
      28A     -0.583898    29A     -0.582555    30A     -0.557348
      31A     -0.556275    32A     -0.542879    33A     -0.478081
      34A     -0.475035    35A     -0.444130    36A     -0.428056
      37A     -0.349385

  @DF-RHF Final Energy:  -490.69977804684044

   => Energetics <=

    Nuclear Repulsion Energy =            528.8373764619686881
    One-Electron Energy =               -1717.5248364715389471
    Two-Electron Energy =                 697.9876819627298801
    Total Energy =                       -490.6997780468403789
  Basis Set: (AUG-CC-PVTZ AUX)
    Blend: AUG-CC-PVTZ-RI
    Molecular point group: c1

    Geometry (in Angstrom), charge = 0, multiplicity = 1:

       Center              X                  Y                   Z               Mass
    ------------   -----------------  -----------------  -----------------  -----------------
         O            2.317923777498    -1.337794848964     0.000059486683    15.994914619570
         O           -2.265118222502    -1.429683848964    -0.000129513317    15.994914619570
         N            1.189372777498     0.686111151036     0.000056486683    14.003074004430
         N            0.022105777498    -1.315578848964    -0.000032513317    14.003074004430
         C           -1.227912222502     0.725333151036    -0.000023513317    12.000000000000
         C           -0.059522622502     1.412444551036     0.000036986683    12.000000000000
         C            1.267346777498    -0.700266848964     0.000032486683    12.000000000000
         C           -1.323927222502    -0.731875848964    -0.000068113317    12.000000000000
         C            2.431103777498     1.454870151036     0.000125486683    12.000000000000
         C           -2.543714222502     1.436406151036    -0.000055513317    12.000000000000
         H            0.058429777498     2.434580151036     0.000070486683     1.007825032230
         H            0.052942777498    -2.332941848964    -0.000059513317     1.007825032230
         H            2.486777777498     2.081599151036     0.893516486683     1.007825032230
         H            2.486633777498     2.081955151036    -0.893076513317     1.007825032230
         H            3.253434777498     0.742910151036    -0.000050513317     1.007825032230
         H           -3.130788222502     1.155479151036    -0.878594513317     1.007825032230
         H           -2.403553222502     2.521118151036    -0.000021513317     1.007825032230
         H           -3.130854222502     1.155433151036     0.878424486683     1.007825032230

  Basis Set: AUG-CC-PVTZ
    Blend: AUG-CC-PVTZ
  Basis Set: (AUG-CC-PVTZ AUX)
    Blend: AUG-CC-PVTZ-JKFIT
	 Reference Energy          =    -490.6997780468404358 [Eh]
	 Singles Energy            =      -0.0000000000000000 [Eh]
	 Same-Spin Energy          =      -0.5010700045919269 [Eh]
	 Opposite-Spin Energy      =      -1.5403442244973360 [Eh]
	 Correlation Energy        =      -2.0414142290892627 [Eh]
	 Total Energy              =    -492.7411922759296772 [Eh]

	 ================> DF-SCS-MP2 Energies <==================
	-----------------------------------------------------------
	 SCS Same-Spin Scale       =       0.3333333333333333 [-]
	 SCS Opposite-Spin Scale   =       1.2000000000000000 [-]
	 SCS Same-Spin Energy      =      -0.1670233348639756 [Eh]
	 SCS Opposite-Spin Energy  =      -1.8484130693968031 [Eh]
	 SCS Correlation Energy    =      -2.0154364042607789 [Eh]
	 SCS Total Energy          =    -492.7152144511011898 [Eh]
	-----------------------------------------------------------

  Dipole Moment: [D]
     X:     0.0822      Y:     4.4678      Z:     0.0001     Total:     4.4686

*** Psi4 exiting successfully. Buy a developer a beer!
