                               Psi4 1.3.2 release

  ==> Input File <==

--------------------------------------------------------------------------
#psi4
#
memory 32 gb

molecule  {
0 1
  O        2.3111590    -1.3984000     0.0000580
  O       -2.2718830    -1.4902890    -0.0001310
  N        1.1826080     0.6255060     0.0000550
  N        0.0153410    -1.3761840    -0.0000340
  C       -1.2346770     0.6647280    -0.0000250
  C       -0.0319280     1.2897490     0.0000350
  C        1.0896012    -0.6571147     0.0000266
  C       -1.2542960    -0.7955090    -0.0000670
  C        2.4243390     1.3942650     0.0001240
  C       -2.5504790     1.3758010    -0.0000570
  H        0.0516650     2.3739750     0.0000690
  H        0.0461780    -2.3935470    -0.0000610
  H        2.4800130     2.0209940     0.8935150
  H        2.4798690     2.0213500    -0.8930780
  H        3.2466700     0.6823050    -0.0000520
  H       -3.1375530     1.0948740    -0.8785960
  H       -2.4103180     2.4605130    -0.0000230
  H       -3.1376190     1.0948280     0.8784230
units angstrom
no_reorient  #important for SAPT in psi4, default
symmetry c1  #important for SAPT in psi4, default
}

set PROPERTIES_ORIGIN ["COM"]
properties('MP2/aug-cc-pvtz', properties = ['dipole'])
--------------------------------------------------------------------------

    Molecular point group: c1
  Charge       = 0
  Multiplicity = 1
  Basis Set: AUG-CC-PVTZ
    Blend: AUG-CC-PVTZ
  Basis Set: (AUG-CC-PVTZ AUX)
    Blend: AUG-CC-PVTZ-JKFIT

    Orbital Energies [Eh]
    ---------------------

    Doubly Occupied:

       1A    -20.551481     2A    -20.489549     3A    -15.657497
       4A    -15.644604     5A    -11.399681     6A    -11.386447
       7A    -11.334323     8A    -11.294624     9A    -11.276322
      10A    -11.247621    11A     -1.428431    12A     -1.385246
      13A     -1.289863    14A     -1.219845    15A     -1.118891
      16A     -1.016708    17A     -0.979967    18A     -0.931641
      19A     -0.874773    20A     -0.796444    21A     -0.758335
      22A     -0.701988    23A     -0.700686    24A     -0.669897
      25A     -0.627626    26A     -0.622488    27A     -0.599784
      28A     -0.589755    29A     -0.580635    30A     -0.560304
      31A     -0.542404    32A     -0.529119    33A     -0.484168
      34A     -0.458668    35A     -0.410117    36A     -0.408510
      37A     -0.355636

  @DF-RHF Final Energy:  -490.65116773038238

   => Energetics <=

    Nuclear Repulsion Energy =            532.2193006624881946
    One-Electron Energy =               -1723.8927791205846916
    Two-Electron Energy =                 701.0223107277141708
    Total Energy =                       -490.6511677303823262
  Basis Set: (AUG-CC-PVTZ AUX)
    Blend: AUG-CC-PVTZ-RI
    Molecular point group: c1

    Geometry (in Angstrom), charge = 0, multiplicity = 1:

       Center              X                  Y                   Z               Mass
    ------------   -----------------  -----------------  -----------------  -----------------
         O            2.323083795634    -1.341105369521     0.000059683743    15.994914619570
         O           -2.259958204366    -1.432994369521    -0.000129316257    15.994914619570
         N            1.194532795634     0.682800630479     0.000056683743    14.003074004430
         N            0.027265795634    -1.318889369521    -0.000032316257    14.003074004430
         C           -1.222752204366     0.722022630479    -0.000023316257    12.000000000000
         C           -0.020003204366     1.347043630479     0.000036683743    12.000000000000
         C            1.101525995634    -0.599820069521     0.000028283743    12.000000000000
         C           -1.242371204366    -0.738214369521    -0.000065316257    12.000000000000
         C            2.436263795634     1.451559630479     0.000125683743    12.000000000000
         C           -2.538554204366     1.433095630479    -0.000055316257    12.000000000000
         H            0.063589795634     2.431269630479     0.000070683743     1.007825032230
         H            0.058102795634    -2.336252369521    -0.000059316257     1.007825032230
         H            2.491937795634     2.078288630479     0.893516683743     1.007825032230
         H            2.491793795634     2.078644630479    -0.893076316257     1.007825032230
         H            3.258594795634     0.739599630479    -0.000050316257     1.007825032230
         H           -3.125628204366     1.152168630479    -0.878594316257     1.007825032230
         H           -2.398393204366     2.517807630479    -0.000021316257     1.007825032230
         H           -3.125694204366     1.152122630479     0.878424683743     1.007825032230

  Basis Set: AUG-CC-PVTZ
    Blend: AUG-CC-PVTZ
  Basis Set: (AUG-CC-PVTZ AUX)
    Blend: AUG-CC-PVTZ-JKFIT
	 Reference Energy          =    -490.6511677303823831 [Eh]
	 Singles Energy            =      -0.0000000000000000 [Eh]
	 Same-Spin Energy          =      -0.5045613603833211 [Eh]
	 Opposite-Spin Energy      =      -1.5460008162438692 [Eh]
	 Correlation Energy        =      -2.0505621766271904 [Eh]
	 Total Energy              =    -492.7017299070095646 [Eh]

	 ================> DF-SCS-MP2 Energies <==================
	-----------------------------------------------------------
	 SCS Same-Spin Scale       =       0.3333333333333333 [-]
	 SCS Opposite-Spin Scale   =       1.2000000000000000 [-]
	 SCS Same-Spin Energy      =      -0.1681871201277737 [Eh]
	 SCS Opposite-Spin Energy  =      -1.8552009794926430 [Eh]
	 SCS Correlation Energy    =      -2.0233880996204165 [Eh]
	 SCS Total Energy          =    -492.6745558300028165 [Eh]
	-----------------------------------------------------------

  Dipole Moment: [D]
     X:    -0.6302      Y:     5.5814      Z:     0.0001     Total:     5.6169

*** Psi4 exiting successfully. Buy a developer a beer!
