                               Psi4 1.3.2 release

  ==> Input File <==

--------------------------------------------------------------------------
#psi4
#
memory 32 gb

molecule  {
0 1
  O        2.3111590    -1.3984000     0.0000580
  O       -2.2718830    -1.4902890    -0.0001310
  N        1.1826080     0.6255060     0.0000550
  N        0.0153410    -1.3761840    -0.0000340
  C       -1.2346770     0.6647280    -0.0000250
  C       -0.0319280     1.2897490     0.0000350
  C        1.2605820    -0.7608720     0.0000310
  C       -1.2288084    -0.7956290    -0.0000660
  C        2.4243390     1.3942650     0.0001240
  C       -2.5378687     1.3986566    -0.0000559
  H        0.0516650     2.3739750     0.0000690
  H        0.0461780    -2.3935470    -0.0000610
  H        2.4800130     2.0209940     0.8935150
  H        2.4798690     2.0213500    -0.8930780
  H        3.2466700     0.6823050    -0.0000520
  H       -3.1375530     1.0948740    -0.8785960
  H       -2.4103180     2.4605130    -0.0000230
  H       -3.1376190     1.0948280     0.8784230
units angstrom
no_reorient  #important for SAPT in psi4, default
symmetry c1  #important for SAPT in psi4, default
}

set PROPERTIES_ORIGIN ["COM"]
properties('MP2/aug-cc-pvtz', properties = ['dipole'])
--------------------------------------------------------------------------

    Molecular point group: c1
  Charge       = 0
  Multiplicity = 1
  Basis Set: AUG-CC-PVTZ
    Blend: AUG-CC-PVTZ
  Basis Set: (AUG-CC-PVTZ AUX)
    Blend: AUG-CC-PVTZ-JKFIT

    Orbital Energies [Eh]
    ---------------------

    Doubly Occupied:

       1A    -20.542967     2A    -20.533425     3A    -15.639612
       4A    -15.629187     5A    -11.416170     6A    -11.376171
       7A    -11.324292     8A    -11.286970     9A    -11.260654
      10A    -11.237360    11A     -1.426359    12A     -1.375569
      13A     -1.307842    14A     -1.247979    15A     -1.109542
      16A     -0.994116    17A     -0.965034    18A     -0.917073
      19A     -0.857195    20A     -0.771694    21A     -0.739545
      22A     -0.692290    23A     -0.684167    24A     -0.648603
      25A     -0.637065    26A     -0.616138    27A     -0.606546
      28A     -0.589963    29A     -0.579593    30A     -0.559570
      31A     -0.548715    32A     -0.539149    33A     -0.488383
      34A     -0.475709    35A     -0.442597    36A     -0.429541
      37A     -0.345337

  @DF-RHF Final Energy:  -490.70891207466440

   => Energetics <=

    Nuclear Repulsion Energy =            530.4703269534095398
    One-Electron Energy =               -1720.6742323750049763
    Two-Electron Energy =                 699.4949933469309826
    Total Energy =                       -490.7089120746644539
  Basis Set: (AUG-CC-PVTZ AUX)
    Blend: AUG-CC-PVTZ-RI
    Molecular point group: c1

    Geometry (in Angstrom), charge = 0, multiplicity = 1:

       Center              X                  Y                   Z               Mass
    ------------   -----------------  -----------------  -----------------  -----------------
         O            2.305170259422    -1.334163556908     0.000059126833    15.994914619570
         O           -2.277871740578    -1.426052556908    -0.000129873167    15.994914619570
         N            1.176619259422     0.689742443092     0.000056126833    14.003074004430
         N            0.009352259422    -1.311947556908    -0.000032873167    14.003074004430
         C           -1.240665740578     0.728964443092    -0.000023873167    12.000000000000
         C           -0.037916740578     1.353985443092     0.000036126833    12.000000000000
         C            1.254593259422    -0.696635556908     0.000032126833    12.000000000000
         C           -1.234797140578    -0.731392556908    -0.000064873167    12.000000000000
         C            2.418350259422     1.458501443092     0.000125126833    12.000000000000
         C           -2.543857440578     1.462893043092    -0.000054773167    12.000000000000
         H            0.045676259422     2.438211443092     0.000070126833     1.007825032230
         H            0.040189259422    -2.329310556908    -0.000059873167     1.007825032230
         H            2.474024259422     2.085230443092     0.893516126833     1.007825032230
         H            2.473880259422     2.085586443092    -0.893076873167     1.007825032230
         H            3.240681259422     0.746541443092    -0.000050873167     1.007825032230
         H           -3.143541740578     1.159110443092    -0.878594873167     1.007825032230
         H           -2.416306740578     2.524749443092    -0.000021873167     1.007825032230
         H           -3.143607740578     1.159064443092     0.878424126833     1.007825032230

  Basis Set: AUG-CC-PVTZ
    Blend: AUG-CC-PVTZ
  Basis Set: (AUG-CC-PVTZ AUX)
    Blend: AUG-CC-PVTZ-JKFIT
	 Reference Energy          =    -490.7089120746643971 [Eh]
	 Singles Energy            =      -0.0000000000000000 [Eh]
	 Same-Spin Energy          =      -0.5028509121280377 [Eh]
	 Opposite-Spin Energy      =      -1.5422540319130424 [Eh]
	 Correlation Energy        =      -2.0451049440410802 [Eh]
	 Total Energy              =    -492.7540170187054969 [Eh]

	 ================> DF-SCS-MP2 Energies <==================
	-----------------------------------------------------------
	 SCS Same-Spin Scale       =       0.3333333333333333 [-]
	 SCS Opposite-Spin Scale   =       1.2000000000000000 [-]
	 SCS Same-Spin Energy      =      -0.1676169707093459 [Eh]
	 SCS Opposite-Spin Energy  =      -1.8507048382956508 [Eh]
	 SCS Correlation Energy    =      -2.0183218090049966 [Eh]
	 SCS Total Energy          =    -492.7272338836693848 [Eh]
	-----------------------------------------------------------

  Dipole Moment: [D]
     X:     1.2495      Y:     4.5655      Z:     0.0002     Total:     4.7334

*** Psi4 exiting successfully. Buy a developer a beer!
