                               Psi4 1.3.2 release

  ==> Input File <==

--------------------------------------------------------------------------
#psi4
#
memory 32 gb

molecule  {
0 1
  O        2.3111590    -1.3984000     0.0000580
  O       -2.2341265    -1.5425932    -0.0001308
  N        1.1826080     0.6255060     0.0000550
  N        0.0153410    -1.3761840    -0.0000340
  C       -1.1582810     0.6617000    -0.0000218
  C       -0.0319280     1.2897490     0.0000350
  C        1.2605820    -0.7608720     0.0000310
  C       -1.2542960    -0.7955090    -0.0000670
  C        2.4243390     1.3942650     0.0001240
  C       -2.5504790     1.3758010    -0.0000570
  H        0.0516650     2.3739750     0.0000690
  H        0.0461780    -2.3935470    -0.0000610
  H        2.4800130     2.0209940     0.8935150
  H        2.4798690     2.0213500    -0.8930780
  H        3.2466700     0.6823050    -0.0000520
  H       -3.1375530     1.0948740    -0.8785960
  H       -2.4103180     2.4605130    -0.0000230
  H       -3.1376190     1.0948280     0.8784230
units angstrom
no_reorient  #important for SAPT in psi4, default
symmetry c1  #important for SAPT in psi4, default
}

set PROPERTIES_ORIGIN ["COM"]
properties('MP2/aug-cc-pvtz', properties = ['dipole'])
--------------------------------------------------------------------------

    Molecular point group: c1
  Charge       = 0
  Multiplicity = 1
  Basis Set: AUG-CC-PVTZ
    Blend: AUG-CC-PVTZ
  Basis Set: (AUG-CC-PVTZ AUX)
    Blend: AUG-CC-PVTZ-JKFIT

    Orbital Energies [Eh]
    ---------------------

    Doubly Occupied:

       1A    -20.542817     2A    -20.538012     3A    -15.633691
       4A    -15.620334     5A    -11.410906     6A    -11.379643
       7A    -11.317127     8A    -11.284113     9A    -11.257103
      10A    -11.242431    11A     -1.423146    12A     -1.389230
      13A     -1.307141    14A     -1.239986    15A     -1.115999
      16A     -0.990149    17A     -0.959963    18A     -0.916063
      19A     -0.855794    20A     -0.775522    21A     -0.730234
      22A     -0.697250    23A     -0.681764    24A     -0.649490
      25A     -0.637569    26A     -0.614523    27A     -0.611267
      28A     -0.584571    29A     -0.580992    30A     -0.554260
      31A     -0.544186    32A     -0.537644    33A     -0.493180
      34A     -0.475011    35A     -0.444719    36A     -0.428447
      37A     -0.357647

  @DF-RHF Final Energy:  -490.70493766953268

   => Energetics <=

    Nuclear Repulsion Energy =            531.1325292596418421
    One-Electron Energy =               -1722.0310853727469294
    Two-Electron Energy =                 700.1936184435724044
    Total Energy =                       -490.7049376695326828
  Basis Set: (AUG-CC-PVTZ AUX)
    Blend: AUG-CC-PVTZ-RI
    Molecular point group: c1

    Geometry (in Angstrom), charge = 0, multiplicity = 1:

       Center              X                  Y                   Z               Mass
    ------------   -----------------  -----------------  -----------------  -----------------
         O            2.297577085103    -1.325982948239     0.000059009747    15.994914619570
         O           -2.247708414897    -1.470176148239    -0.000129790253    15.994914619570
         N            1.169026085103     0.697923051761     0.000056009747    14.003074004430
         N            0.001759085103    -1.303766948239    -0.000032990253    14.003074004430
         C           -1.171862914897     0.734117051761    -0.000020790253    12.000000000000
         C           -0.045509914897     1.362166051761     0.000036009747    12.000000000000
         C            1.247000085103    -0.688454948239     0.000032009747    12.000000000000
         C           -1.267877914897    -0.723091948239    -0.000065990253    12.000000000000
         C            2.410757085103     1.466682051761     0.000125009747    12.000000000000
         C           -2.564060914897     1.448218051761    -0.000055990253    12.000000000000
         H            0.038083085103     2.446392051761     0.000070009747     1.007825032230
         H            0.032596085103    -2.321129948239    -0.000059990253     1.007825032230
         H            2.466431085103     2.093411051761     0.893516009747     1.007825032230
         H            2.466287085103     2.093767051761    -0.893076990253     1.007825032230
         H            3.233088085103     0.754722051761    -0.000050990253     1.007825032230
         H           -3.151134914897     1.167291051761    -0.878594990253     1.007825032230
         H           -2.423899914897     2.532930051761    -0.000021990253     1.007825032230
         H           -3.151200914897     1.167245051761     0.878424009747     1.007825032230

  Basis Set: AUG-CC-PVTZ
    Blend: AUG-CC-PVTZ
  Basis Set: (AUG-CC-PVTZ AUX)
    Blend: AUG-CC-PVTZ-JKFIT
	 Reference Energy          =    -490.7049376695326828 [Eh]
	 Singles Energy            =      -0.0000000000000000 [Eh]
	 Same-Spin Energy          =      -0.5014961617496838 [Eh]
	 Opposite-Spin Energy      =      -1.5402059835633892 [Eh]
	 Correlation Energy        =      -2.0417021453130730 [Eh]
	 Total Energy              =    -492.7466398148457642 [Eh]

	 ================> DF-SCS-MP2 Energies <==================
	-----------------------------------------------------------
	 SCS Same-Spin Scale       =       0.3333333333333333 [-]
	 SCS Opposite-Spin Scale   =       1.2000000000000000 [-]
	 SCS Same-Spin Energy      =      -0.1671653872498946 [Eh]
	 SCS Opposite-Spin Energy  =      -1.8482471802760669 [Eh]
	 SCS Correlation Energy    =      -2.0154125675259618 [Eh]
	 SCS Total Energy          =    -492.7203502370586534 [Eh]
	-----------------------------------------------------------

  Dipole Moment: [D]
     X:     0.9003      Y:     4.5981      Z:     0.0002     Total:     4.6854

*** Psi4 exiting successfully. Buy a developer a beer!
