                               Psi4 1.4a3.dev225

  ==> Input File <==

--------------------------------------------------------------------------
#psi4
#
memory 32 gb

molecule  {
0 1
  O        2.3212770    -1.3580180     0.0000020
  O       -2.2717460    -1.4962290     0.0000010
  N        1.1724310     0.6334210    -0.0000020
  N        0.0162060    -1.3769820    -0.0000020
  C       -1.2398930     0.6613320     0.0000000
  C       -0.0398910     1.2934770    -0.0000010
  C        1.2527440    -0.7526170    -0.0000010
  C       -1.2589250    -0.7964470     0.0000000
  C        2.4447950     1.3519700     0.0000010
  C       -2.5550880     1.3760200     0.0000010
  H        0.0310140     2.3780990    -0.0000010
  H        0.0462921    -2.4137566    -0.0000010
  H        2.2343430     2.4214070    -0.0000200
  H        3.0241620     1.0875710    -0.8862110
  H        3.0241420     1.0876020     0.8862360
  H       -3.1432670     1.0977880    -0.8790540
  H       -2.4120010     2.4600010     0.0000010
  H       -3.1432670     1.0977870     0.8790540
units angstrom
no_reorient  #important for SAPT in psi4, default
symmetry c1  #important for SAPT in psi4, default
}

set PROPERTIES_ORIGIN ["COM"]
properties('MP2/aug-cc-pvtz', properties = ['dipole'])
--------------------------------------------------------------------------

    Molecular point group: c1
  Charge       = 0
  Multiplicity = 1
  Basis Set: AUG-CC-PVTZ
    Blend: AUG-CC-PVTZ
  Basis Set: (AUG-CC-PVTZ AUX)
    Blend: AUG-CC-PVTZ-JKFIT

    Orbital Energies [Eh]
    ---------------------

    Doubly Occupied:

       1A    -20.540880     2A    -20.537815     3A    -15.638506
       4A    -15.626321     5A    -11.411339     6A    -11.375750
       7A    -11.326329     8A    -11.288639     9A    -11.257119
      10A    -11.236400    11A     -1.424439    12A     -1.386977
      13A     -1.306373    14A     -1.241544    15A     -1.108446
      16A     -0.993437    17A     -0.962156    18A     -0.913437
      19A     -0.852574    20A     -0.770215    21A     -0.731809
      22A     -0.693000    23A     -0.682901    24A     -0.649692
      25A     -0.636491    26A     -0.612517    27A     -0.608576
      28A     -0.590775    29A     -0.581185    30A     -0.557603
      31A     -0.547693    32A     -0.539998    33A     -0.491908
      34A     -0.475397    35A     -0.444032    36A     -0.429858
      37A     -0.343780

  @DF-RHF Final Energy:  -490.71145024288694

   => Energetics <=

    Nuclear Repulsion Energy =            530.6203959814474729
    One-Electron Energy =               -1721.0318698660485097
    Two-Electron Energy =                 699.7000236417140968
    Total Energy =                       -490.7114502428869400
  Basis Set: (AUG-CC-PVTZ AUX)
    Blend: AUG-CC-PVTZ-RI
    Molecular point group: c1

    Geometry (in Angstrom), charge = 0, multiplicity = 1:

       Center              X                  Y                   Z               Mass
    ------------   -----------------  -----------------  -----------------  -----------------
         O            2.318845955196    -1.292530122397     0.000002028533    15.994914619570
         O           -2.274177044804    -1.430741122397     0.000001028533    15.994914619570
         N            1.169999955196     0.698908877603    -0.000001971467    14.003074004430
         N            0.013774955196    -1.311494122397    -0.000001971467    14.003074004430
         C           -1.242324044804     0.726819877603     0.000000028533    12.000000000000
         C           -0.042322044804     1.358964877603    -0.000000971467    12.000000000000
         C            1.250312955196    -0.687129122397    -0.000000971467    12.000000000000
         C           -1.261356044804    -0.730959122397     0.000000028533    12.000000000000
         C            2.442363955196     1.417457877603     0.000001028533    12.000000000000
         C           -2.557519044804     1.441507877603     0.000001028533    12.000000000000
         H            0.028582955196     2.443586877603    -0.000000971467     1.007825032230
         H            0.043861055196    -2.348268722397    -0.000000971467     1.007825032230
         H            2.231911955196     2.486894877603    -0.000019971467     1.007825032230
         H            3.021730955196     1.153058877603    -0.886210971467     1.007825032230
         H            3.021710955196     1.153089877603     0.886236028533     1.007825032230
         H           -3.145698044804     1.163275877603    -0.879053971467     1.007825032230
         H           -2.414432044804     2.525488877603     0.000001028533     1.007825032230
         H           -3.145698044804     1.163274877603     0.879054028533     1.007825032230

  Basis Set: AUG-CC-PVTZ
    Blend: AUG-CC-PVTZ
  Basis Set: (AUG-CC-PVTZ AUX)
    Blend: AUG-CC-PVTZ-JKFIT
	 Reference Energy          =    -490.7114502428869400 [Eh]
	 Singles Energy            =      -0.0000000000000000 [Eh]
	 Same-Spin Energy          =      -0.5025374790507326 [Eh]
	 Opposite-Spin Energy      =      -1.5416544159038403 [Eh]
	 Correlation Energy        =      -2.0441918949545732 [Eh]
	 Total Energy              =    -492.7556421378415052 [Eh]

	 ================> DF-SCS-MP2 Energies <==================
	-----------------------------------------------------------
	 SCS Same-Spin Scale       =       0.3333333333333333 [-]
	 SCS Opposite-Spin Scale   =       1.2000000000000000 [-]
	 SCS Same-Spin Energy      =      -0.1675124930169109 [Eh]
	 SCS Opposite-Spin Energy  =      -1.8499852990846084 [Eh]
	 SCS Correlation Energy    =      -2.0174977921015191 [Eh]
	 SCS Total Energy          =    -492.7289480349884343 [Eh]
	-----------------------------------------------------------

  Dipole Moment: [D]
     X:     1.0962      Y:     4.4858      Z:    -0.0000     Total:     4.6178

*** Psi4 exiting successfully. Buy a developer a beer!
