                               Psi4 1.3.2 release

  ==> Input File <==

--------------------------------------------------------------------------
#psi4
#
memory 32 gb

molecule  {
0 1
  O        2.3111590    -1.3984000     0.0000580
  O       -2.2718830    -1.4902890    -0.0001310
  N        1.2050499     0.6682973     0.0000570
  N        0.0153410    -1.3761840    -0.0000340
  C       -1.2346770     0.6647280    -0.0000250
  C       -0.0319280     1.2897490     0.0000350
  C        1.2605820    -0.7608720     0.0000310
  C       -1.2542960    -0.7955090    -0.0000670
  C        2.4243390     1.3942650     0.0001240
  C       -2.5504790     1.3758010    -0.0000570
  H        0.0894530     2.3703972     0.0000701
  H        0.0461780    -2.3935470    -0.0000610
  H        2.4800130     2.0209940     0.8935150
  H        2.4798690     2.0213500    -0.8930780
  H        3.2466700     0.6823050    -0.0000520
  H       -3.1375530     1.0948740    -0.8785960
  H       -2.4103180     2.4605130    -0.0000230
  H       -3.1376190     1.0948280     0.8784230
units angstrom
no_reorient  #important for SAPT in psi4, default
symmetry c1  #important for SAPT in psi4, default
}

set PROPERTIES_ORIGIN ["COM"]
properties('MP2/aug-cc-pvtz', properties = ['dipole'])
--------------------------------------------------------------------------

    Molecular point group: c1
  Charge       = 0
  Multiplicity = 1
  Basis Set: AUG-CC-PVTZ
    Blend: AUG-CC-PVTZ
  Basis Set: (AUG-CC-PVTZ AUX)
    Blend: AUG-CC-PVTZ-JKFIT

    Orbital Energies [Eh]
    ---------------------

    Doubly Occupied:

       1A    -20.545695     2A    -20.539539     3A    -15.637355
       4A    -15.627979     5A    -11.418919     6A    -11.377157
       7A    -11.325236     8A    -11.281678     9A    -11.259151
      10A    -11.236696    11A     -1.423965    12A     -1.388180
      13A     -1.307011    14A     -1.247258    15A     -1.109010
      16A     -0.995610    17A     -0.956862    18A     -0.913304
      19A     -0.854182    20A     -0.768344    21A     -0.737144
      22A     -0.691235    23A     -0.682203    24A     -0.657324
      25A     -0.638282    26A     -0.617771    27A     -0.613718
      28A     -0.585673    29A     -0.583854    30A     -0.553382
      31A     -0.548743    32A     -0.542442    33A     -0.486283
      34A     -0.476384    35A     -0.445855    36A     -0.432391
      37A     -0.343932

  @DF-RHF Final Energy:  -490.70754913614843

   => Energetics <=

    Nuclear Repulsion Energy =            529.7942542800767569
    One-Electron Energy =               -1719.3041104712388005
    Two-Electron Energy =                 698.8023070550135571
    Total Energy =                       -490.7075491361484865
  Basis Set: (AUG-CC-PVTZ AUX)
    Blend: AUG-CC-PVTZ-RI
    Molecular point group: c1

    Geometry (in Angstrom), charge = 0, multiplicity = 1:

       Center              X                  Y                   Z               Mass
    ------------   -----------------  -----------------  -----------------  -----------------
         O            2.305918771387    -1.336468140818     0.000059098883    15.994914619570
         O           -2.277123228613    -1.428357140818    -0.000129901117    15.994914619570
         N            1.199809671387     0.730229159182     0.000058098883    14.003074004430
         N            0.010100771387    -1.314252140818    -0.000032901117    14.003074004430
         C           -1.239917228613     0.726659859182    -0.000023901117    12.000000000000
         C           -0.037168228613     1.351680859182     0.000036098883    12.000000000000
         C            1.255341771387    -0.698940140818     0.000032098883    12.000000000000
         C           -1.259536228613    -0.733577140818    -0.000065901117    12.000000000000
         C            2.419098771387     1.456196859182     0.000125098883    12.000000000000
         C           -2.555719228613     1.437732859182    -0.000055901117    12.000000000000
         H            0.084212771387     2.432329059182     0.000071198883     1.007825032230
         H            0.040937771387    -2.331615140818    -0.000059901117     1.007825032230
         H            2.474772771387     2.082925859182     0.893516098883     1.007825032230
         H            2.474628771387     2.083281859182    -0.893076901117     1.007825032230
         H            3.241429771387     0.744236859182    -0.000050901117     1.007825032230
         H           -3.142793228613     1.156805859182    -0.878594901117     1.007825032230
         H           -2.415558228613     2.522444859182    -0.000021901117     1.007825032230
         H           -3.142859228613     1.156759859182     0.878424098883     1.007825032230

  Basis Set: AUG-CC-PVTZ
    Blend: AUG-CC-PVTZ
  Basis Set: (AUG-CC-PVTZ AUX)
    Blend: AUG-CC-PVTZ-JKFIT
	 Reference Energy          =    -490.7075491361484296 [Eh]
	 Singles Energy            =      -0.0000000000000000 [Eh]
	 Same-Spin Energy          =      -0.5027982381874059 [Eh]
	 Opposite-Spin Energy      =      -1.5421900865176643 [Eh]
	 Correlation Energy        =      -2.0449883247050700 [Eh]
	 Total Energy              =    -492.7525374608534889 [Eh]

	 ================> DF-SCS-MP2 Energies <==================
	-----------------------------------------------------------
	 SCS Same-Spin Scale       =       0.3333333333333333 [-]
	 SCS Opposite-Spin Scale   =       1.2000000000000000 [-]
	 SCS Same-Spin Energy      =      -0.1675994127291353 [Eh]
	 SCS Opposite-Spin Energy  =      -1.8506281038211971 [Eh]
	 SCS Correlation Energy    =      -2.0182275165503323 [Eh]
	 SCS Total Energy          =    -492.7257766526987552 [Eh]
	-----------------------------------------------------------

  Dipole Moment: [D]
     X:     1.0903      Y:     4.2983      Z:     0.0002     Total:     4.4344

*** Psi4 exiting successfully. Buy a developer a beer!
