                               Psi4 1.4a3.dev225

  ==> Input File <==

--------------------------------------------------------------------------
#psi4
#
memory 32 gb

molecule  {
0 1
  O        2.3212770    -1.3580180     0.0000020
  O       -2.2717460    -1.4962290     0.0000010
  N        1.1724310     0.6334210    -0.0000020
  N        0.0162060    -1.3769820    -0.0000020
  C       -1.2398930     0.6613320     0.0000000
  C       -0.0841283     1.2701734    -0.0000010
  C        1.2527440    -0.7526170    -0.0000010
  C       -1.2589250    -0.7964470     0.0000000
  C        2.4447950     1.3519700     0.0000010
  C       -2.5550880     1.3760200     0.0000010
  H        0.0310140     2.3780990    -0.0000010
  H        0.0457120    -2.3937650    -0.0000010
  H        2.2343430     2.4214070    -0.0000200
  H        3.0241620     1.0875710    -0.8862110
  H        3.0241420     1.0876020     0.8862360
  H       -3.1432670     1.0977880    -0.8790540
  H       -2.4120010     2.4600010     0.0000010
  H       -3.1432670     1.0977870     0.8790540
units angstrom
no_reorient  #important for SAPT in psi4, default
symmetry c1  #important for SAPT in psi4, default
}

set PROPERTIES_ORIGIN ["COM"]
properties('MP2/aug-cc-pvtz', properties = ['dipole'])
--------------------------------------------------------------------------

    Molecular point group: c1
  Charge       = 0
  Multiplicity = 1
  Basis Set: AUG-CC-PVTZ
    Blend: AUG-CC-PVTZ
  Basis Set: (AUG-CC-PVTZ AUX)
    Blend: AUG-CC-PVTZ-JKFIT

    Orbital Energies [Eh]
    ---------------------

    Doubly Occupied:

       1A    -20.541390     2A    -20.538786     3A    -15.634171
       4A    -15.624536     5A    -11.408587     6A    -11.378574
       7A    -11.321973     8A    -11.287027     9A    -11.254446
      10A    -11.238376    11A     -1.422772    12A     -1.389130
      13A     -1.299895    14A     -1.241235    15A     -1.120113
      16A     -0.991244    17A     -0.960845    18A     -0.911804
      19A     -0.854469    20A     -0.771926    21A     -0.735174
      22A     -0.686385    23A     -0.680242    24A     -0.649024
      25A     -0.635087    26A     -0.613270    27A     -0.609958
      28A     -0.589339    29A     -0.582786    30A     -0.557216
      31A     -0.551180    32A     -0.540502    33A     -0.489794
      34A     -0.472736    35A     -0.446023    36A     -0.430532
      37A     -0.353735

  @DF-RHF Final Energy:  -490.71057865488734

   => Energetics <=

    Nuclear Repulsion Energy =            531.1474681305049899
    One-Electron Energy =               -1722.0875315771847909
    Two-Electron Energy =                 700.2294847917922880
    Total Energy =                       -490.7105786548873994
  Basis Set: (AUG-CC-PVTZ AUX)
    Blend: AUG-CC-PVTZ-RI
    Molecular point group: c1

    Geometry (in Angstrom), charge = 0, multiplicity = 1:

       Center              X                  Y                   Z               Mass
    ------------   -----------------  -----------------  -----------------  -----------------
         O            2.322640312162    -1.290677360719     0.000002028533    15.994914619570
         O           -2.270382687838    -1.428888360719     0.000001028533    15.994914619570
         N            1.173794312162     0.700761639281    -0.000001971467    14.003074004430
         N            0.017569312162    -1.309641360719    -0.000001971467    14.003074004430
         C           -1.238529687838     0.728672639281     0.000000028533    12.000000000000
         C           -0.082764987838     1.337514039281    -0.000000971467    12.000000000000
         C            1.254107312162    -0.685276360719    -0.000000971467    12.000000000000
         C           -1.257561687838    -0.729106360719     0.000000028533    12.000000000000
         C            2.446158312162     1.419310639281     0.000001028533    12.000000000000
         C           -2.553724687838     1.443360639281     0.000001028533    12.000000000000
         H            0.032377312162     2.445439639281    -0.000000971467     1.007825032230
         H            0.047075312162    -2.326424360719    -0.000000971467     1.007825032230
         H            2.235706312162     2.488747639281    -0.000019971467     1.007825032230
         H            3.025525312162     1.154911639281    -0.886210971467     1.007825032230
         H            3.025505312162     1.154942639281     0.886236028533     1.007825032230
         H           -3.141903687838     1.165128639281    -0.879053971467     1.007825032230
         H           -2.410637687838     2.527341639281     0.000001028533     1.007825032230
         H           -3.141903687838     1.165127639281     0.879054028533     1.007825032230

  Basis Set: AUG-CC-PVTZ
    Blend: AUG-CC-PVTZ
  Basis Set: (AUG-CC-PVTZ AUX)
    Blend: AUG-CC-PVTZ-JKFIT
	 Reference Energy          =    -490.7105786548873425 [Eh]
	 Singles Energy            =      -0.0000000000000000 [Eh]
	 Same-Spin Energy          =      -0.5016186388816906 [Eh]
	 Opposite-Spin Energy      =      -1.5403570723452511 [Eh]
	 Correlation Energy        =      -2.0419757112269417 [Eh]
	 Total Energy              =    -492.7525543661142819 [Eh]

	 ================> DF-SCS-MP2 Energies <==================
	-----------------------------------------------------------
	 SCS Same-Spin Scale       =       0.3333333333333333 [-]
	 SCS Opposite-Spin Scale   =       1.2000000000000000 [-]
	 SCS Same-Spin Energy      =      -0.1672062129605635 [Eh]
	 SCS Opposite-Spin Energy  =      -1.8484284868143013 [Eh]
	 SCS Correlation Energy    =      -2.0156346997748646 [Eh]
	 SCS Total Energy          =    -492.7262133546622067 [Eh]
	-----------------------------------------------------------

  Dipole Moment: [D]
     X:     0.8922      Y:     4.4702      Z:    -0.0000     Total:     4.5584

*** Psi4 exiting successfully. Buy a developer a beer!
