                               Psi4 1.4a3.dev225

  ==> Input File <==

--------------------------------------------------------------------------
#psi4
#
memory 32 gb

molecule  {
0 1
  O        2.3212770    -1.3580180     0.0000020
  O       -2.2717460    -1.4962290     0.0000010
  N        1.1724310     0.6334210    -0.0000020
  N        0.0162060    -1.3769820    -0.0000020
  C       -1.2398930     0.6613320     0.0000000
  C       -0.0398910     1.2934770    -0.0000010
  C        1.2527440    -0.7526170    -0.0000010
  C       -1.2589250    -0.7964470     0.0000000
  C        2.4447950     1.3519700     0.0000010
  C       -2.5550880     1.3760200     0.0000010
  H        0.0310140     2.3780990    -0.0000010
  H        0.0457120    -2.3937650    -0.0000010
  H        2.2343430     2.4214070    -0.0000200
  H        3.0135441     1.0924166    -0.8699697
  H        3.0241420     1.0876020     0.8862360
  H       -3.1432670     1.0977880    -0.8790540
  H       -2.4120010     2.4600010     0.0000010
  H       -3.1432670     1.0977870     0.8790540
units angstrom
no_reorient  #important for SAPT in psi4, default
symmetry c1  #important for SAPT in psi4, default
}

set PROPERTIES_ORIGIN ["COM"]
properties('MP2/aug-cc-pvtz', properties = ['dipole'])
--------------------------------------------------------------------------

    Molecular point group: c1
  Charge       = 0
  Multiplicity = 1
  Basis Set: AUG-CC-PVTZ
    Blend: AUG-CC-PVTZ
  Basis Set: (AUG-CC-PVTZ AUX)
    Blend: AUG-CC-PVTZ-JKFIT

    Orbital Energies [Eh]
    ---------------------

    Doubly Occupied:

       1A    -20.541106     2A    -20.537993     3A    -15.638417
       4A    -15.624817     5A    -11.411510     6A    -11.375863
       7A    -11.326379     8A    -11.286479     9A    -11.257097
      10A    -11.236419    11A     -1.424892    12A     -1.387230
      13A     -1.306518    14A     -1.243583    15A     -1.108731
      16A     -0.995104    17A     -0.962474    18A     -0.914769
      19A     -0.853468    20A     -0.770826    21A     -0.735533
      22A     -0.693897    23A     -0.683810    24A     -0.650482
      25A     -0.636735    26A     -0.614024    27A     -0.609159
      28A     -0.591438    29A     -0.581572    30A     -0.558142
      31A     -0.547856    32A     -0.540561    33A     -0.492448
      34A     -0.475547    35A     -0.444203    36A     -0.430320
      37A     -0.343874

  @DF-RHF Final Energy:  -490.71259726721132

   => Energetics <=

    Nuclear Repulsion Energy =            530.8420867279047570
    One-Electron Energy =               -1721.4428177287743438
    Two-Electron Energy =                 699.8881337336581510
    Total Energy =                       -490.7125972672113221
  Basis Set: (AUG-CC-PVTZ AUX)
    Blend: AUG-CC-PVTZ-RI
    Molecular point group: c1

    Geometry (in Angstrom), charge = 0, multiplicity = 1:

       Center              X                  Y                   Z               Mass
    ------------   -----------------  -----------------  -----------------  -----------------
         O            2.318926533086    -1.292708844417    -0.000114839630    15.994914619570
         O           -2.274096466914    -1.430919844417    -0.000115839630    15.994914619570
         N            1.170080533086     0.698730155583    -0.000118839630    14.003074004430
         N            0.013855533086    -1.311672844417    -0.000118839630    14.003074004430
         C           -1.242243466914     0.726641155583    -0.000116839630    12.000000000000
         C           -0.042241466914     1.358786155583    -0.000117839630    12.000000000000
         C            1.250393533086    -0.687307844417    -0.000117839630    12.000000000000
         C           -1.261275466914    -0.731137844417    -0.000116839630    12.000000000000
         C            2.442444533086     1.417279155583    -0.000115839630    12.000000000000
         C           -2.557438466914     1.441329155583    -0.000115839630    12.000000000000
         H            0.028663533086     2.443408155583    -0.000117839630     1.007825032230
         H            0.043361533086    -2.328455844417    -0.000117839630     1.007825032230
         H            2.231992533086     2.486716155583    -0.000136839630     1.007825032230
         H            3.011193633086     1.157725755583    -0.870086539630     1.007825032230
         H            3.021791533086     1.152911155583     0.886119160370     1.007825032230
         H           -3.145617466914     1.163097155583    -0.879170839630     1.007825032230
         H           -2.414351466914     2.525310155583    -0.000115839630     1.007825032230
         H           -3.145617466914     1.163096155583     0.878937160370     1.007825032230

  Basis Set: AUG-CC-PVTZ
    Blend: AUG-CC-PVTZ
  Basis Set: (AUG-CC-PVTZ AUX)
    Blend: AUG-CC-PVTZ-JKFIT
	 Reference Energy          =    -490.7125972672113221 [Eh]
	 Singles Energy            =      -0.0000000000000000 [Eh]
	 Same-Spin Energy          =      -0.5023441250969676 [Eh]
	 Opposite-Spin Energy      =      -1.5411553535479330 [Eh]
	 Correlation Energy        =      -2.0434994786449003 [Eh]
	 Total Energy              =    -492.7560967458562118 [Eh]

	 ================> DF-SCS-MP2 Energies <==================
	-----------------------------------------------------------
	 SCS Same-Spin Scale       =       0.3333333333333333 [-]
	 SCS Opposite-Spin Scale   =       1.2000000000000000 [-]
	 SCS Same-Spin Energy      =      -0.1674480416989892 [Eh]
	 SCS Opposite-Spin Energy  =      -1.8493864242575195 [Eh]
	 SCS Correlation Energy    =      -2.0168344659565087 [Eh]
	 SCS Total Energy          =    -492.7294317331678144 [Eh]
	-----------------------------------------------------------

  Dipole Moment: [D]
     X:     1.1029      Y:     4.5155      Z:    -0.0037     Total:     4.6482

*** Psi4 exiting successfully. Buy a developer a beer!
