                               Psi4 1.3.2 release

  ==> Input File <==

--------------------------------------------------------------------------
#psi4
#
memory 32 gb

molecule  {
0 1
  O        2.3221254    -1.3799678     0.0000589
  O       -2.2718830    -1.4902890    -0.0001310
  N        1.1826080     0.6255060     0.0000550
  N        0.0047920    -1.3543578    -0.0000339
  C       -1.2346770     0.6647280    -0.0000250
  C       -0.0319280     1.2897490     0.0000350
  C        1.2605820    -0.7608720     0.0000310
  C       -1.2542960    -0.7955090    -0.0000670
  C        2.4243390     1.3942650     0.0001240
  C       -2.5504790     1.3758010    -0.0000570
  H        0.0516650     2.3739750     0.0000690
  H        0.0461780    -2.3935470    -0.0000610
  H        2.4800130     2.0209940     0.8935150
  H        2.4798690     2.0213500    -0.8930780
  H        3.2466700     0.6823050    -0.0000520
  H       -3.1375530     1.0948740    -0.8785960
  H       -2.4103180     2.4605130    -0.0000230
  H       -3.1376190     1.0948280     0.8784230
units angstrom
no_reorient  #important for SAPT in psi4, default
symmetry c1  #important for SAPT in psi4, default
}

set PROPERTIES_ORIGIN ["COM"]
properties('MP2/aug-cc-pvtz', properties = ['dipole'])
--------------------------------------------------------------------------

    Molecular point group: c1
  Charge       = 0
  Multiplicity = 1
  Basis Set: AUG-CC-PVTZ
    Blend: AUG-CC-PVTZ
  Basis Set: (AUG-CC-PVTZ AUX)
    Blend: AUG-CC-PVTZ-JKFIT

    Orbital Energies [Eh]
    ---------------------

    Doubly Occupied:

       1A    -20.542790     2A    -20.537109     3A    -15.637019
       4A    -15.628105     5A    -11.415365     6A    -11.374855
       7A    -11.323773     8A    -11.284997     9A    -11.258538
      10A    -11.236365    11A     -1.425671    12A     -1.387563
      13A     -1.307254    14A     -1.245550    15A     -1.108255
      16A     -0.992891    17A     -0.964669    18A     -0.914202
      19A     -0.855908    20A     -0.770188    21A     -0.731488
      22A     -0.690661    23A     -0.682915    24A     -0.649143
      25A     -0.639549    26A     -0.616746    27A     -0.608129
      28A     -0.587761    29A     -0.583672    30A     -0.553844
      31A     -0.547104    32A     -0.544156    33A     -0.487412
      34A     -0.475779    35A     -0.445130    36A     -0.432064
      37A     -0.345212

  @DF-RHF Final Energy:  -490.71003186852369

   => Energetics <=

    Nuclear Repulsion Energy =            530.8743100473218419
    One-Electron Energy =               -1721.5050167469194093
    Two-Electron Energy =                 699.9206748310739385
    Total Energy =                       -490.7100318685236289
  Basis Set: (AUG-CC-PVTZ AUX)
    Blend: AUG-CC-PVTZ-RI
    Molecular point group: c1

    Geometry (in Angstrom), charge = 0, multiplicity = 1:

       Center              X                  Y                   Z               Mass
    ------------   -----------------  -----------------  -----------------  -----------------
         O            2.319203137774    -1.318070579288     0.000060093979    15.994914619570
         O           -2.274805262226    -1.428391779288    -0.000129806021    15.994914619570
         N            1.179685737774     0.687403220712     0.000056193979    14.003074004430
         N            0.001869737774    -1.292460579288    -0.000032706021    14.003074004430
         C           -1.237599262226     0.726625220712    -0.000023806021    12.000000000000
         C           -0.034850262226     1.351646220712     0.000036193979    12.000000000000
         C            1.257659737774    -0.698974779288     0.000032193979    12.000000000000
         C           -1.257218262226    -0.733611779288    -0.000065806021    12.000000000000
         C            2.421416737774     1.456162220712     0.000125193979    12.000000000000
         C           -2.553401262226     1.437698220712    -0.000055806021    12.000000000000
         H            0.048742737774     2.435872220712     0.000070193979     1.007825032230
         H            0.043255737774    -2.331649779288    -0.000059806021     1.007825032230
         H            2.477090737774     2.082891220712     0.893516193979     1.007825032230
         H            2.476946737774     2.083247220712    -0.893076806021     1.007825032230
         H            3.243747737774     0.744202220712    -0.000050806021     1.007825032230
         H           -3.140475262226     1.156771220712    -0.878594806021     1.007825032230
         H           -2.413240262226     2.522410220712    -0.000021806021     1.007825032230
         H           -3.140541262226     1.156725220712     0.878424193979     1.007825032230

  Basis Set: AUG-CC-PVTZ
    Blend: AUG-CC-PVTZ
  Basis Set: (AUG-CC-PVTZ AUX)
    Blend: AUG-CC-PVTZ-JKFIT
	 Reference Energy          =    -490.7100318685236857 [Eh]
	 Singles Energy            =      -0.0000000000000000 [Eh]
	 Same-Spin Energy          =      -0.5028460174778026 [Eh]
	 Opposite-Spin Energy      =      -1.5420002847425247 [Eh]
	 Correlation Energy        =      -2.0448463022203271 [Eh]
	 Total Energy              =    -492.7548781707440071 [Eh]

	 ================> DF-SCS-MP2 Energies <==================
	-----------------------------------------------------------
	 SCS Same-Spin Scale       =       0.3333333333333333 [-]
	 SCS Opposite-Spin Scale   =       1.2000000000000000 [-]
	 SCS Same-Spin Energy      =      -0.1676153391592675 [Eh]
	 SCS Opposite-Spin Energy  =      -1.8504003416910295 [Eh]
	 SCS Correlation Energy    =      -2.0180156808502971 [Eh]
	 SCS Total Energy          =    -492.7280475493739686 [Eh]
	-----------------------------------------------------------

  Dipole Moment: [D]
     X:     1.1111      Y:     4.4363      Z:     0.0002     Total:     4.5733

*** Psi4 exiting successfully. Buy a developer a beer!
