                               Psi4 1.3.2 release

  ==> Input File <==

--------------------------------------------------------------------------
#psi4
#
memory 32 gb

molecule  {
0 1
  O        2.3111590    -1.3984000     0.0000580
  O       -2.2718830    -1.4902890    -0.0001310
  N        1.1708304     0.6044106     0.0000540
  N        0.0153410    -1.3761840    -0.0000340
  C       -1.2346770     0.6647280    -0.0000250
  C       -0.0319280     1.2897490     0.0000350
  C        1.2605820    -0.7608720     0.0000310
  C       -1.2542960    -0.7955090    -0.0000670
  C        2.4243390     1.3942650     0.0001240
  C       -2.5504790     1.3758010    -0.0000570
  H        0.0327299     2.3752688     0.0000684
  H        0.0461780    -2.3935470    -0.0000610
  H        2.4800130     2.0209940     0.8935150
  H        2.4798690     2.0213500    -0.8930780
  H        3.2466700     0.6823050    -0.0000520
  H       -3.1375530     1.0948740    -0.8785960
  H       -2.4103180     2.4605130    -0.0000230
  H       -3.1376190     1.0948280     0.8784230
units angstrom
no_reorient  #important for SAPT in psi4, default
symmetry c1  #important for SAPT in psi4, default
}

set PROPERTIES_ORIGIN ["COM"]
properties('MP2/aug-cc-pvtz', properties = ['dipole'])
--------------------------------------------------------------------------

    Molecular point group: c1
  Charge       = 0
  Multiplicity = 1
  Basis Set: AUG-CC-PVTZ
    Blend: AUG-CC-PVTZ
  Basis Set: (AUG-CC-PVTZ AUX)
    Blend: AUG-CC-PVTZ-JKFIT

    Orbital Energies [Eh]
    ---------------------

    Doubly Occupied:

       1A    -20.538059     2A    -20.537891     3A    -15.638535
       4A    -15.622845     5A    -11.410916     6A    -11.375747
       7A    -11.324943     8A    -11.288183     9A    -11.259986
      10A    -11.237388    11A     -1.424377    12A     -1.386430
      13A     -1.307087    14A     -1.240728    15A     -1.109359
      16A     -0.992139    17A     -0.967390    18A     -0.914481
      19A     -0.852067    20A     -0.772162    21A     -0.733868
      22A     -0.692673    23A     -0.682472    24A     -0.645950
      25A     -0.637504    26A     -0.614784    27A     -0.607346
      28A     -0.590344    29A     -0.584190    30A     -0.555984
      31A     -0.547474    32A     -0.543694    33A     -0.488575
      34A     -0.474534    35A     -0.443538    36A     -0.429670
      37A     -0.346885

  @DF-RHF Final Energy:  -490.71162319952879

   => Energetics <=

    Nuclear Repulsion Energy =            530.6882965542470174
    One-Electron Energy =               -1721.1594427998743413
    Two-Electron Energy =                 699.7595230460984794
    Total Energy =                       -490.7116231995288445
  Basis Set: (AUG-CC-PVTZ AUX)
    Blend: AUG-CC-PVTZ-RI
    Molecular point group: c1

    Geometry (in Angstrom), charge = 0, multiplicity = 1:

       Center              X                  Y                   Z               Mass
    ------------   -----------------  -----------------  -----------------  -----------------
         O            2.309748205903    -1.330115795368     0.000059411056    15.994914619570
         O           -2.273293794097    -1.422004795368    -0.000129588944    15.994914619570
         N            1.169419605903     0.672694804632     0.000055411056    14.003074004430
         N            0.013930205903    -1.307899795368    -0.000032588944    14.003074004430
         C           -1.236087794097     0.733012204632    -0.000023588944    12.000000000000
         C           -0.033338794097     1.358033204632     0.000036411056    12.000000000000
         C            1.259171205903    -0.692587795368     0.000032411056    12.000000000000
         C           -1.255706794097    -0.727224795368    -0.000065588944    12.000000000000
         C            2.422928205903     1.462549204632     0.000125411056    12.000000000000
         C           -2.551889794097     1.444085204632    -0.000055588944    12.000000000000
         H            0.031319105903     2.443553004632     0.000069811056     1.007825032230
         H            0.044767205903    -2.325262795368    -0.000059588944     1.007825032230
         H            2.478602205903     2.089278204632     0.893516411056     1.007825032230
         H            2.478458205903     2.089634204632    -0.893076588944     1.007825032230
         H            3.245259205903     0.750589204632    -0.000050588944     1.007825032230
         H           -3.138963794097     1.163158204632    -0.878594588944     1.007825032230
         H           -2.411728794097     2.528797204632    -0.000021588944     1.007825032230
         H           -3.139029794097     1.163112204632     0.878424411056     1.007825032230

  Basis Set: AUG-CC-PVTZ
    Blend: AUG-CC-PVTZ
  Basis Set: (AUG-CC-PVTZ AUX)
    Blend: AUG-CC-PVTZ-JKFIT
	 Reference Energy          =    -490.7116231995287876 [Eh]
	 Singles Energy            =      -0.0000000000000000 [Eh]
	 Same-Spin Energy          =      -0.5022858113243607 [Eh]
	 Opposite-Spin Energy      =      -1.5413089127372435 [Eh]
	 Correlation Energy        =      -2.0435947240616041 [Eh]
	 Total Energy              =    -492.7552179235904077 [Eh]

	 ================> DF-SCS-MP2 Energies <==================
	-----------------------------------------------------------
	 SCS Same-Spin Scale       =       0.3333333333333333 [-]
	 SCS Opposite-Spin Scale   =       1.2000000000000000 [-]
	 SCS Same-Spin Energy      =      -0.1674286037747869 [Eh]
	 SCS Opposite-Spin Energy  =      -1.8495706952846920 [Eh]
	 SCS Correlation Energy    =      -2.0169992990594787 [Eh]
	 SCS Total Energy          =    -492.7286224985882654 [Eh]
	-----------------------------------------------------------

  Dipole Moment: [D]
     X:     1.0283      Y:     4.6341      Z:     0.0002     Total:     4.7468

*** Psi4 exiting successfully. Buy a developer a beer!
