                               Psi4 1.3.2 release

  ==> Input File <==

--------------------------------------------------------------------------
#psi4
#
memory 32 gb

molecule  {
0 1
  O        2.3111590    -1.3984000     0.0000580
  O       -2.2718830    -1.4902890    -0.0001310
  N        1.1826080     0.6255060     0.0000550
  N        0.0153410    -1.3761840    -0.0000340
  C       -1.2346770     0.6647280    -0.0000250
  C       -0.0319280     1.2897490     0.0000350
  C        1.1709298    -0.8051719     0.0000263
  C       -1.2542960    -0.7955090    -0.0000670
  C        2.4243390     1.3942650     0.0001240
  C       -2.5504790     1.3758010    -0.0000570
  H        0.0516650     2.3739750     0.0000690
  H        0.0461780    -2.3935470    -0.0000610
  H        2.4800130     2.0209940     0.8935150
  H        2.4798690     2.0213500    -0.8930780
  H        3.2466700     0.6823050    -0.0000520
  H       -3.1375530     1.0948740    -0.8785960
  H       -2.4103180     2.4605130    -0.0000230
  H       -3.1376190     1.0948280     0.8784230
units angstrom
no_reorient  #important for SAPT in psi4, default
symmetry c1  #important for SAPT in psi4, default
}

set PROPERTIES_ORIGIN ["COM"]
properties('MP2/aug-cc-pvtz', properties = ['dipole'])
--------------------------------------------------------------------------

    Molecular point group: c1
  Charge       = 0
  Multiplicity = 1
  Basis Set: AUG-CC-PVTZ
    Blend: AUG-CC-PVTZ
  Basis Set: (AUG-CC-PVTZ AUX)
    Blend: AUG-CC-PVTZ-JKFIT

    Orbital Energies [Eh]
    ---------------------

    Doubly Occupied:

       1A    -20.548163     2A    -20.526218     3A    -15.640407
       4A    -15.636389     5A    -11.412739     6A    -11.385571
       7A    -11.326344     8A    -11.283428     9A    -11.259148
      10A    -11.238399    11A     -1.422710    12A     -1.381296
      13A     -1.288552    14A     -1.268649    15A     -1.109399
      16A     -0.991672    17A     -0.962989    18A     -0.922417
      19A     -0.871973    20A     -0.769445    21A     -0.750509
      22A     -0.690360    23A     -0.683034    24A     -0.654877
      25A     -0.622304    26A     -0.620465    27A     -0.610766
      28A     -0.586033    29A     -0.585803    30A     -0.552842
      31A     -0.547948    32A     -0.538055    33A     -0.486337
      34A     -0.463760    35A     -0.447659    36A     -0.433032
      37A     -0.343301

  @DF-RHF Final Energy:  -490.69538219396475

   => Energetics <=

    Nuclear Repulsion Energy =            530.6685231156334339
    One-Electron Energy =               -1721.0018182010664987
    Two-Electron Energy =                 699.6379128914683179
    Total Energy =                       -490.6953821939647469
  Basis Set: (AUG-CC-PVTZ AUX)
    Blend: AUG-CC-PVTZ-RI
    Molecular point group: c1

    Geometry (in Angstrom), charge = 0, multiplicity = 1:

       Center              X                  Y                   Z               Mass
    ------------   -----------------  -----------------  -----------------  -----------------
         O            2.316115688308    -1.328420060048     0.000059709447    15.994914619570
         O           -2.266926311692    -1.420309060048    -0.000129290553    15.994914619570
         N            1.187564688308     0.695485939952     0.000056709447    14.003074004430
         N            0.020297688308    -1.306204060048    -0.000032290553    14.003074004430
         C           -1.229720311692     0.734707939952    -0.000023290553    12.000000000000
         C           -0.026971311692     1.359728939952     0.000036709447    12.000000000000
         C            1.175886488308    -0.735191960048     0.000028009447    12.000000000000
         C           -1.249339311692    -0.725529060048    -0.000065290553    12.000000000000
         C            2.429295688308     1.464244939952     0.000125709447    12.000000000000
         C           -2.545522311692     1.445780939952    -0.000055290553    12.000000000000
         H            0.056621688308     2.443954939952     0.000070709447     1.007825032230
         H            0.051134688308    -2.323567060048    -0.000059290553     1.007825032230
         H            2.484969688308     2.090973939952     0.893516709447     1.007825032230
         H            2.484825688308     2.091329939952    -0.893076290553     1.007825032230
         H            3.251626688308     0.752284939952    -0.000050290553     1.007825032230
         H           -3.132596311692     1.164853939952    -0.878594290553     1.007825032230
         H           -2.405361311692     2.530492939952    -0.000021290553     1.007825032230
         H           -3.132662311692     1.164807939952     0.878424709447     1.007825032230

  Basis Set: AUG-CC-PVTZ
    Blend: AUG-CC-PVTZ
  Basis Set: (AUG-CC-PVTZ AUX)
    Blend: AUG-CC-PVTZ-JKFIT
	 Reference Energy          =    -490.6953821939647469 [Eh]
	 Singles Energy            =      -0.0000000000000000 [Eh]
	 Same-Spin Energy          =      -0.5035365734483663 [Eh]
	 Opposite-Spin Energy      =      -1.5431652959292284 [Eh]
	 Correlation Energy        =      -2.0467018693775945 [Eh]
	 Total Energy              =    -492.7420840633423609 [Eh]

	 ================> DF-SCS-MP2 Energies <==================
	-----------------------------------------------------------
	 SCS Same-Spin Scale       =       0.3333333333333333 [-]
	 SCS Opposite-Spin Scale   =       1.2000000000000000 [-]
	 SCS Same-Spin Energy      =      -0.1678455244827888 [Eh]
	 SCS Opposite-Spin Energy  =      -1.8517983551150738 [Eh]
	 SCS Correlation Energy    =      -2.0196438795978624 [Eh]
	 SCS Total Energy          =    -492.7150260735626262 [Eh]
	-----------------------------------------------------------

  Dipole Moment: [D]
     X:     0.3993      Y:     4.3761      Z:     0.0001     Total:     4.3943

*** Psi4 exiting successfully. Buy a developer a beer!
