                               Psi4 1.3.2 release

  ==> Input File <==

--------------------------------------------------------------------------
#psi4
#
memory 32 gb

molecule  {
0 1
  O        2.3111590    -1.3984000     0.0000580
  O       -2.2718830    -1.4902890    -0.0001310
  N        1.1826080     0.6255060     0.0000550
  N        0.0153410    -1.3761840    -0.0000340
  C       -1.2003176     0.6026376    -0.0000256
  C       -0.0319280     1.2897490     0.0000350
  C        1.2605820    -0.7608720     0.0000310
  C       -1.2542960    -0.7955090    -0.0000670
  C        2.4243390     1.3942650     0.0001240
  C       -2.5504790     1.3758010    -0.0000570
  H        0.1082944     2.3681142     0.0000708
  H        0.0461780    -2.3935470    -0.0000610
  H        2.4800130     2.0209940     0.8935150
  H        2.4798690     2.0213500    -0.8930780
  H        3.2466700     0.6823050    -0.0000520
  H       -3.1375530     1.0948740    -0.8785960
  H       -2.4103180     2.4605130    -0.0000230
  H       -3.1376190     1.0948280     0.8784230
units angstrom
no_reorient  #important for SAPT in psi4, default
symmetry c1  #important for SAPT in psi4, default
}

set PROPERTIES_ORIGIN ["COM"]
properties('MP2/aug-cc-pvtz', properties = ['dipole'])
--------------------------------------------------------------------------

    Molecular point group: c1
  Charge       = 0
  Multiplicity = 1
  Basis Set: AUG-CC-PVTZ
    Blend: AUG-CC-PVTZ
  Basis Set: (AUG-CC-PVTZ AUX)
    Blend: AUG-CC-PVTZ-JKFIT

    Orbital Energies [Eh]
    ---------------------

    Doubly Occupied:

       1A    -20.539864     2A    -20.535611     3A    -15.638818
       4A    -15.622769     5A    -11.413223     6A    -11.371159
       7A    -11.331462     8A    -11.287121     9A    -11.256797
      10A    -11.239078    11A     -1.424406    12A     -1.386240
      13A     -1.309030    14A     -1.243135    15A     -1.108070
      16A     -0.992933    17A     -0.959989    18A     -0.926009
      19A     -0.851287    20A     -0.773403    21A     -0.735398
      22A     -0.697783    23A     -0.683487    24A     -0.648750
      25A     -0.638540    26A     -0.616817    27A     -0.612334
      28A     -0.586079    29A     -0.579993    30A     -0.552831
      31A     -0.542727    32A     -0.535329    33A     -0.489609
      34A     -0.476885    35A     -0.445242    36A     -0.429585
      37A     -0.348033

  @DF-RHF Final Energy:  -490.70469836295268

   => Energetics <=

    Nuclear Repulsion Energy =            531.2478800307128495
    One-Electron Energy =               -1722.2455057695051437
    Two-Electron Energy =                 700.2929273758396675
    Total Energy =                       -490.7046983629526267
  Basis Set: (AUG-CC-PVTZ AUX)
    Blend: AUG-CC-PVTZ-RI
    Molecular point group: c1

    Geometry (in Angstrom), charge = 0, multiplicity = 1:

       Center              X                  Y                   Z               Mass
    ------------   -----------------  -----------------  -----------------  -----------------
         O            2.305083077850    -1.326853625026     0.000059345213    15.994914619570
         O           -2.277958922150    -1.418742625026    -0.000129654787    15.994914619570
         N            1.176532077850     0.697052374974     0.000056345213    14.003074004430
         N            0.009265077850    -1.304637625026    -0.000032654787    14.003074004430
         C           -1.206393522150     0.674183974974    -0.000024254787    12.000000000000
         C           -0.038003922150     1.361295374974     0.000036345213    12.000000000000
         C            1.254506077850    -0.689325625026     0.000032345213    12.000000000000
         C           -1.260371922150    -0.723962625026    -0.000065654787    12.000000000000
         C            2.418263077850     1.465811374974     0.000125345213    12.000000000000
         C           -2.556554922150     1.447347374974    -0.000055654787    12.000000000000
         H            0.102218477850     2.439660574974     0.000072145213     1.007825032230
         H            0.040102077850    -2.322000625026    -0.000059654787     1.007825032230
         H            2.473937077850     2.092540374974     0.893516345213     1.007825032230
         H            2.473793077850     2.092896374974    -0.893076654787     1.007825032230
         H            3.240594077850     0.753851374974    -0.000050654787     1.007825032230
         H           -3.143628922150     1.166420374974    -0.878594654787     1.007825032230
         H           -2.416393922150     2.532059374974    -0.000021654787     1.007825032230
         H           -3.143694922150     1.166374374974     0.878424345213     1.007825032230

  Basis Set: AUG-CC-PVTZ
    Blend: AUG-CC-PVTZ
  Basis Set: (AUG-CC-PVTZ AUX)
    Blend: AUG-CC-PVTZ-JKFIT
	 Reference Energy          =    -490.7046983629526835 [Eh]
	 Singles Energy            =      -0.0000000000000000 [Eh]
	 Same-Spin Energy          =      -0.5030480971599511 [Eh]
	 Opposite-Spin Energy      =      -1.5423577866344553 [Eh]
	 Correlation Energy        =      -2.0454058837944062 [Eh]
	 Total Energy              =    -492.7501042467470711 [Eh]

	 ================> DF-SCS-MP2 Energies <==================
	-----------------------------------------------------------
	 SCS Same-Spin Scale       =       0.3333333333333333 [-]
	 SCS Opposite-Spin Scale   =       1.2000000000000000 [-]
	 SCS Same-Spin Energy      =      -0.1676826990533170 [Eh]
	 SCS Opposite-Spin Energy  =      -1.8508293439613464 [Eh]
	 SCS Correlation Energy    =      -2.0185120430146632 [Eh]
	 SCS Total Energy          =    -492.7232104059673361 [Eh]
	-----------------------------------------------------------

  Dipole Moment: [D]
     X:     1.2056      Y:     4.6579      Z:     0.0002     Total:     4.8114

*** Psi4 exiting successfully. Buy a developer a beer!
