                               Psi4 1.3.2 release

  ==> Input File <==

--------------------------------------------------------------------------
#psi4
#
memory 32 gb

molecule  {
0 1
  O        2.3111590    -1.3984000     0.0000580
  O       -2.2718830    -1.4902890    -0.0001310
  N        1.1859513     0.6202104     0.0111549
  N        0.0153410    -1.3761840    -0.0000340
  C       -1.2346770     0.6647280    -0.0000250
  C       -0.0319280     1.2897490     0.0000350
  C        1.2605820    -0.7608720     0.0000310
  C       -1.2542960    -0.7955090    -0.0000670
  C        2.4243390     1.3942650     0.0001240
  C       -2.5504790     1.3758010    -0.0000570
  H        0.0516650     2.3739750     0.0000690
  H        0.0461780    -2.3935470    -0.0000610
  H        2.4800130     2.0209940     0.8935150
  H        2.4883278     2.0246616    -0.8901762
  H        3.2466700     0.6823050    -0.0000520
  H       -3.1375530     1.0948740    -0.8785960
  H       -2.4103180     2.4605130    -0.0000230
  H       -3.1376190     1.0948280     0.8784230
units angstrom
no_reorient  #important for SAPT in psi4, default
symmetry c1  #important for SAPT in psi4, default
}

set PROPERTIES_ORIGIN ["COM"]
properties('MP2/aug-cc-pvtz', properties = ['dipole'])
--------------------------------------------------------------------------

    Molecular point group: c1
  Charge       = 0
  Multiplicity = 1
  Basis Set: AUG-CC-PVTZ
    Blend: AUG-CC-PVTZ
  Basis Set: (AUG-CC-PVTZ AUX)
    Blend: AUG-CC-PVTZ-JKFIT

    Orbital Energies [Eh]
    ---------------------

    Doubly Occupied:

       1A    -20.539404     2A    -20.538935     3A    -15.638126
       4A    -15.624419     5A    -11.412797     6A    -11.376532
       7A    -11.325343     8A    -11.285784     9A    -11.260495
      10A    -11.237549    11A     -1.424027    12A     -1.387208
      13A     -1.305970    14A     -1.242655    15A     -1.109469
      16A     -0.993000    17A     -0.964582    18A     -0.914336
      19A     -0.852396    20A     -0.770847    21A     -0.735200
      22A     -0.691916    23A     -0.682008    24A     -0.649407
      25A     -0.637508    26A     -0.615414    27A     -0.609915
      28A     -0.589307    29A     -0.584168    30A     -0.555231
      31A     -0.548226    32A     -0.543323    33A     -0.487002
      34A     -0.474971    35A     -0.444452    36A     -0.430511
      37A     -0.346812

  @DF-RHF Final Energy:  -490.71206991473184

   => Energetics <=

    Nuclear Repulsion Energy =            530.3810902362499746
    One-Electron Energy =               -1720.5278330558533071
    Two-Electron Energy =                 699.4346729048714906
    Total Energy =                       -490.7120699147318419
  Basis Set: (AUG-CC-PVTZ AUX)
    Blend: AUG-CC-PVTZ-RI
    Molecular point group: c1

    Geometry (in Angstrom), charge = 0, multiplicity = 1:

       Center              X                  Y                   Z               Mass
    ------------   -----------------  -----------------  -----------------  -----------------
         O            2.308039297073    -1.331709980901    -0.001071343222    15.994914619570
         O           -2.275002702927    -1.423598980901    -0.001260343222    15.994914619570
         N            1.182831597073     0.686900419099     0.010025556778    14.003074004430
         N            0.012221297073    -1.309493980901    -0.001163343222    14.003074004430
         C           -1.237796702927     0.731418019099    -0.001154343222    12.000000000000
         C           -0.035047702927     1.356439019099    -0.001094343222    12.000000000000
         C            1.257462297073    -0.694181980901    -0.001098343222    12.000000000000
         C           -1.257415702927    -0.728818980901    -0.001196343222    12.000000000000
         C            2.421219297073     1.460955019099    -0.001005343222    12.000000000000
         C           -2.553598702927     1.442491019099    -0.001186343222    12.000000000000
         H            0.048545297073     2.440665019099    -0.001060343222     1.007825032230
         H            0.043058297073    -2.326856980901    -0.001190343222     1.007825032230
         H            2.476893297073     2.087684019099     0.892385656778     1.007825032230
         H            2.485208097073     2.091351619099    -0.891305543222     1.007825032230
         H            3.243550297073     0.748995019099    -0.001181343222     1.007825032230
         H           -3.140672702927     1.161564019099    -0.879725343222     1.007825032230
         H           -2.413437702927     2.527203019099    -0.001152343222     1.007825032230
         H           -3.140738702927     1.161518019099     0.877293656778     1.007825032230

  Basis Set: AUG-CC-PVTZ
    Blend: AUG-CC-PVTZ
  Basis Set: (AUG-CC-PVTZ AUX)
    Blend: AUG-CC-PVTZ-JKFIT
	 Reference Energy          =    -490.7120699147318419 [Eh]
	 Singles Energy            =      -0.0000000000000000 [Eh]
	 Same-Spin Energy          =      -0.5022968553740169 [Eh]
	 Opposite-Spin Energy      =      -1.5413676366809330 [Eh]
	 Correlation Energy        =      -2.0436644920549498 [Eh]
	 Total Energy              =    -492.7557344067868144 [Eh]

	 ================> DF-SCS-MP2 Energies <==================
	-----------------------------------------------------------
	 SCS Same-Spin Scale       =       0.3333333333333333 [-]
	 SCS Opposite-Spin Scale   =       1.2000000000000000 [-]
	 SCS Same-Spin Energy      =      -0.1674322851246723 [Eh]
	 SCS Opposite-Spin Energy  =      -1.8496411640171195 [Eh]
	 SCS Correlation Energy    =      -2.0170734491417917 [Eh]
	 SCS Total Energy          =    -492.7291433638736180 [Eh]
	-----------------------------------------------------------

  Dipole Moment: [D]
     X:     1.0064      Y:     4.5445      Z:    -0.0081     Total:     4.6546

*** Psi4 exiting successfully. Buy a developer a beer!
