                               Psi4 1.4a3.dev225

  ==> Input File <==

--------------------------------------------------------------------------
#psi4
#
memory 32 gb

molecule  {
0 1
  O        2.3212770    -1.3580180     0.0000020
  O       -2.2717460    -1.4962290     0.0000010
  N        1.1724310     0.6334210    -0.0000020
  N        0.0162060    -1.3769820    -0.0000020
  C       -1.2398930     0.6613320     0.0000000
  C       -0.0398910     1.2934770    -0.0000010
  C        1.2527440    -0.7526170    -0.0000010
  C       -1.2589250    -0.7964470     0.0000000
  C        2.4447950     1.3519700     0.0000010
  C       -2.5550880     1.3760200     0.0000010
  H        0.0277523     2.3282055    -0.0000010
  H        0.0457120    -2.3937650    -0.0000010
  H        2.2343430     2.4214070    -0.0000200
  H        3.0241620     1.0875710    -0.8862110
  H        3.0241420     1.0876020     0.8862360
  H       -3.1432670     1.0977880    -0.8790540
  H       -2.4120010     2.4600010     0.0000010
  H       -3.1432670     1.0977870     0.8790540
units angstrom
no_reorient  #important for SAPT in psi4, default
symmetry c1  #important for SAPT in psi4, default
}

set PROPERTIES_ORIGIN ["COM"]
properties('MP2/aug-cc-pvtz', properties = ['dipole'])
--------------------------------------------------------------------------

    Molecular point group: c1
  Charge       = 0
  Multiplicity = 1
  Basis Set: AUG-CC-PVTZ
    Blend: AUG-CC-PVTZ
  Basis Set: (AUG-CC-PVTZ AUX)
    Blend: AUG-CC-PVTZ-JKFIT

    Orbital Energies [Eh]
    ---------------------

    Doubly Occupied:

       1A    -20.540932     2A    -20.537947     3A    -15.638189
       4A    -15.624733     5A    -11.411225     6A    -11.375667
       7A    -11.320940     8A    -11.288805     9A    -11.257051
      10A    -11.236581    11A     -1.424732    12A     -1.387152
      13A     -1.306622    14A     -1.243554    15A     -1.109520
      16A     -0.993828    17A     -0.964303    18A     -0.917506
      19A     -0.852877    20A     -0.771342    21A     -0.735857
      22A     -0.701463    23A     -0.682937    24A     -0.650212
      25A     -0.638127    26A     -0.612687    27A     -0.611743
      28A     -0.590958    29A     -0.581362    30A     -0.557962
      31A     -0.547893    32A     -0.540090    33A     -0.491930
      34A     -0.475781    35A     -0.444202    36A     -0.430188
      37A     -0.343771

  @DF-RHF Final Energy:  -490.71186571152919

   => Energetics <=

    Nuclear Repulsion Energy =            531.0320142494047104
    One-Electron Energy =               -1721.8064195896108686
    Two-Electron Energy =                 700.0625396286769728
    Total Energy =                       -490.7118657115291853
  Basis Set: (AUG-CC-PVTZ AUX)
    Blend: AUG-CC-PVTZ-RI
    Molecular point group: c1

    Geometry (in Angstrom), charge = 0, multiplicity = 1:

       Center              X                  Y                   Z               Mass
    ------------   -----------------  -----------------  -----------------  -----------------
         O            2.318873599788    -1.292314956115     0.000002028533    15.994914619570
         O           -2.274149400212    -1.430525956115     0.000001028533    15.994914619570
         N            1.170027599788     0.699124043885    -0.000001971467    14.003074004430
         N            0.013802599788    -1.311278956115    -0.000001971467    14.003074004430
         C           -1.242296400212     0.727035043885     0.000000028533    12.000000000000
         C           -0.042294400212     1.359180043885    -0.000000971467    12.000000000000
         C            1.250340599788    -0.686913956115    -0.000000971467    12.000000000000
         C           -1.261328400212    -0.730743956115     0.000000028533    12.000000000000
         C            2.442391599788     1.417673043885     0.000001028533    12.000000000000
         C           -2.557491400212     1.441723043885     0.000001028533    12.000000000000
         H            0.025348899788     2.393908543885    -0.000000971467     1.007825032230
         H            0.043308599788    -2.328061956115    -0.000000971467     1.007825032230
         H            2.231939599788     2.487110043885    -0.000019971467     1.007825032230
         H            3.021758599788     1.153274043885    -0.886210971467     1.007825032230
         H            3.021738599788     1.153305043885     0.886236028533     1.007825032230
         H           -3.145670400212     1.163491043885    -0.879053971467     1.007825032230
         H           -2.414404400212     2.525704043885     0.000001028533     1.007825032230
         H           -3.145670400212     1.163490043885     0.879054028533     1.007825032230

  Basis Set: AUG-CC-PVTZ
    Blend: AUG-CC-PVTZ
  Basis Set: (AUG-CC-PVTZ AUX)
    Blend: AUG-CC-PVTZ-JKFIT
	 Reference Energy          =    -490.7118657115291853 [Eh]
	 Singles Energy            =      -0.0000000000000000 [Eh]
	 Same-Spin Energy          =      -0.5021940011418631 [Eh]
	 Opposite-Spin Energy      =      -1.5409281100948784 [Eh]
	 Correlation Energy        =      -2.0431221112367415 [Eh]
	 Total Energy              =    -492.7549878227659406 [Eh]

	 ================> DF-SCS-MP2 Energies <==================
	-----------------------------------------------------------
	 SCS Same-Spin Scale       =       0.3333333333333333 [-]
	 SCS Opposite-Spin Scale   =       1.2000000000000000 [-]
	 SCS Same-Spin Energy      =      -0.1673980003806210 [Eh]
	 SCS Opposite-Spin Energy  =      -1.8491137321138540 [Eh]
	 SCS Correlation Energy    =      -2.0165117324944748 [Eh]
	 SCS Total Energy          =    -492.7283774440236357 [Eh]
	-----------------------------------------------------------

  Dipole Moment: [D]
     X:     1.0923      Y:     4.5174      Z:    -0.0000     Total:     4.6476

*** Psi4 exiting successfully. Buy a developer a beer!
