                               Psi4 1.3.2 release

  ==> Input File <==

--------------------------------------------------------------------------
#psi4
#
memory 32 gb

molecule  {
0 1
  O        2.3111590    -1.3984000     0.0000580
  O       -2.2470156    -1.5253790    -0.0001309
  N        1.1826080     0.6255060     0.0000550
  N        0.0153410    -1.3761840    -0.0000340
  C       -1.1837274     0.6631538    -0.0000228
  C       -0.0319280     1.2897490     0.0000350
  C        1.2605820    -0.7608720     0.0000310
  C       -1.2542960    -0.7955090    -0.0000670
  C        2.4243390     1.3942650     0.0001240
  C       -2.5504790     1.3758010    -0.0000570
  H        0.0516650     2.3739750     0.0000690
  H        0.0461780    -2.3935470    -0.0000610
  H        2.4800130     2.0209940     0.8935150
  H        2.4798690     2.0213500    -0.8930780
  H        3.2466700     0.6823050    -0.0000520
  H       -3.1375530     1.0948740    -0.8785960
  H       -2.4103180     2.4605130    -0.0000230
  H       -3.1376190     1.0948280     0.8784230
units angstrom
no_reorient  #important for SAPT in psi4, default
symmetry c1  #important for SAPT in psi4, default
}

set PROPERTIES_ORIGIN ["COM"]
properties('MP2/aug-cc-pvtz', properties = ['dipole'])
--------------------------------------------------------------------------

    Molecular point group: c1
  Charge       = 0
  Multiplicity = 1
  Basis Set: AUG-CC-PVTZ
    Blend: AUG-CC-PVTZ
  Basis Set: (AUG-CC-PVTZ AUX)
    Blend: AUG-CC-PVTZ-JKFIT

    Orbital Energies [Eh]
    ---------------------

    Doubly Occupied:

       1A    -20.541404     2A    -20.538867     3A    -15.635234
       4A    -15.621761     5A    -11.411868     6A    -11.378406
       7A    -11.319855     8A    -11.284767     9A    -11.257904
      10A    -11.240698    11A     -1.423416    12A     -1.388457
      13A     -1.306950    14A     -1.240954    15A     -1.113377
      16A     -0.991149    17A     -0.961280    18A     -0.915418
      19A     -0.854787    20A     -0.774049    21A     -0.731831
      22A     -0.695486    23A     -0.681872    24A     -0.649391
      25A     -0.637722    26A     -0.614862    27A     -0.610676
      28A     -0.585791    29A     -0.581904    30A     -0.552499
      31A     -0.543834    32A     -0.543737    33A     -0.491276
      34A     -0.475283    35A     -0.444868    36A     -0.429167
      37A     -0.353942

  @DF-RHF Final Energy:  -490.70964068343227

   => Energetics <=

    Nuclear Repulsion Energy =            530.8571571077009139
    One-Electron Energy =               -1721.4841106110109195
    Two-Electron Energy =                 699.9173128198776794
    Total Energy =                       -490.7096406834323261
  Basis Set: (AUG-CC-PVTZ AUX)
    Blend: AUG-CC-PVTZ-RI
    Molecular point group: c1

    Geometry (in Angstrom), charge = 0, multiplicity = 1:

       Center              X                  Y                   Z               Mass
    ------------   -----------------  -----------------  -----------------  -----------------
         O            2.301229248813    -1.328073396853     0.000059106845    15.994914619570
         O           -2.256945351187    -1.455052396853    -0.000129793155    15.994914619570
         N            1.172678248813     0.695832603147     0.000056106845    14.003074004430
         N            0.005411248813    -1.305857396853    -0.000032893155    14.003074004430
         C           -1.193657151187     0.733480403147    -0.000021693155    12.000000000000
         C           -0.041857751187     1.360075603147     0.000036106845    12.000000000000
         C            1.250652248813    -0.690545396853     0.000032106845    12.000000000000
         C           -1.264225751187    -0.725182396853    -0.000065893155    12.000000000000
         C            2.414409248813     1.464591603147     0.000125106845    12.000000000000
         C           -2.560408751187     1.446127603147    -0.000055893155    12.000000000000
         H            0.041735248813     2.444301603147     0.000070106845     1.007825032230
         H            0.036248248813    -2.323220396853    -0.000059893155     1.007825032230
         H            2.470083248813     2.091320603147     0.893516106845     1.007825032230
         H            2.469939248813     2.091676603147    -0.893076893155     1.007825032230
         H            3.236740248813     0.752631603147    -0.000050893155     1.007825032230
         H           -3.147482751187     1.165200603147    -0.878594893155     1.007825032230
         H           -2.420247751187     2.530839603147    -0.000021893155     1.007825032230
         H           -3.147548751187     1.165154603147     0.878424106845     1.007825032230

  Basis Set: AUG-CC-PVTZ
    Blend: AUG-CC-PVTZ
  Basis Set: (AUG-CC-PVTZ AUX)
    Blend: AUG-CC-PVTZ-JKFIT
	 Reference Energy          =    -490.7096406834322693 [Eh]
	 Singles Energy            =      -0.0000000000000000 [Eh]
	 Same-Spin Energy          =      -0.5017063164423382 [Eh]
	 Opposite-Spin Energy      =      -1.5404803614262876 [Eh]
	 Correlation Energy        =      -2.0421866778686257 [Eh]
	 Total Energy              =    -492.7518273613009114 [Eh]

	 ================> DF-SCS-MP2 Energies <==================
	-----------------------------------------------------------
	 SCS Same-Spin Scale       =       0.3333333333333333 [-]
	 SCS Opposite-Spin Scale   =       1.2000000000000000 [-]
	 SCS Same-Spin Energy      =      -0.1672354388141127 [Eh]
	 SCS Opposite-Spin Energy  =      -1.8485764337115451 [Eh]
	 SCS Correlation Energy    =      -2.0158118725256577 [Eh]
	 SCS Total Energy          =    -492.7254525559579292 [Eh]
	-----------------------------------------------------------

  Dipole Moment: [D]
     X:     0.9553      Y:     4.5744      Z:     0.0002     Total:     4.6731

*** Psi4 exiting successfully. Buy a developer a beer!
