                               Psi4 1.4a3.dev225

  ==> Input File <==

--------------------------------------------------------------------------
#psi4
#
memory 32 gb

molecule  {
0 1
  O        2.3212770    -1.3580180     0.0000020
  O       -2.2717460    -1.4962290     0.0000010
  N        1.1724310     0.6334210    -0.0000020
  N        0.0162060    -1.3769820    -0.0000020
  C       -1.2398930     0.6613320     0.0000000
  C       -0.0398910     1.2934770    -0.0000010
  C        1.2527440    -0.7526170    -0.0000010
  C       -1.3000612    -0.8248690     0.0000000
  C        2.4447950     1.3519700     0.0000010
  C       -2.5550880     1.3760200     0.0000010
  H        0.0310140     2.3780990    -0.0000010
  H        0.0457120    -2.3937650    -0.0000010
  H        2.2343430     2.4214070    -0.0000200
  H        3.0241620     1.0875710    -0.8862110
  H        3.0241420     1.0876020     0.8862360
  H       -3.1432670     1.0977880    -0.8790540
  H       -2.4120010     2.4600010     0.0000010
  H       -3.1432670     1.0977870     0.8790540
units angstrom
no_reorient  #important for SAPT in psi4, default
symmetry c1  #important for SAPT in psi4, default
}

set PROPERTIES_ORIGIN ["COM"]
properties('MP2/aug-cc-pvtz', properties = ['dipole'])
--------------------------------------------------------------------------

    Molecular point group: c1
  Charge       = 0
  Multiplicity = 1
  Basis Set: AUG-CC-PVTZ
    Blend: AUG-CC-PVTZ
  Basis Set: (AUG-CC-PVTZ AUX)
    Blend: AUG-CC-PVTZ-JKFIT

    Orbital Energies [Eh]
    ---------------------

    Doubly Occupied:

       1A    -20.549485     2A    -20.537351     3A    -15.633690
       4A    -15.618089     5A    -11.408048     6A    -11.376607
       7A    -11.322183     8A    -11.285683     9A    -11.256006
      10A    -11.235487    11A     -1.432662    12A     -1.410982
      13A     -1.302674    14A     -1.237805    15A     -1.103210
      16A     -0.990871    17A     -0.959167    18A     -0.906055
      19A     -0.848518    20A     -0.767863    21A     -0.727516
      22A     -0.694096    23A     -0.679296    24A     -0.659118
      25A     -0.636479    26A     -0.615311    27A     -0.614127
      28A     -0.588281    29A     -0.579636    30A     -0.557681
      31A     -0.550753    32A     -0.549041    33A     -0.488745
      34A     -0.474259    35A     -0.445251    36A     -0.432802
      37A     -0.341174

  @DF-RHF Final Energy:  -490.71206561749693

   => Energetics <=

    Nuclear Repulsion Energy =            530.5009256240123250
    One-Electron Energy =               -1720.7939741941693228
    Two-Electron Energy =                 699.5809829526600652
    Total Energy =                       -490.7120656174969326
  Basis Set: (AUG-CC-PVTZ AUX)
    Blend: AUG-CC-PVTZ-RI
    Molecular point group: c1

    Geometry (in Angstrom), charge = 0, multiplicity = 1:

       Center              X                  Y                   Z               Mass
    ------------   -----------------  -----------------  -----------------  -----------------
         O            2.322374614762    -1.290238824207     0.000002028533    15.994914619570
         O           -2.270648385238    -1.428449824207     0.000001028533    15.994914619570
         N            1.173528614762     0.701200175793    -0.000001971467    14.003074004430
         N            0.017303614762    -1.309202824207    -0.000001971467    14.003074004430
         C           -1.238795385238     0.729111175793     0.000000028533    12.000000000000
         C           -0.038793385238     1.361256175793    -0.000000971467    12.000000000000
         C            1.253841614762    -0.684837824207    -0.000000971467    12.000000000000
         C           -1.298963585238    -0.757089824207     0.000000028533    12.000000000000
         C            2.445892614762     1.419749175793     0.000001028533    12.000000000000
         C           -2.553990385238     1.443799175793     0.000001028533    12.000000000000
         H            0.032111614762     2.445878175793    -0.000000971467     1.007825032230
         H            0.046809614762    -2.325985824207    -0.000000971467     1.007825032230
         H            2.235440614762     2.489186175793    -0.000019971467     1.007825032230
         H            3.025259614762     1.155350175793    -0.886210971467     1.007825032230
         H            3.025239614762     1.155381175793     0.886236028533     1.007825032230
         H           -3.142169385238     1.165567175793    -0.879053971467     1.007825032230
         H           -2.410903385238     2.527780175793     0.000001028533     1.007825032230
         H           -3.142169385238     1.165566175793     0.879054028533     1.007825032230

  Basis Set: AUG-CC-PVTZ
    Blend: AUG-CC-PVTZ
  Basis Set: (AUG-CC-PVTZ AUX)
    Blend: AUG-CC-PVTZ-JKFIT
	 Reference Energy          =    -490.7120656174969326 [Eh]
	 Singles Energy            =      -0.0000000000000000 [Eh]
	 Same-Spin Energy          =      -0.5011255468943292 [Eh]
	 Opposite-Spin Energy      =      -1.5392013727312639 [Eh]
	 Correlation Energy        =      -2.0403269196255929 [Eh]
	 Total Energy              =    -492.7523925371225459 [Eh]

	 ================> DF-SCS-MP2 Energies <==================
	-----------------------------------------------------------
	 SCS Same-Spin Scale       =       0.3333333333333333 [-]
	 SCS Opposite-Spin Scale   =       1.2000000000000000 [-]
	 SCS Same-Spin Energy      =      -0.1670418489647764 [Eh]
	 SCS Opposite-Spin Energy  =      -1.8470416472775166 [Eh]
	 SCS Correlation Energy    =      -2.0140834962422929 [Eh]
	 SCS Total Energy          =    -492.7261491137392113 [Eh]
	-----------------------------------------------------------

  Dipole Moment: [D]
     X:     0.6752      Y:     4.2827      Z:    -0.0000     Total:     4.3356

*** Psi4 exiting successfully. Buy a developer a beer!
