                               Psi4 1.4a3.dev225

  ==> Input File <==

--------------------------------------------------------------------------
#psi4
#
memory 32 gb

molecule  {
0 1
  O        2.3212770    -1.3580180     0.0000020
  O       -2.2717460    -1.4962290     0.0000010
  N        1.1724310     0.6334210    -0.0000020
  N        0.0162060    -1.3769820    -0.0000020
  C       -1.2398930     0.6613320     0.0000000
  C       -0.0398910     1.2934770    -0.0000010
  C        1.2527440    -0.7526170    -0.0000010
  C       -1.2589250    -0.7964470     0.0000000
  C        2.4447950     1.3519700     0.0000010
  C       -2.5550880     1.3760200     0.0000010
  H        0.0310140     2.3780990    -0.0000010
  H        0.0457120    -2.3937650    -0.0000010
  H        2.2343430     2.4214070    -0.0000200
  H        3.0241620     1.0875710    -0.8862110
  H        3.0241420     1.0876020     0.8862360
  H       -3.1325109     1.1028761    -0.8629786
  H       -2.4120010     2.4600010     0.0000010
  H       -3.1432670     1.0977870     0.8790540
units angstrom
no_reorient  #important for SAPT in psi4, default
symmetry c1  #important for SAPT in psi4, default
}

set PROPERTIES_ORIGIN ["COM"]
properties('MP2/aug-cc-pvtz', properties = ['dipole'])
--------------------------------------------------------------------------

    Molecular point group: c1
  Charge       = 0
  Multiplicity = 1
  Basis Set: AUG-CC-PVTZ
    Blend: AUG-CC-PVTZ
  Basis Set: (AUG-CC-PVTZ AUX)
    Blend: AUG-CC-PVTZ-JKFIT

    Orbital Energies [Eh]
    ---------------------

    Doubly Occupied:

       1A    -20.541085     2A    -20.538042     3A    -15.638523
       4A    -15.624824     5A    -11.411487     6A    -11.375900
       7A    -11.326348     8A    -11.288677     9A    -11.257033
      10A    -11.234127    11A     -1.424872    12A     -1.387269
      13A     -1.306499    14A     -1.243555    15A     -1.108861
      16A     -0.994026    17A     -0.963284    18A     -0.915054
      19A     -0.853306    20A     -0.770884    21A     -0.735483
      22A     -0.693713    23A     -0.683054    24A     -0.650258
      25A     -0.636701    26A     -0.613114    27A     -0.609246
      28A     -0.590971    29A     -0.583182    30A     -0.558007
      31A     -0.548727    32A     -0.540542    33A     -0.492199
      34A     -0.475507    35A     -0.444232    36A     -0.430320
      37A     -0.343957

  @DF-RHF Final Energy:  -490.71256623923318

   => Energetics <=

    Nuclear Repulsion Energy =            530.8389268336287614
    One-Electron Energy =               -1721.4372460404638332
    Two-Electron Energy =                 699.8857529676020022
    Total Energy =                       -490.7125662392331833
  Basis Set: (AUG-CC-PVTZ AUX)
    Blend: AUG-CC-PVTZ-RI
    Molecular point group: c1

    Geometry (in Angstrom), charge = 0, multiplicity = 1:

       Center              X                  Y                   Z               Mass
    ------------   -----------------  -----------------  -----------------  -----------------
         O            2.318772731351    -1.292710589384    -0.000113645857    15.994914619570
         O           -2.274250268649    -1.430921589384    -0.000114645857    15.994914619570
         N            1.169926731351     0.698728410616    -0.000117645857    14.003074004430
         N            0.013701731351    -1.311674589384    -0.000117645857    14.003074004430
         C           -1.242397268649     0.726639410616    -0.000115645857    12.000000000000
         C           -0.042395268649     1.358784410616    -0.000116645857    12.000000000000
         C            1.250239731351    -0.687309589384    -0.000116645857    12.000000000000
         C           -1.261429268649    -0.731139589384    -0.000115645857    12.000000000000
         C            2.442290731351     1.417277410616    -0.000114645857    12.000000000000
         C           -2.557592268649     1.441327410616    -0.000114645857    12.000000000000
         H            0.028509731351     2.443406410616    -0.000116645857     1.007825032230
         H            0.043207731351    -2.328457589384    -0.000116645857     1.007825032230
         H            2.231838731351     2.486714410616    -0.000135645857     1.007825032230
         H            3.021657731351     1.152878410616    -0.886326645857     1.007825032230
         H            3.021637731351     1.152909410616     0.886120354143     1.007825032230
         H           -3.135015168649     1.168183510616    -0.863094245857     1.007825032230
         H           -2.414505268649     2.525308410616    -0.000114645857     1.007825032230
         H           -3.145771268649     1.163094410616     0.878938354143     1.007825032230

  Basis Set: AUG-CC-PVTZ
    Blend: AUG-CC-PVTZ
  Basis Set: (AUG-CC-PVTZ AUX)
    Blend: AUG-CC-PVTZ-JKFIT
	 Reference Energy          =    -490.7125662392331833 [Eh]
	 Singles Energy            =      -0.0000000000000000 [Eh]
	 Same-Spin Energy          =      -0.5023596806489250 [Eh]
	 Opposite-Spin Energy      =      -1.5411732924813328 [Eh]
	 Correlation Energy        =      -2.0435329731302581 [Eh]
	 Total Energy              =    -492.7560992123634378 [Eh]

	 ================> DF-SCS-MP2 Energies <==================
	-----------------------------------------------------------
	 SCS Same-Spin Scale       =       0.3333333333333333 [-]
	 SCS Opposite-Spin Scale   =       1.2000000000000000 [-]
	 SCS Same-Spin Energy      =      -0.1674532268829750 [Eh]
	 SCS Opposite-Spin Energy  =      -1.8494079509775994 [Eh]
	 SCS Correlation Energy    =      -2.0168611778605743 [Eh]
	 SCS Total Energy          =    -492.7294274170937456 [Eh]
	-----------------------------------------------------------

  Dipole Moment: [D]
     X:     1.0896      Y:     4.5132      Z:    -0.0041     Total:     4.6428

*** Psi4 exiting successfully. Buy a developer a beer!
