                               Psi4 1.3.2 release

  ==> Input File <==

--------------------------------------------------------------------------
#psi4
#
memory 32 gb

molecule  {
0 1
  O        2.3111590    -1.3984000     0.0000580
  O       -2.2718830    -1.4902890    -0.0001310
  N        1.1826080     0.6255060     0.0000550
  N        0.0153410    -1.3761840    -0.0000340
  C       -1.2346770     0.6647280    -0.0000250
  C       -0.0319280     1.2897490     0.0000350
  C        1.2605820    -0.7608720     0.0000310
  C       -1.2542960    -0.7955090    -0.0000670
  C        2.5943878     1.4995427     0.0001334
  C       -2.5504790     1.3758010    -0.0000570
  H        0.0516650     2.3739750     0.0000690
  H        0.0461780    -2.3935470    -0.0000610
  H        2.4800130     2.0209940     0.8935150
  H        2.4798690     2.0213500    -0.8930780
  H        3.2466700     0.6823050    -0.0000520
  H       -3.1375530     1.0948740    -0.8785960
  H       -2.4103180     2.4605130    -0.0000230
  H       -3.1376190     1.0948280     0.8784230
units angstrom
no_reorient  #important for SAPT in psi4, default
symmetry c1  #important for SAPT in psi4, default
}

set PROPERTIES_ORIGIN ["COM"]
properties('MP2/aug-cc-pvtz', properties = ['dipole'])
--------------------------------------------------------------------------

    Molecular point group: c1
  Charge       = 0
  Multiplicity = 1
  Basis Set: AUG-CC-PVTZ
    Blend: AUG-CC-PVTZ
  Basis Set: (AUG-CC-PVTZ AUX)
    Blend: AUG-CC-PVTZ-JKFIT

    Orbital Energies [Eh]
    ---------------------

    Doubly Occupied:

       1A    -20.534898     2A    -20.532491     3A    -15.628267
       4A    -15.619067     5A    -11.406976     6A    -11.370377
       7A    -11.319757     8A    -11.300535     9A    -11.252053
      10A    -11.232720    11A     -1.415424    12A     -1.381068
      13A     -1.286995    14A     -1.227220    15A     -1.098790
      16A     -1.000683    17A     -0.957493    18A     -0.906254
      19A     -0.850559    20A     -0.760017    21A     -0.723396
      22A     -0.685714    23A     -0.680339    24A     -0.640878
      25A     -0.633455    26A     -0.624766    27A     -0.622834
      28A     -0.582023    29A     -0.581505    30A     -0.551019
      31A     -0.543256    32A     -0.535203    33A     -0.490194
      34A     -0.468795    35A     -0.438686    36A     -0.425999
      37A     -0.339197

  @DF-RHF Final Energy:  -490.68554260323742

   => Energetics <=

    Nuclear Repulsion Energy =            526.3821926653085939
    One-Electron Energy =               -1712.8376680168694293
    Two-Electron Energy =                 695.7699327483234129
    Total Energy =                       -490.6855426032374226
  Basis Set: (AUG-CC-PVTZ AUX)
    Blend: AUG-CC-PVTZ-RI
    Molecular point group: c1

    Geometry (in Angstrom), charge = 0, multiplicity = 1:

       Center              X                  Y                   Z               Mass
    ------------   -----------------  -----------------  -----------------  -----------------
         O            2.293864912557    -1.341235635017     0.000058501381    15.994914619570
         O           -2.289177087443    -1.433124635017    -0.000130498619    15.994914619570
         N            1.165313912557     0.682670364983     0.000055501381    14.003074004430
         N           -0.001953087443    -1.319019635017    -0.000033498619    14.003074004430
         C           -1.251971087443     0.721892364983    -0.000024498619    12.000000000000
         C           -0.049222087443     1.346913364983     0.000035501381    12.000000000000
         C            1.243287912557    -0.703707635017     0.000031501381    12.000000000000
         C           -1.271590087443    -0.738344635017    -0.000066498619    12.000000000000
         C            2.577093712557     1.556707064983     0.000133901381    12.000000000000
         C           -2.567773087443     1.432965364983    -0.000056498619    12.000000000000
         H            0.034370912557     2.431139364983     0.000069501381     1.007825032230
         H            0.028883912557    -2.336382635017    -0.000060498619     1.007825032230
         H            2.462718912557     2.078158364983     0.893515501381     1.007825032230
         H            2.462574912557     2.078514364983    -0.893077498619     1.007825032230
         H            3.229375912557     0.739469364983    -0.000051498619     1.007825032230
         H           -3.154847087443     1.152038364983    -0.878595498619     1.007825032230
         H           -2.427612087443     2.517677364983    -0.000022498619     1.007825032230
         H           -3.154913087443     1.151992364983     0.878423501381     1.007825032230

  Basis Set: AUG-CC-PVTZ
    Blend: AUG-CC-PVTZ
  Basis Set: (AUG-CC-PVTZ AUX)
    Blend: AUG-CC-PVTZ-JKFIT
	 Reference Energy          =    -490.6855426032374226 [Eh]
	 Singles Energy            =      -0.0000000000000000 [Eh]
	 Same-Spin Energy          =      -0.5022742963985815 [Eh]
	 Opposite-Spin Energy      =      -1.5427325146840181 [Eh]
	 Correlation Energy        =      -2.0450068110825996 [Eh]
	 Total Energy              =    -492.7305494143200235 [Eh]

	 ================> DF-SCS-MP2 Energies <==================
	-----------------------------------------------------------
	 SCS Same-Spin Scale       =       0.3333333333333333 [-]
	 SCS Opposite-Spin Scale   =       1.2000000000000000 [-]
	 SCS Same-Spin Energy      =      -0.1674247654661938 [Eh]
	 SCS Opposite-Spin Energy  =      -1.8512790176208216 [Eh]
	 SCS Correlation Energy    =      -2.0187037830870156 [Eh]
	 SCS Total Energy          =    -492.7042463863244279 [Eh]
	-----------------------------------------------------------

  Dipole Moment: [D]
     X:     1.5975      Y:     4.9255      Z:     0.0002     Total:     5.1781

*** Psi4 exiting successfully. Buy a developer a beer!
