                               Psi4 1.3.2 release

  ==> Input File <==

--------------------------------------------------------------------------
#psi4
#
memory 32 gb

molecule  {
0 1
  O        2.3111590    -1.3984000     0.0000580
  O       -2.2718830    -1.4902890    -0.0001310
  N        1.1826080     0.6255060     0.0000550
  N        0.0153410    -1.3761840    -0.0000340
  C       -1.2346770     0.6647280    -0.0000250
  C       -0.0319280     1.2897490     0.0000350
  C        1.2605820    -0.7608720     0.0000310
  C       -1.2542960    -0.7955090    -0.0000670
  C        2.4243390     1.3942650     0.0001240
  C       -2.5504790     1.3758010    -0.0000570
  H        0.0516650     2.3739750     0.0000690
  H        0.0461780    -2.3935470    -0.0000610
  H        2.4800130     2.0209940     0.8935150
  H        2.4697058     1.9065794    -0.7296020
  H        3.2466700     0.6823050    -0.0000520
  H       -3.1375530     1.0948740    -0.8785960
  H       -2.4103180     2.4605130    -0.0000230
  H       -3.1376190     1.0948280     0.8784230
units angstrom
no_reorient  #important for SAPT in psi4, default
symmetry c1  #important for SAPT in psi4, default
}

set PROPERTIES_ORIGIN ["COM"]
properties('MP2/aug-cc-pvtz', properties = ['dipole'])
--------------------------------------------------------------------------

    Molecular point group: c1
  Charge       = 0
  Multiplicity = 1
  Basis Set: AUG-CC-PVTZ
    Blend: AUG-CC-PVTZ
  Basis Set: (AUG-CC-PVTZ AUX)
    Blend: AUG-CC-PVTZ-JKFIT

    Orbital Energies [Eh]
    ---------------------

    Doubly Occupied:

       1A    -20.539726     2A    -20.537955     3A    -15.636714
       4A    -15.624006     5A    -11.412800     6A    -11.375689
       7A    -11.324910     8A    -11.261901     9A    -11.259026
      10A    -11.236815    11A     -1.423376    12A     -1.386432
      13A     -1.306716    14A     -1.242916    15A     -1.109672
      16A     -1.013788    17A     -0.965090    18A     -0.913777
      19A     -0.858039    20A     -0.771003    21A     -0.738994
      22A     -0.695914    23A     -0.689653    24A     -0.653331
      25A     -0.637456    26A     -0.628352    27A     -0.609188
      28A     -0.593642    29A     -0.584096    30A     -0.555678
      31A     -0.547698    32A     -0.544611    33A     -0.491340
      34A     -0.474631    35A     -0.443757    36A     -0.430105
      37A     -0.345686

  @DF-RHF Final Energy:  -490.67784658681154

   => Energetics <=

    Nuclear Repulsion Energy =            531.4418417969880011
    One-Electron Energy =               -1722.5104098742656333
    Two-Electron Energy =                 700.3907214904661487
    Total Energy =                       -490.6778465868114836
  Basis Set: (AUG-CC-PVTZ AUX)
    Blend: AUG-CC-PVTZ-RI
    Molecular point group: c1

    Geometry (in Angstrom), charge = 0, multiplicity = 1:

       Center              X                  Y                   Z               Mass
    ------------   -----------------  -----------------  -----------------  -----------------
         O            2.308507559683    -1.331389746902    -0.001117023945    15.994914619570
         O           -2.274534440317    -1.423278746902    -0.001306023945    15.994914619570
         N            1.179956559683     0.692516253098    -0.001120023945    14.003074004430
         N            0.012689559683    -1.309173746902    -0.001209023945    14.003074004430
         C           -1.237328440317     0.731738253098    -0.001200023945    12.000000000000
         C           -0.034579440317     1.356759253098    -0.001140023945    12.000000000000
         C            1.257930559683    -0.693861746902    -0.001144023945    12.000000000000
         C           -1.256947440317    -0.728498746902    -0.001242023945    12.000000000000
         C            2.421687559683     1.461275253098    -0.001051023945    12.000000000000
         C           -2.553130440317     1.442811253098    -0.001232023945    12.000000000000
         H            0.049013559683     2.440985253098    -0.001106023945     1.007825032230
         H            0.043526559683    -2.326536746902    -0.001236023945     1.007825032230
         H            2.477361559683     2.088004253098     0.892339976055     1.007825032230
         H            2.467054359683     1.973589653098    -0.730777023945     1.007825032230
         H            3.244018559683     0.749315253098    -0.001227023945     1.007825032230
         H           -3.140204440317     1.161884253098    -0.879771023945     1.007825032230
         H           -2.412969440317     2.527523253098    -0.001198023945     1.007825032230
         H           -3.140270440317     1.161838253098     0.877247976055     1.007825032230

  Basis Set: AUG-CC-PVTZ
    Blend: AUG-CC-PVTZ
  Basis Set: (AUG-CC-PVTZ AUX)
    Blend: AUG-CC-PVTZ-JKFIT
	 Reference Energy          =    -490.6778465868115404 [Eh]
	 Singles Energy            =      -0.0000000000000000 [Eh]
	 Same-Spin Energy          =      -0.5024992378558780 [Eh]
	 Opposite-Spin Energy      =      -1.5408462046466953 [Eh]
	 Correlation Energy        =      -2.0433454425025732 [Eh]
	 Total Energy              =    -492.7211920293141247 [Eh]

	 ================> DF-SCS-MP2 Energies <==================
	-----------------------------------------------------------
	 SCS Same-Spin Scale       =       0.3333333333333333 [-]
	 SCS Opposite-Spin Scale   =       1.2000000000000000 [-]
	 SCS Same-Spin Energy      =      -0.1674997459519593 [Eh]
	 SCS Opposite-Spin Energy  =      -1.8490154455760344 [Eh]
	 SCS Correlation Energy    =      -2.0165151915279935 [Eh]
	 SCS Total Energy          =    -492.6943617783395553 [Eh]
	-----------------------------------------------------------

  Dipole Moment: [D]
     X:     1.1043      Y:     4.5796      Z:    -0.0355     Total:     4.7110

*** Psi4 exiting successfully. Buy a developer a beer!
