                               Psi4 1.3.2 release

  ==> Input File <==

--------------------------------------------------------------------------
#psi4
#
memory 32 gb

molecule  {
0 1
  O        2.3111590    -1.3984000     0.0000580
  O       -2.2718830    -1.4902890    -0.0001310
  N        1.1826080     0.6255060     0.0000550
  N        0.0153410    -1.3761840    -0.0000340
  C       -1.2346770     0.6647280    -0.0000250
  C       -0.0319280     1.2897490     0.0000350
  C        1.2605820    -0.7608720     0.0000310
  C       -1.2491804    -0.7844516    -0.0000665
  C        2.4243390     1.3942650     0.0001240
  C       -2.5504790     1.3758010    -0.0000570
  H        0.0516650     2.3739750     0.0000690
  H        0.0550549    -2.3932392    -0.0000606
  H        2.4800130     2.0209940     0.8935150
  H        2.4798690     2.0213500    -0.8930780
  H        3.2466700     0.6823050    -0.0000520
  H       -3.1375530     1.0948740    -0.8785960
  H       -2.4103180     2.4605130    -0.0000230
  H       -3.1376190     1.0948280     0.8784230
units angstrom
no_reorient  #important for SAPT in psi4, default
symmetry c1  #important for SAPT in psi4, default
}

set PROPERTIES_ORIGIN ["COM"]
properties('MP2/aug-cc-pvtz', properties = ['dipole'])
--------------------------------------------------------------------------

    Molecular point group: c1
  Charge       = 0
  Multiplicity = 1
  Basis Set: AUG-CC-PVTZ
    Blend: AUG-CC-PVTZ
  Basis Set: (AUG-CC-PVTZ AUX)
    Blend: AUG-CC-PVTZ-JKFIT

    Orbital Energies [Eh]
    ---------------------

    Doubly Occupied:

       1A    -20.540894     2A    -20.536360     3A    -15.639299
       4A    -15.625235     5A    -11.413785     6A    -11.376186
       7A    -11.326681     8A    -11.286632     9A    -11.259764
      10A    -11.237510    11A     -1.424128    12A     -1.380749
      13A     -1.307324    14A     -1.242318    15A     -1.111096
      16A     -0.993729    17A     -0.964346    18A     -0.916821
      19A     -0.852460    20A     -0.771375    21A     -0.736707
      22A     -0.692716    23A     -0.682799    24A     -0.648262
      25A     -0.637347    26A     -0.615435    27A     -0.608436
      28A     -0.589088    29A     -0.584389    30A     -0.555911
      31A     -0.548211    32A     -0.540947    33A     -0.488774
      34A     -0.475516    35A     -0.443606    36A     -0.429205
      37A     -0.346766

  @DF-RHF Final Energy:  -490.71074486180294

   => Energetics <=

    Nuclear Repulsion Energy =            530.4347807987561509
    One-Electron Energy =               -1720.6294304124621704
    Two-Electron Energy =                 699.4839047519031965
    Total Energy =                       -490.7107448618029366
  Basis Set: (AUG-CC-PVTZ AUX)
    Blend: AUG-CC-PVTZ-RI
    Molecular point group: c1

    Geometry (in Angstrom), charge = 0, multiplicity = 1:

       Center              X                  Y                   Z               Mass
    ------------   -----------------  -----------------  -----------------  -----------------
         O            2.307932255472    -1.333165201834     0.000059261041    15.994914619570
         O           -2.275109744528    -1.425054201834    -0.000129738959    15.994914619570
         N            1.179381255472     0.690740798166     0.000056261041    14.003074004430
         N            0.012114255472    -1.310949201834    -0.000032738959    14.003074004430
         C           -1.237903744528     0.729962798166    -0.000023738959    12.000000000000
         C           -0.035154744528     1.354983798166     0.000036261041    12.000000000000
         C            1.257355255472    -0.695637201834     0.000032261041    12.000000000000
         C           -1.252407144528    -0.719216801834    -0.000065238959    12.000000000000
         C            2.421112255472     1.459499798166     0.000125261041    12.000000000000
         C           -2.553705744528     1.441035798166    -0.000055738959    12.000000000000
         H            0.048438255472     2.439209798166     0.000070261041     1.007825032230
         H            0.051828155472    -2.328004401834    -0.000059338959     1.007825032230
         H            2.476786255472     2.086228798166     0.893516261041     1.007825032230
         H            2.476642255472     2.086584798166    -0.893076738959     1.007825032230
         H            3.243443255472     0.747539798166    -0.000050738959     1.007825032230
         H           -3.140779744528     1.160108798166    -0.878594738959     1.007825032230
         H           -2.413544744528     2.525747798166    -0.000021738959     1.007825032230
         H           -3.140845744528     1.160062798166     0.878424261041     1.007825032230

  Basis Set: AUG-CC-PVTZ
    Blend: AUG-CC-PVTZ
  Basis Set: (AUG-CC-PVTZ AUX)
    Blend: AUG-CC-PVTZ-JKFIT
	 Reference Energy          =    -490.7107448618029366 [Eh]
	 Singles Energy            =      -0.0000000000000000 [Eh]
	 Same-Spin Energy          =      -0.5027222614630936 [Eh]
	 Opposite-Spin Energy      =      -1.5420135149612422 [Eh]
	 Correlation Energy        =      -2.0447357764243357 [Eh]
	 Total Energy              =    -492.7554806382272545 [Eh]

	 ================> DF-SCS-MP2 Energies <==================
	-----------------------------------------------------------
	 SCS Same-Spin Scale       =       0.3333333333333333 [-]
	 SCS Opposite-Spin Scale   =       1.2000000000000000 [-]
	 SCS Same-Spin Energy      =      -0.1675740871543645 [Eh]
	 SCS Opposite-Spin Energy  =      -1.8504162179534904 [Eh]
	 SCS Correlation Energy    =      -2.0179903051078552 [Eh]
	 SCS Total Energy          =    -492.7287351669107807 [Eh]
	-----------------------------------------------------------

  Dipole Moment: [D]
     X:     1.1175      Y:     4.5919      Z:     0.0002     Total:     4.7259

*** Psi4 exiting successfully. Buy a developer a beer!
