                               Psi4 1.3.2 release

  ==> Input File <==

--------------------------------------------------------------------------
#psi4
#
memory 32 gb

molecule  {
0 1
  O        2.3111590    -1.3984000     0.0000580
  O       -2.2718830    -1.4902890    -0.0001310
  N        1.1947092     0.6261337     0.0000555
  N        0.0207580    -1.3870272    -0.0000340
  C       -1.2346770     0.6647280    -0.0000250
  C       -0.0319280     1.2897490     0.0000350
  C        1.2605820    -0.7608720     0.0000310
  C       -1.2542960    -0.7955090    -0.0000670
  C        2.4243390     1.3942650     0.0001240
  C       -2.5504790     1.3758010    -0.0000570
  H        0.0516650     2.3739750     0.0000690
  H        0.0461780    -2.3935470    -0.0000610
  H        2.4800130     2.0209940     0.8935150
  H        2.4798690     2.0213500    -0.8930780
  H        3.2466700     0.6823050    -0.0000520
  H       -3.1375530     1.0948740    -0.8785960
  H       -2.4103180     2.4605130    -0.0000230
  H       -3.1376190     1.0948280     0.8784230
units angstrom
no_reorient  #important for SAPT in psi4, default
symmetry c1  #important for SAPT in psi4, default
}

set PROPERTIES_ORIGIN ["COM"]
properties('MP2/aug-cc-pvtz', properties = ['dipole'])
--------------------------------------------------------------------------

    Molecular point group: c1
  Charge       = 0
  Multiplicity = 1
  Basis Set: AUG-CC-PVTZ
    Blend: AUG-CC-PVTZ
  Basis Set: (AUG-CC-PVTZ AUX)
    Blend: AUG-CC-PVTZ-JKFIT

    Orbital Energies [Eh]
    ---------------------

    Doubly Occupied:

       1A    -20.540324     2A    -20.538605     3A    -15.637869
       4A    -15.623814     5A    -11.412615     6A    -11.377828
       7A    -11.326081     8A    -11.284675     9A    -11.261374
      10A    -11.238137    11A     -1.423162    12A     -1.387582
      13A     -1.304637    14A     -1.242575    15A     -1.110120
      16A     -0.993399    17A     -0.962982    18A     -0.914231
      19A     -0.850678    20A     -0.770799    21A     -0.737525
      22A     -0.691915    23A     -0.681707    24A     -0.651030
      25A     -0.636630    26A     -0.615450    27A     -0.611828
      28A     -0.589132    29A     -0.584440    30A     -0.555419
      31A     -0.548965    32A     -0.542872    33A     -0.485844
      34A     -0.474679    35A     -0.444583    36A     -0.430491
      37A     -0.347164

  @DF-RHF Final Energy:  -490.71205175661953

   => Energetics <=

    Nuclear Repulsion Energy =            530.0505451363792417
    One-Electron Energy =               -1719.8628731834664904
    Two-Electron Energy =                 699.1002762904677184
    Total Energy =                       -490.7120517566195304
  Basis Set: (AUG-CC-PVTZ AUX)
    Blend: AUG-CC-PVTZ-RI
    Molecular point group: c1

    Geometry (in Angstrom), charge = 0, multiplicity = 1:

       Center              X                  Y                   Z               Mass
    ------------   -----------------  -----------------  -----------------  -----------------
         O            2.306682956128    -1.331194259276     0.000059256768    15.994914619570
         O           -2.276359043872    -1.423083259276    -0.000129743232    15.994914619570
         N            1.190233156128     0.693339440724     0.000056756768    14.003074004430
         N            0.016281956128    -1.319821459276    -0.000032743232    14.003074004430
         C           -1.239153043872     0.731933740724    -0.000023743232    12.000000000000
         C           -0.036404043872     1.356954740724     0.000036256768    12.000000000000
         C            1.256105956128    -0.693666259276     0.000032256768    12.000000000000
         C           -1.258772043872    -0.728303259276    -0.000065743232    12.000000000000
         C            2.419862956128     1.461470740724     0.000125256768    12.000000000000
         C           -2.554955043872     1.443006740724    -0.000055743232    12.000000000000
         H            0.047188956128     2.441180740724     0.000070256768     1.007825032230
         H            0.041701956128    -2.326341259276    -0.000059743232     1.007825032230
         H            2.475536956128     2.088199740724     0.893516256768     1.007825032230
         H            2.475392956128     2.088555740724    -0.893076743232     1.007825032230
         H            3.242193956128     0.749510740724    -0.000050743232     1.007825032230
         H           -3.142029043872     1.162079740724    -0.878594743232     1.007825032230
         H           -2.414794043872     2.527718740724    -0.000021743232     1.007825032230
         H           -3.142095043872     1.162033740724     0.878424256768     1.007825032230

  Basis Set: AUG-CC-PVTZ
    Blend: AUG-CC-PVTZ
  Basis Set: (AUG-CC-PVTZ AUX)
    Blend: AUG-CC-PVTZ-JKFIT
	 Reference Energy          =    -490.7120517566195304 [Eh]
	 Singles Energy            =      -0.0000000000000000 [Eh]
	 Same-Spin Energy          =      -0.5021205204133352 [Eh]
	 Opposite-Spin Energy      =      -1.5412233977547218 [Eh]
	 Correlation Energy        =      -2.0433439181680573 [Eh]
	 Total Energy              =    -492.7553956747875645 [Eh]

	 ================> DF-SCS-MP2 Energies <==================
	-----------------------------------------------------------
	 SCS Same-Spin Scale       =       0.3333333333333333 [-]
	 SCS Opposite-Spin Scale   =       1.2000000000000000 [-]
	 SCS Same-Spin Energy      =      -0.1673735068044451 [Eh]
	 SCS Opposite-Spin Energy  =      -1.8494680773056662 [Eh]
	 SCS Correlation Energy    =      -2.0168415841101113 [Eh]
	 SCS Total Energy          =    -492.7288933407296554 [Eh]
	-----------------------------------------------------------

  Dipole Moment: [D]
     X:     0.9343      Y:     4.5287      Z:     0.0002     Total:     4.6241

*** Psi4 exiting successfully. Buy a developer a beer!
