                               Psi4 1.3.2 release

  ==> Input File <==

--------------------------------------------------------------------------
#psi4
#
memory 32 gb

molecule  {
0 1
  C       -0.4111520    -0.7126550     0.0000000
  C       -1.9318910    -0.8068500     0.0000000
  C       -2.4211380    -2.2516450     0.0000000
  N        0.0000000     0.6708000     0.0000000
  C        1.2895240     1.1529650     0.0000000
  N        1.4680370     2.4337510     0.0000000
  N        2.2639170     0.1721360     0.0000000
  H       -0.0251680    -1.2402640     0.8864350
  H       -0.0251680    -1.2402640    -0.8864350
  H       -2.3164570    -0.2812890     0.8815700
  H       -2.3164570    -0.2812890    -0.8815700
  H       -3.5133300    -2.2957770     0.0000000
  H       -2.0641790    -2.7865400    -0.8851380
  H       -2.0641790    -2.7865400     0.8851380
  H       -0.7011600     1.3990150     0.2000000
  H        2.4653750     2.6550960     0.0000000
  H        2.0510630    -0.8112120     0.0000000
  H        3.2339250     0.4413680     0.0000000
units angstrom
no_reorient  #important for SAPT in psi4, default
symmetry c1  #important for SAPT in psi4, default
}

set PROPERTIES_ORIGIN ["COM"]
properties('MP2/aug-cc-pvtz', properties = ['dipole'])
--------------------------------------------------------------------------

    Molecular point group: c1
  Charge       = 0
  Multiplicity = 1
  Basis Set: AUG-CC-PVTZ
    Blend: AUG-CC-PVTZ
  Basis Set: (AUG-CC-PVTZ AUX)
    Blend: AUG-CC-PVTZ-JKFIT

    Orbital Energies [Eh]
    ---------------------

    Doubly Occupied:

       1A    -15.577277     2A    -15.563949     3A    -15.491408
       4A    -11.340738     5A    -11.270869     6A    -11.235606
       7A    -11.226071     8A     -1.292099     9A     -1.180822
      10A     -1.124736    11A     -1.055552    12A     -0.931842
      13A     -0.825670    14A     -0.804203    15A     -0.721635
      16A     -0.691336    17A     -0.663593    18A     -0.626637
      19A     -0.600166    20A     -0.587055    21A     -0.564248
      22A     -0.531588    23A     -0.514020    24A     -0.492184
      25A     -0.488653    26A     -0.412134    27A     -0.403133
      28A     -0.331081

  @DF-RHF Final Energy:  -321.34266344218400

   => Energetics <=

    Nuclear Repulsion Energy =            308.8427698950559943
    One-Electron Energy =               -1047.2742532616855442
    Two-Electron Energy =                 417.0888199244455450
    Total Energy =                       -321.3426634421840049
  Basis Set: (AUG-CC-PVTZ AUX)
    Blend: AUG-CC-PVTZ-RI
    Molecular point group: c1

    Geometry (in Angstrom), charge = 0, multiplicity = 1:

       Center              X                  Y                   Z               Mass
    ------------   -----------------  -----------------  -----------------  -----------------
         C           -0.463042902775    -0.783689140887    -0.001993811895    12.000000000000
         C           -1.983781902775    -0.877884140887    -0.001993811895    12.000000000000
         C           -2.473028902775    -2.322679140887    -0.001993811895    12.000000000000
         N           -0.051890902775     0.599765859113    -0.001993811895    14.003074004430
         C            1.237633097225     1.081930859113    -0.001993811895    12.000000000000
         N            1.416146097225     2.362716859113    -0.001993811895    14.003074004430
         N            2.212026097225     0.101101859113    -0.001993811895    14.003074004430
         H           -0.077058902775    -1.311298140887     0.884441188105     1.007825032230
         H           -0.077058902775    -1.311298140887    -0.888428811895     1.007825032230
         H           -2.368347902775    -0.352323140887     0.879576188105     1.007825032230
         H           -2.368347902775    -0.352323140887    -0.883563811895     1.007825032230
         H           -3.565220902775    -2.366811140887    -0.001993811895     1.007825032230
         H           -2.116069902775    -2.857574140887    -0.887131811895     1.007825032230
         H           -2.116069902775    -2.857574140887     0.883144188105     1.007825032230
         H           -0.753050902775     1.327980859113     0.198006188105     1.007825032230
         H            2.413484097225     2.584061859113    -0.001993811895     1.007825032230
         H            1.999172097225    -0.882246140887    -0.001993811895     1.007825032230
         H            3.182034097225     0.370333859113    -0.001993811895     1.007825032230

  Basis Set: AUG-CC-PVTZ
    Blend: AUG-CC-PVTZ
  Basis Set: (AUG-CC-PVTZ AUX)
    Blend: AUG-CC-PVTZ-JKFIT
	 Reference Energy          =    -321.3426634421840049 [Eh]
	 Singles Energy            =      -0.0000000000000000 [Eh]
	 Same-Spin Energy          =      -0.3380726150861455 [Eh]
	 Opposite-Spin Energy      =      -1.1257274210562049 [Eh]
	 Correlation Energy        =      -1.4638000361423504 [Eh]
	 Total Energy              =    -322.8064634783263500 [Eh]

	 ================> DF-SCS-MP2 Energies <==================
	-----------------------------------------------------------
	 SCS Same-Spin Scale       =       0.3333333333333333 [-]
	 SCS Opposite-Spin Scale   =       1.2000000000000000 [-]
	 SCS Same-Spin Energy      =      -0.1126908716953818 [Eh]
	 SCS Opposite-Spin Energy  =      -1.3508729052674460 [Eh]
	 SCS Correlation Energy    =      -1.4635637769628278 [Eh]
	 SCS Total Energy          =    -322.8062272191468196 [Eh]
	-----------------------------------------------------------

  Dipole Moment: [D]
     X:     0.1063      Y:    -3.8836      Z:     0.2273     Total:     3.8917

*** Psi4 exiting successfully. Buy a developer a beer!
