                               Psi4 1.3.2 release

  ==> Input File <==

--------------------------------------------------------------------------
#psi4
#
memory 32 gb

molecule  {
0 1
  C       -0.4111520    -0.7126550     0.0000000
  C       -1.9318910    -0.8068500     0.0000000
  C       -2.4211380    -2.2516450     0.0000000
  N        0.0000000     0.6708000     0.0000000
  C        1.2895240     1.1529650     0.0000000
  N        1.4680370     2.4337510     0.0000000
  N        2.2639170     0.1721360     0.0000000
  H       -0.0251680    -1.2402640     0.8864350
  H       -0.0251680    -1.2402640    -0.8864350
  H       -2.3164570    -0.2812890     0.8815700
  H       -2.3164570    -0.2812890    -0.8815700
  H       -3.5133300    -2.2957770     0.0000000
  H       -2.0641790    -2.7865400    -0.8851380
  H       -2.0641790    -2.7865400     0.8851380
  H       -0.7011600     1.3990150     0.3000000
  H        2.4653750     2.6550960     0.0000000
  H        2.0510630    -0.8112120     0.0000000
  H        3.2339250     0.4413680     0.0000000
units angstrom
no_reorient  #important for SAPT in psi4, default
symmetry c1  #important for SAPT in psi4, default
}

set PROPERTIES_ORIGIN ["COM"]
properties('MP2/aug-cc-pvtz', properties = ['dipole'])
--------------------------------------------------------------------------

    Molecular point group: c1
  Charge       = 0
  Multiplicity = 1
  Basis Set: AUG-CC-PVTZ
    Blend: AUG-CC-PVTZ
  Basis Set: (AUG-CC-PVTZ AUX)
    Blend: AUG-CC-PVTZ-JKFIT

    Orbital Energies [Eh]
    ---------------------

    Doubly Occupied:

       1A    -15.577434     2A    -15.565784     3A    -15.491836
       4A    -11.340729     5A    -11.270565     6A    -11.235256
       7A    -11.225851     8A     -1.291493     9A     -1.179475
      10A     -1.124896    11A     -1.055014    12A     -0.931376
      13A     -0.824597    14A     -0.801335    15A     -0.721496
      16A     -0.691168    17A     -0.664156    18A     -0.623165
      19A     -0.600264    20A     -0.587102    21A     -0.561193
      22A     -0.531402    23A     -0.513779    24A     -0.491841
      25A     -0.488426    26A     -0.412356    27A     -0.403084
      28A     -0.331570

  @DF-RHF Final Energy:  -321.34024673196996

   => Energetics <=

    Nuclear Repulsion Energy =            308.7249197242764467
    One-Electron Energy =               -1047.0570444646405122
    Two-Electron Energy =                 416.9918780083941101
    Total Energy =                       -321.3402467319699554
  Basis Set: (AUG-CC-PVTZ AUX)
    Blend: AUG-CC-PVTZ-RI
    Molecular point group: c1

    Geometry (in Angstrom), charge = 0, multiplicity = 1:

       Center              X                  Y                   Z               Mass
    ------------   -----------------  -----------------  -----------------  -----------------
         C           -0.463042902775    -0.783689140887    -0.002990717843    12.000000000000
         C           -1.983781902775    -0.877884140887    -0.002990717843    12.000000000000
         C           -2.473028902775    -2.322679140887    -0.002990717843    12.000000000000
         N           -0.051890902775     0.599765859113    -0.002990717843    14.003074004430
         C            1.237633097225     1.081930859113    -0.002990717843    12.000000000000
         N            1.416146097225     2.362716859113    -0.002990717843    14.003074004430
         N            2.212026097225     0.101101859113    -0.002990717843    14.003074004430
         H           -0.077058902775    -1.311298140887     0.883444282157     1.007825032230
         H           -0.077058902775    -1.311298140887    -0.889425717843     1.007825032230
         H           -2.368347902775    -0.352323140887     0.878579282157     1.007825032230
         H           -2.368347902775    -0.352323140887    -0.884560717843     1.007825032230
         H           -3.565220902775    -2.366811140887    -0.002990717843     1.007825032230
         H           -2.116069902775    -2.857574140887    -0.888128717843     1.007825032230
         H           -2.116069902775    -2.857574140887     0.882147282157     1.007825032230
         H           -0.753050902775     1.327980859113     0.297009282157     1.007825032230
         H            2.413484097225     2.584061859113    -0.002990717843     1.007825032230
         H            1.999172097225    -0.882246140887    -0.002990717843     1.007825032230
         H            3.182034097225     0.370333859113    -0.002990717843     1.007825032230

  Basis Set: AUG-CC-PVTZ
    Blend: AUG-CC-PVTZ
  Basis Set: (AUG-CC-PVTZ AUX)
    Blend: AUG-CC-PVTZ-JKFIT
	 Reference Energy          =    -321.3402467319699554 [Eh]
	 Singles Energy            =      -0.0000000000000000 [Eh]
	 Same-Spin Energy          =      -0.3382611167069121 [Eh]
	 Opposite-Spin Energy      =      -1.1261871754232082 [Eh]
	 Correlation Energy        =      -1.4644482921301203 [Eh]
	 Total Energy              =    -322.8046950241000559 [Eh]

	 ================> DF-SCS-MP2 Energies <==================
	-----------------------------------------------------------
	 SCS Same-Spin Scale       =       0.3333333333333333 [-]
	 SCS Opposite-Spin Scale   =       1.2000000000000000 [-]
	 SCS Same-Spin Energy      =      -0.1127537055689707 [Eh]
	 SCS Opposite-Spin Energy  =      -1.3514246105078498 [Eh]
	 SCS Correlation Energy    =      -1.4641783160768205 [Eh]
	 SCS Total Energy          =    -322.8044250480467667 [Eh]
	-----------------------------------------------------------

  Dipole Moment: [D]
     X:     0.1393      Y:    -3.8765      Z:     0.3371     Total:     3.8936

*** Psi4 exiting successfully. Buy a developer a beer!
