                               Psi4 1.3.2 release

  ==> Input File <==

--------------------------------------------------------------------------
#psi4
#
memory 32 gb

molecule  {
0 1
  C       -0.4111520    -0.7126550     0.0000000
  C       -1.9318910    -0.8068500     0.0000000
  C       -2.4211380    -2.2516450     0.0000000
  N        0.0000000     0.6708000     0.0000000
  C        1.2895240     1.1529650     0.0000000
  N        1.4680370     2.4337510     0.0000000
  N        2.2639170     0.1721360    -0.1500000
  H       -0.0251680    -1.2402640     0.8864350
  H       -0.0251680    -1.2402640    -0.8864350
  H       -2.3164570    -0.2812890     0.8815700
  H       -2.3164570    -0.2812890    -0.8815700
  H       -3.5133300    -2.2957770     0.0000000
  H       -2.0641790    -2.7865400    -0.8851380
  H       -2.0641790    -2.7865400     0.8851380
  H       -0.7011600     1.3990150     0.0000000
  H        2.4653750     2.6550960     0.0000000
  H        2.0510630    -0.8112120     0.0000000
  H        3.2339250     0.4413680     0.0000000
units angstrom
no_reorient  #important for SAPT in psi4, default
symmetry c1  #important for SAPT in psi4, default
}

set PROPERTIES_ORIGIN ["COM"]
properties('MP2/aug-cc-pvtz', properties = ['dipole'])
--------------------------------------------------------------------------

    Molecular point group: c1
  Charge       = 0
  Multiplicity = 1
  Basis Set: AUG-CC-PVTZ
    Blend: AUG-CC-PVTZ
  Basis Set: (AUG-CC-PVTZ AUX)
    Blend: AUG-CC-PVTZ-JKFIT

    Orbital Energies [Eh]
    ---------------------

    Doubly Occupied:

       1A    -15.579562     2A    -15.563015     3A    -15.493147
       4A    -11.341056     5A    -11.271189     6A    -11.235961
       7A    -11.226282     8A     -1.291677     9A     -1.180604
      10A     -1.124610    11A     -1.056168    12A     -0.932359
      13A     -0.826739    14A     -0.803420    15A     -0.715178
      16A     -0.689784    17A     -0.663033    18A     -0.627434
      19A     -0.600450    20A     -0.586476    21A     -0.566699
      22A     -0.531293    23A     -0.514321    24A     -0.492515
      25A     -0.488911    26A     -0.413115    27A     -0.405632
      28A     -0.331840

  @DF-RHF Final Energy:  -321.34284710835243

   => Energetics <=

    Nuclear Repulsion Energy =            308.6990966594034944
    One-Electron Energy =               -1046.9789437951169475
    Two-Electron Energy =                 416.9370000273610231
    Total Energy =                       -321.3428471083524300
  Basis Set: (AUG-CC-PVTZ AUX)
    Blend: AUG-CC-PVTZ-RI
    Molecular point group: c1

    Geometry (in Angstrom), charge = 0, multiplicity = 1:

       Center              X                  Y                   Z               Mass
    ------------   -----------------  -----------------  -----------------  -----------------
         C           -0.463042902775    -0.783689140887     0.020777040628    12.000000000000
         C           -1.983781902775    -0.877884140887     0.020777040628    12.000000000000
         C           -2.473028902775    -2.322679140887     0.020777040628    12.000000000000
         N           -0.051890902775     0.599765859113     0.020777040628    14.003074004430
         C            1.237633097225     1.081930859113     0.020777040628    12.000000000000
         N            1.416146097225     2.362716859113     0.020777040628    14.003074004430
         N            2.212026097225     0.101101859113    -0.129222959372    14.003074004430
         H           -0.077058902775    -1.311298140887     0.907212040628     1.007825032230
         H           -0.077058902775    -1.311298140887    -0.865657959372     1.007825032230
         H           -2.368347902775    -0.352323140887     0.902347040628     1.007825032230
         H           -2.368347902775    -0.352323140887    -0.860792959372     1.007825032230
         H           -3.565220902775    -2.366811140887     0.020777040628     1.007825032230
         H           -2.116069902775    -2.857574140887    -0.864360959372     1.007825032230
         H           -2.116069902775    -2.857574140887     0.905915040628     1.007825032230
         H           -0.753050902775     1.327980859113     0.020777040628     1.007825032230
         H            2.413484097225     2.584061859113     0.020777040628     1.007825032230
         H            1.999172097225    -0.882246140887     0.020777040628     1.007825032230
         H            3.182034097225     0.370333859113     0.020777040628     1.007825032230

  Basis Set: AUG-CC-PVTZ
    Blend: AUG-CC-PVTZ
  Basis Set: (AUG-CC-PVTZ AUX)
    Blend: AUG-CC-PVTZ-JKFIT
	 Reference Energy          =    -321.3428471083524300 [Eh]
	 Singles Energy            =      -0.0000000000000000 [Eh]
	 Same-Spin Energy          =      -0.3380320070926964 [Eh]
	 Opposite-Spin Energy      =      -1.1259598068751600 [Eh]
	 Correlation Energy        =      -1.4639918139678563 [Eh]
	 Total Energy              =    -322.8068389223203098 [Eh]

	 ================> DF-SCS-MP2 Energies <==================
	-----------------------------------------------------------
	 SCS Same-Spin Scale       =       0.3333333333333333 [-]
	 SCS Opposite-Spin Scale   =       1.2000000000000000 [-]
	 SCS Same-Spin Energy      =      -0.1126773356975655 [Eh]
	 SCS Opposite-Spin Energy  =      -1.3511517682501919 [Eh]
	 SCS Correlation Energy    =      -1.4638291039477573 [Eh]
	 SCS Total Energy          =    -322.8066762123002036 [Eh]
	-----------------------------------------------------------

  Dipole Moment: [D]
     X:     0.0302      Y:    -3.8192      Z:     0.3653     Total:     3.8368

*** Psi4 exiting successfully. Buy a developer a beer!
