                               Psi4 1.3.2 release

  ==> Input File <==

--------------------------------------------------------------------------
#psi4
#
memory 32 gb

molecule  {
0 1
  C       -0.4111520    -0.7126550     0.0000000
  C       -1.9318910    -0.8068500     0.0000000
  C       -2.4211380    -2.2516450     0.0000000
  N        0.0000000     0.6708000     0.0000000
  C        1.2895240     1.1529650     0.0000000
  N        1.4680370     2.4337510     0.0000000
  N        2.2639170     0.1721360     0.0000000
  H       -0.0251680    -1.2402640     0.8864350
  H       -0.0251680    -1.2402640    -0.8864350
  H       -2.3164570    -0.2812890     0.8815700
  H       -2.3164570    -0.2812890    -0.8815700
  H       -3.5133300    -2.2957770     0.0000000
  H       -2.0641790    -2.7865400    -0.8851380
  H       -2.0641790    -2.7865400     0.8851380
  H       -0.7011600     1.3990150     0.0000000
  H        2.4653750     2.6550960     0.0000000
  H        2.0510630    -0.8112120     0.0000000
  H        3.2339250     0.4413680     0.2000000
units angstrom
no_reorient  #important for SAPT in psi4, default
symmetry c1  #important for SAPT in psi4, default
}

set PROPERTIES_ORIGIN ["COM"]
properties('MP2/aug-cc-pvtz', properties = ['dipole'])
--------------------------------------------------------------------------

    Molecular point group: c1
  Charge       = 0
  Multiplicity = 1
  Basis Set: AUG-CC-PVTZ
    Blend: AUG-CC-PVTZ
  Basis Set: (AUG-CC-PVTZ AUX)
    Blend: AUG-CC-PVTZ-JKFIT

    Orbital Energies [Eh]
    ---------------------

    Doubly Occupied:

       1A    -15.578631     2A    -15.562487     3A    -15.491299
       4A    -11.340582     5A    -11.271170     6A    -11.235920
       7A    -11.226276     8A     -1.292208     9A     -1.180586
      10A     -1.124007    11A     -1.056016    12A     -0.932218
      13A     -0.826618    14A     -0.804369    15A     -0.720544
      16A     -0.689658    17A     -0.662980    18A     -0.627901
      19A     -0.600140    20A     -0.586374    21A     -0.566714
      22A     -0.531158    23A     -0.514167    24A     -0.492474
      25A     -0.488812    26A     -0.412171    27A     -0.403489
      28A     -0.330779

  @DF-RHF Final Energy:  -321.34287661311765

   => Energetics <=

    Nuclear Repulsion Energy =            308.8525689658160331
    One-Electron Energy =               -1047.2913971426817170
    Two-Electron Energy =                 417.0959515637479740
    Total Energy =                       -321.3428766131176531
  Basis Set: (AUG-CC-PVTZ AUX)
    Blend: AUG-CC-PVTZ-RI
    Molecular point group: c1

    Geometry (in Angstrom), charge = 0, multiplicity = 1:

       Center              X                  Y                   Z               Mass
    ------------   -----------------  -----------------  -----------------  -----------------
         C           -0.463042902775    -0.783689140887    -0.001993811895    12.000000000000
         C           -1.983781902775    -0.877884140887    -0.001993811895    12.000000000000
         C           -2.473028902775    -2.322679140887    -0.001993811895    12.000000000000
         N           -0.051890902775     0.599765859113    -0.001993811895    14.003074004430
         C            1.237633097225     1.081930859113    -0.001993811895    12.000000000000
         N            1.416146097225     2.362716859113    -0.001993811895    14.003074004430
         N            2.212026097225     0.101101859113    -0.001993811895    14.003074004430
         H           -0.077058902775    -1.311298140887     0.884441188105     1.007825032230
         H           -0.077058902775    -1.311298140887    -0.888428811895     1.007825032230
         H           -2.368347902775    -0.352323140887     0.879576188105     1.007825032230
         H           -2.368347902775    -0.352323140887    -0.883563811895     1.007825032230
         H           -3.565220902775    -2.366811140887    -0.001993811895     1.007825032230
         H           -2.116069902775    -2.857574140887    -0.887131811895     1.007825032230
         H           -2.116069902775    -2.857574140887     0.883144188105     1.007825032230
         H           -0.753050902775     1.327980859113    -0.001993811895     1.007825032230
         H            2.413484097225     2.584061859113    -0.001993811895     1.007825032230
         H            1.999172097225    -0.882246140887    -0.001993811895     1.007825032230
         H            3.182034097225     0.370333859113     0.198006188105     1.007825032230

  Basis Set: AUG-CC-PVTZ
    Blend: AUG-CC-PVTZ
  Basis Set: (AUG-CC-PVTZ AUX)
    Blend: AUG-CC-PVTZ-JKFIT
	 Reference Energy          =    -321.3428766131176531 [Eh]
	 Singles Energy            =      -0.0000000000000000 [Eh]
	 Same-Spin Energy          =      -0.3380379278951617 [Eh]
	 Opposite-Spin Energy      =      -1.1257153587360631 [Eh]
	 Correlation Energy        =      -1.4637532866312248 [Eh]
	 Total Energy              =    -322.8066298997488843 [Eh]

	 ================> DF-SCS-MP2 Energies <==================
	-----------------------------------------------------------
	 SCS Same-Spin Scale       =       0.3333333333333333 [-]
	 SCS Opposite-Spin Scale   =       1.2000000000000000 [-]
	 SCS Same-Spin Energy      =      -0.1126793092983872 [Eh]
	 SCS Opposite-Spin Energy  =      -1.3508584304832756 [Eh]
	 SCS Correlation Energy    =      -1.4635377397816629 [Eh]
	 SCS Total Energy          =    -322.8064143528993100 [Eh]
	-----------------------------------------------------------

  Dipole Moment: [D]
     X:     0.0555      Y:    -3.8815      Z:     0.2804     Total:     3.8921

*** Psi4 exiting successfully. Buy a developer a beer!
