                               Psi4 1.3.2 release

  ==> Input File <==

--------------------------------------------------------------------------
#psi4
#
memory 32 gb

molecule  {
0 1
  C       -0.4111520    -0.7126550     0.0000000
  C       -1.9318910    -0.8068500     0.0000000
  C       -2.4211380    -2.2516450     0.0000000
  N        0.0000000     0.6708000     0.0000000
  C        1.2895240     1.1529650     0.0000000
  N        1.4680370     2.4337510     0.0000000
  N        2.2639170     0.1721360     0.0000000
  H       -0.0251680    -1.2402640     0.8864350
  H       -0.0251680    -1.2402640    -0.8864350
  H       -2.3164570    -0.2812890     0.8815700
  H       -2.3164570    -0.2812890    -0.8815700
  H       -3.5133300    -2.2957770     0.0000000
  H       -2.0641790    -2.7865400    -0.8851380
  H       -2.0641790    -2.7865400     0.8851380
  H       -0.7011600     1.3990150     0.1500000
  H        2.4653750     2.6550960     0.0000000
  H        2.0510630    -0.8112120     0.0000000
  H        3.2339250     0.4413680     0.0000000
units angstrom
no_reorient  #important for SAPT in psi4, default
symmetry c1  #important for SAPT in psi4, default
}

set PROPERTIES_ORIGIN ["COM"]
properties('MP2/aug-cc-pvtz', properties = ['dipole'])
--------------------------------------------------------------------------

    Molecular point group: c1
  Charge       = 0
  Multiplicity = 1
  Basis Set: AUG-CC-PVTZ
    Blend: AUG-CC-PVTZ
  Basis Set: (AUG-CC-PVTZ AUX)
    Blend: AUG-CC-PVTZ-JKFIT

    Orbital Energies [Eh]
    ---------------------

    Doubly Occupied:

       1A    -15.577221     2A    -15.563286     3A    -15.491246
       4A    -11.340743     5A    -11.270986     6A    -11.235734
       7A    -11.226152     8A     -1.292331     9A     -1.181324
      10A     -1.124676    11A     -1.055752    12A     -0.932020
      13A     -0.826129    14A     -0.805219    15A     -0.721683
      16A     -0.691400    17A     -0.663336    18A     -0.627954
      19A     -0.600122    20A     -0.587027    21A     -0.565324
      22A     -0.531649    23A     -0.514107    24A     -0.492304
      25A     -0.488735    26A     -0.412050    27A     -0.403153
      28A     -0.330898

  @DF-RHF Final Energy:  -321.34333204253318

   => Energetics <=

    Nuclear Repulsion Energy =            308.8855092536096549
    One-Electron Energy =               -1047.3525603122084249
    Two-Electron Energy =                 417.1237190160656496
    Total Energy =                       -321.3433320425331772
  Basis Set: (AUG-CC-PVTZ AUX)
    Blend: AUG-CC-PVTZ-RI
    Molecular point group: c1

    Geometry (in Angstrom), charge = 0, multiplicity = 1:

       Center              X                  Y                   Z               Mass
    ------------   -----------------  -----------------  -----------------  -----------------
         C           -0.463042902775    -0.783689140887    -0.001495358921    12.000000000000
         C           -1.983781902775    -0.877884140887    -0.001495358921    12.000000000000
         C           -2.473028902775    -2.322679140887    -0.001495358921    12.000000000000
         N           -0.051890902775     0.599765859113    -0.001495358921    14.003074004430
         C            1.237633097225     1.081930859113    -0.001495358921    12.000000000000
         N            1.416146097225     2.362716859113    -0.001495358921    14.003074004430
         N            2.212026097225     0.101101859113    -0.001495358921    14.003074004430
         H           -0.077058902775    -1.311298140887     0.884939641079     1.007825032230
         H           -0.077058902775    -1.311298140887    -0.887930358921     1.007825032230
         H           -2.368347902775    -0.352323140887     0.880074641079     1.007825032230
         H           -2.368347902775    -0.352323140887    -0.883065358921     1.007825032230
         H           -3.565220902775    -2.366811140887    -0.001495358921     1.007825032230
         H           -2.116069902775    -2.857574140887    -0.886633358921     1.007825032230
         H           -2.116069902775    -2.857574140887     0.883642641079     1.007825032230
         H           -0.753050902775     1.327980859113     0.148504641079     1.007825032230
         H            2.413484097225     2.584061859113    -0.001495358921     1.007825032230
         H            1.999172097225    -0.882246140887    -0.001495358921     1.007825032230
         H            3.182034097225     0.370333859113    -0.001495358921     1.007825032230

  Basis Set: AUG-CC-PVTZ
    Blend: AUG-CC-PVTZ
  Basis Set: (AUG-CC-PVTZ AUX)
    Blend: AUG-CC-PVTZ-JKFIT
	 Reference Energy          =    -321.3433320425331772 [Eh]
	 Singles Energy            =      -0.0000000000000000 [Eh]
	 Same-Spin Energy          =      -0.3380057865210851 [Eh]
	 Opposite-Spin Energy      =      -1.1255708446534149 [Eh]
	 Correlation Energy        =      -1.4635766311745000 [Eh]
	 Total Energy              =    -322.8069086737076532 [Eh]

	 ================> DF-SCS-MP2 Energies <==================
	-----------------------------------------------------------
	 SCS Same-Spin Scale       =       0.3333333333333333 [-]
	 SCS Opposite-Spin Scale   =       1.2000000000000000 [-]
	 SCS Same-Spin Energy      =      -0.1126685955070284 [Eh]
	 SCS Opposite-Spin Energy  =      -1.3506850135840980 [Eh]
	 SCS Correlation Energy    =      -1.4633536090911263 [Eh]
	 SCS Total Energy          =    -322.8066856516243206 [Eh]
	-----------------------------------------------------------

  Dipole Moment: [D]
     X:     0.0943      Y:    -3.8863      Z:     0.1712     Total:     3.8912

*** Psi4 exiting successfully. Buy a developer a beer!
