                               Psi4 1.3.2 release

  ==> Input File <==

--------------------------------------------------------------------------
#psi4
#
memory 32 gb

molecule  {
0 1
  C       -0.4111520    -0.7126550     0.0000000
  C       -1.9318910    -0.8068500     0.0000000
  C       -2.4211380    -2.2516450     0.0000000
  N        0.0000000     0.6708000     0.0000000
  C        1.2895240     1.1529650     0.0000000
  N        1.4680370     2.4337510     0.0000000
  N        2.2639170     0.1721360    -0.2500000
  H       -0.0251680    -1.2402640     0.8864350
  H       -0.0251680    -1.2402640    -0.8864350
  H       -2.3164570    -0.2812890     0.8815700
  H       -2.3164570    -0.2812890    -0.8815700
  H       -3.5133300    -2.2957770     0.0000000
  H       -2.0641790    -2.7865400    -0.8851380
  H       -2.0641790    -2.7865400     0.8851380
  H       -0.7011600     1.3990150     0.0000000
  H        2.4653750     2.6550960     0.0000000
  H        2.0510630    -0.8112120     0.0000000
  H        3.2339250     0.4413680     0.0000000
units angstrom
no_reorient  #important for SAPT in psi4, default
symmetry c1  #important for SAPT in psi4, default
}

set PROPERTIES_ORIGIN ["COM"]
properties('MP2/aug-cc-pvtz', properties = ['dipole'])
--------------------------------------------------------------------------

    Molecular point group: c1
  Charge       = 0
  Multiplicity = 1
  Basis Set: AUG-CC-PVTZ
    Blend: AUG-CC-PVTZ
  Basis Set: (AUG-CC-PVTZ AUX)
    Blend: AUG-CC-PVTZ-JKFIT

    Orbital Energies [Eh]
    ---------------------

    Doubly Occupied:

       1A    -15.584087     2A    -15.563971     3A    -15.496574
       4A    -11.341640     5A    -11.271256     6A    -11.236047
       7A    -11.226316     8A     -1.290051     9A     -1.178185
      10A     -1.124336    11A     -1.056403    12A     -0.932518
      13A     -0.826698    14A     -0.798584    15A     -0.704989
      16A     -0.686603    17A     -0.663167    18A     -0.623022
      19A     -0.600766    20A     -0.585516    21A     -0.566620
      22A     -0.530651    23A     -0.514466    24A     -0.492601
      25A     -0.489053    26A     -0.415329    27A     -0.409462
      28A     -0.333690

  @DF-RHF Final Energy:  -321.33941663465203

   => Energetics <=

    Nuclear Repulsion Energy =            308.2789588564005498
    One-Electron Energy =               -1046.1515542982219813
    Two-Electron Energy =                 416.5331788071694064
    Total Energy =                       -321.3394166346520251
  Basis Set: (AUG-CC-PVTZ AUX)
    Blend: AUG-CC-PVTZ-RI
    Molecular point group: c1

    Geometry (in Angstrom), charge = 0, multiplicity = 1:

       Center              X                  Y                   Z               Mass
    ------------   -----------------  -----------------  -----------------  -----------------
         C           -0.463042902775    -0.783689140887     0.034628401046    12.000000000000
         C           -1.983781902775    -0.877884140887     0.034628401046    12.000000000000
         C           -2.473028902775    -2.322679140887     0.034628401046    12.000000000000
         N           -0.051890902775     0.599765859113     0.034628401046    14.003074004430
         C            1.237633097225     1.081930859113     0.034628401046    12.000000000000
         N            1.416146097225     2.362716859113     0.034628401046    14.003074004430
         N            2.212026097225     0.101101859113    -0.215371598954    14.003074004430
         H           -0.077058902775    -1.311298140887     0.921063401046     1.007825032230
         H           -0.077058902775    -1.311298140887    -0.851806598954     1.007825032230
         H           -2.368347902775    -0.352323140887     0.916198401046     1.007825032230
         H           -2.368347902775    -0.352323140887    -0.846941598954     1.007825032230
         H           -3.565220902775    -2.366811140887     0.034628401046     1.007825032230
         H           -2.116069902775    -2.857574140887    -0.850509598954     1.007825032230
         H           -2.116069902775    -2.857574140887     0.919766401046     1.007825032230
         H           -0.753050902775     1.327980859113     0.034628401046     1.007825032230
         H            2.413484097225     2.584061859113     0.034628401046     1.007825032230
         H            1.999172097225    -0.882246140887     0.034628401046     1.007825032230
         H            3.182034097225     0.370333859113     0.034628401046     1.007825032230

  Basis Set: AUG-CC-PVTZ
    Blend: AUG-CC-PVTZ
  Basis Set: (AUG-CC-PVTZ AUX)
    Blend: AUG-CC-PVTZ-JKFIT
	 Reference Energy          =    -321.3394166346520251 [Eh]
	 Singles Energy            =      -0.0000000000000000 [Eh]
	 Same-Spin Energy          =      -0.3382736437327500 [Eh]
	 Opposite-Spin Energy      =      -1.1271567273363661 [Eh]
	 Correlation Energy        =      -1.4654303710691161 [Eh]
	 Total Energy              =    -322.8048470057211148 [Eh]

	 ================> DF-SCS-MP2 Energies <==================
	-----------------------------------------------------------
	 SCS Same-Spin Scale       =       0.3333333333333333 [-]
	 SCS Opposite-Spin Scale   =       1.2000000000000000 [-]
	 SCS Same-Spin Energy      =      -0.1127578812442500 [Eh]
	 SCS Opposite-Spin Energy  =      -1.3525880728036392 [Eh]
	 SCS Correlation Energy    =      -1.4653459540478893 [Eh]
	 SCS Total Energy          =    -322.8047625886999299 [Eh]
	-----------------------------------------------------------

  Dipole Moment: [D]
     X:    -0.0490      Y:    -3.7039      Z:     0.5884     Total:     3.7506

*** Psi4 exiting successfully. Buy a developer a beer!
