                               Psi4 1.3.2 release

  ==> Input File <==

--------------------------------------------------------------------------
#psi4
#
memory 32 gb

molecule  {
0 1
  N       -2.6260842    -0.5068517    -0.4145687
  C       -0.4348490     0.2437790     0.1629790
  C       -1.9077720     0.5229750     0.3447380
  C        0.0419710    -1.0733410     0.1956580
  C        0.4762650     1.2913860    -0.0102160
  C        1.4056430    -1.3329900     0.0574270
  C        1.8423760     1.0332520    -0.1440090
  C        2.3106710    -0.2811520    -0.1094010
  H       -2.1693300     0.4340790     1.4066040
  H       -2.1065270     1.5697560     0.0595480
  H       -0.6702630    -1.8854740     0.3139460
  H        0.1142300     2.3180440    -0.0466590
  H        1.7649670    -2.3594270     0.0823620
  H        2.5387490     1.8574450    -0.2810770
  H        3.3732230    -0.4857460    -0.2175780
  H       -2.5517210    -0.3499480    -1.3840470
  H       -3.7041130    -0.2797630    -0.2275250
units angstrom
no_reorient  #important for SAPT in psi4, default
symmetry c1  #important for SAPT in psi4, default
}

set PROPERTIES_ORIGIN ["COM"]
properties('MP2/aug-cc-pvtz', properties = ['dipole'])
--------------------------------------------------------------------------

    Molecular point group: c1
  Charge       = 0
  Multiplicity = 1
  Basis Set: AUG-CC-PVTZ
    Blend: AUG-CC-PVTZ
  Basis Set: (AUG-CC-PVTZ AUX)
    Blend: AUG-CC-PVTZ-JKFIT

    Orbital Energies [Eh]
    ---------------------

    Doubly Occupied:

       1A    -15.556167     2A    -11.259405     3A    -11.234559
       4A    -11.232295     5A    -11.230987     6A    -11.229546
       7A    -11.229125     8A    -11.224121     9A     -1.189322
      10A     -1.137793    11A     -1.020966    12A     -1.006683
      13A     -0.900203    14A     -0.821204    15A     -0.789930
      16A     -0.693858    17A     -0.655084    18A     -0.642366
      19A     -0.615313    20A     -0.586407    21A     -0.578042
      22A     -0.567251    23A     -0.536603    24A     -0.488414
      25A     -0.486226    26A     -0.474091    27A     -0.410483
      28A     -0.330864    29A     -0.322261

  @DF-RHF Final Energy:  -324.86130506341340

   => Energetics <=

    Nuclear Repulsion Energy =            341.7700551692721547
    One-Electron Energy =               -1116.3635788945694003
    Two-Electron Energy =                 449.7322186618838487
    Total Energy =                       -324.8613050634133970
  Basis Set: (AUG-CC-PVTZ AUX)
    Blend: AUG-CC-PVTZ-RI
    Molecular point group: c1

    Geometry (in Angstrom), charge = 0, multiplicity = 1:

       Center              X                  Y                   Z               Mass
    ------------   -----------------  -----------------  -----------------  -----------------
         N           -2.669054067738    -0.493541222259    -0.413299907256    14.003074004430
         C           -0.477818867738     0.257089477741     0.164247792744    12.000000000000
         C           -1.950741867738     0.536285477741     0.346006792744    12.000000000000
         C           -0.000998867738    -1.060030522259     0.196926792744    12.000000000000
         C            0.433295132262     1.304696477741    -0.008947207256    12.000000000000
         C            1.362673132262    -1.319679522259     0.058695792744    12.000000000000
         C            1.799406132262     1.046562477741    -0.142740207256    12.000000000000
         C            2.267701132262    -0.267841522259    -0.108132207256    12.000000000000
         H           -2.212299867738     0.447389477741     1.407872792744     1.007825032230
         H           -2.149496867738     1.583066477741     0.060816792744     1.007825032230
         H           -0.713232867738    -1.872163522259     0.315214792744     1.007825032230
         H            0.071260132262     2.331354477741    -0.045390207256     1.007825032230
         H            1.721997132262    -2.346116522259     0.083630792744     1.007825032230
         H            2.495779132262     1.870755477741    -0.279808207256     1.007825032230
         H            3.330253132262    -0.472435522259    -0.216309207256     1.007825032230
         H           -2.594690867738    -0.336637522259    -1.382778207256     1.007825032230
         H           -3.747082867738    -0.266452522259    -0.226256207256     1.007825032230

  Basis Set: AUG-CC-PVTZ
    Blend: AUG-CC-PVTZ
  Basis Set: (AUG-CC-PVTZ AUX)
    Blend: AUG-CC-PVTZ-JKFIT
	 Reference Energy          =    -324.8613050634133970 [Eh]
	 Singles Energy            =      -0.0000000000000000 [Eh]
	 Same-Spin Energy          =      -0.3586429754524371 [Eh]
	 Opposite-Spin Energy      =      -1.1522562002903780 [Eh]
	 Correlation Energy        =      -1.5108991757428152 [Eh]
	 Total Energy              =    -326.3722042391561899 [Eh]

	 ================> DF-SCS-MP2 Energies <==================
	-----------------------------------------------------------
	 SCS Same-Spin Scale       =       0.3333333333333333 [-]
	 SCS Opposite-Spin Scale   =       1.2000000000000000 [-]
	 SCS Same-Spin Energy      =      -0.1195476584841457 [Eh]
	 SCS Opposite-Spin Energy  =      -1.3827074403484536 [Eh]
	 SCS Correlation Energy    =      -1.5022550988325993 [Eh]
	 SCS Total Energy          =    -326.3635601622460172 [Eh]
	-----------------------------------------------------------

  Dipole Moment: [D]
     X:    -0.8771      Y:     1.1075      Z:    -0.3276     Total:     1.4503

*** Psi4 exiting successfully. Buy a developer a beer!
