                               Psi4 1.3.2 release

  ==> Input File <==

--------------------------------------------------------------------------
#psi4
#
memory 32 gb

molecule  {
0 1
  N       -2.6920570    -0.4745743    -0.3920487
  C       -0.4348490     0.2437790     0.1629790
  C       -1.9077720     0.5229750     0.3447380
  C        0.0419710    -1.0733410     0.1956580
  C        0.4762650     1.2913860    -0.0102160
  C        1.4056430    -1.3329900     0.0574270
  C        1.8423760     1.0332520    -0.1440090
  C        2.3106710    -0.2811520    -0.1094010
  H       -2.1693300     0.4340790     1.4066040
  H       -2.1065270     1.5697560     0.0595480
  H       -0.6702630    -1.8854740     0.3139460
  H        0.1142300     2.3180440    -0.0466590
  H        1.7649670    -2.3594270     0.0823620
  H        2.5387490     1.8574450    -0.2810770
  H        3.3732230    -0.4857460    -0.2175780
  H       -2.5517210    -0.3499480    -1.3840470
  H       -3.7041130    -0.2797630    -0.2275250
units angstrom
no_reorient  #important for SAPT in psi4, default
symmetry c1  #important for SAPT in psi4, default
}

set PROPERTIES_ORIGIN ["COM"]
properties('MP2/aug-cc-pvtz', properties = ['dipole'])
--------------------------------------------------------------------------

    Molecular point group: c1
  Charge       = 0
  Multiplicity = 1
  Basis Set: AUG-CC-PVTZ
    Blend: AUG-CC-PVTZ
  Basis Set: (AUG-CC-PVTZ AUX)
    Blend: AUG-CC-PVTZ-JKFIT

    Orbital Energies [Eh]
    ---------------------

    Doubly Occupied:

       1A    -15.549001     2A    -11.258447     3A    -11.236005
       4A    -11.233075     5A    -11.231760     6A    -11.230526
       7A    -11.229933     8A    -11.225201     9A     -1.188444
      10A     -1.139268    11A     -1.022613    12A     -1.007536
      13A     -0.900208    14A     -0.821794    15A     -0.789934
      16A     -0.695084    17A     -0.658571    18A     -0.643699
      19A     -0.621076    20A     -0.584760    21A     -0.575914
      22A     -0.567687    23A     -0.544148    24A     -0.488759
      25A     -0.486605    26A     -0.479308    27A     -0.403552
      28A     -0.331616    29A     -0.323251

  @DF-RHF Final Energy:  -324.87255809988955

   => Energetics <=

    Nuclear Repulsion Energy =            341.2633657725995135
    One-Electron Energy =               -1115.3362926781476290
    Two-Electron Energy =                 449.2003688056585702
    Total Energy =                       -324.8725580998895452
  Basis Set: (AUG-CC-PVTZ AUX)
    Blend: AUG-CC-PVTZ-RI
    Molecular point group: c1

    Geometry (in Angstrom), charge = 0, multiplicity = 1:

       Center              X                  Y                   Z               Mass
    ------------   -----------------  -----------------  -----------------  -----------------
         N           -2.726398943866    -0.465485061163    -0.393725073228    14.003074004430
         C           -0.469190943866     0.252868238837     0.161302626772    12.000000000000
         C           -1.942113943866     0.532064238837     0.343061626772    12.000000000000
         C            0.007629056134    -1.064251761163     0.193981626772    12.000000000000
         C            0.441923056134     1.300475238837    -0.011892373228    12.000000000000
         C            1.371301056134    -1.323900761163     0.055750626772    12.000000000000
         C            1.808034056134     1.042341238837    -0.145685373228    12.000000000000
         C            2.276329056134    -0.272062761163    -0.111077373228    12.000000000000
         H           -2.203671943866     0.443168238837     1.404927626772     1.007825032230
         H           -2.140868943866     1.578845238837     0.057871626772     1.007825032230
         H           -0.704604943866    -1.876384761163     0.312269626772     1.007825032230
         H            0.079888056134     2.327133238837    -0.048335373228     1.007825032230
         H            1.730625056134    -2.350337761163     0.080685626772     1.007825032230
         H            2.504407056134     1.866534238837    -0.282753373228     1.007825032230
         H            3.338881056134    -0.476656761163    -0.219254373228     1.007825032230
         H           -2.586062943866    -0.340858761163    -1.385723373228     1.007825032230
         H           -3.738454943866    -0.270673761163    -0.229201373228     1.007825032230

  Basis Set: AUG-CC-PVTZ
    Blend: AUG-CC-PVTZ
  Basis Set: (AUG-CC-PVTZ AUX)
    Blend: AUG-CC-PVTZ-JKFIT
	 Reference Energy          =    -324.8725580998895452 [Eh]
	 Singles Energy            =      -0.0000000000000000 [Eh]
	 Same-Spin Energy          =      -0.3580486483086992 [Eh]
	 Opposite-Spin Energy      =      -1.1505911848579964 [Eh]
	 Correlation Energy        =      -1.5086398331666957 [Eh]
	 Total Energy              =    -326.3811979330562281 [Eh]

	 ================> DF-SCS-MP2 Energies <==================
	-----------------------------------------------------------
	 SCS Same-Spin Scale       =       0.3333333333333333 [-]
	 SCS Opposite-Spin Scale   =       1.2000000000000000 [-]
	 SCS Same-Spin Energy      =      -0.1193495494362331 [Eh]
	 SCS Opposite-Spin Energy  =      -1.3807094218295957 [Eh]
	 SCS Correlation Energy    =      -1.5000589712658288 [Eh]
	 SCS Total Energy          =    -326.3726170711553891 [Eh]
	-----------------------------------------------------------

  Dipole Moment: [D]
     X:    -0.7771      Y:     1.0474      Z:    -0.3473     Total:     1.3496

*** Psi4 exiting successfully. Buy a developer a beer!
