                               Psi4 1.3.2 release

  ==> Input File <==

--------------------------------------------------------------------------
#psi4
#
memory 32 gb

molecule  {
0 1
  N       -2.7135790    -0.4632030    -0.3840900
  C       -0.4348490     0.2437790     0.1629790
  C       -1.9077720     0.5229750     0.3447380
  C        0.0419710    -1.0733410     0.1956580
  C        0.4762650     1.2913860    -0.0102160
  C        1.4056430    -1.3329900     0.0574270
  C        1.8423760     1.0332520    -0.1440090
  C        2.3106710    -0.2811520    -0.1094010
  H       -2.1693300     0.4340790     1.4066040
  H       -2.1065270     1.5697560     0.0595480
  H       -0.6702630    -1.8854740     0.3139460
  H        0.1142300     2.3180440    -0.0466590
  H        1.7649670    -2.3594270     0.0823620
  H        2.5387490     1.8574450    -0.2810770
  H        3.3732230    -0.4857460    -0.2175780
  H       -2.5517210    -0.3499480    -1.3840470
  H       -3.7041130    -0.2797630    -0.2275250
units angstrom
no_reorient  #important for SAPT in psi4, default
symmetry c1  #important for SAPT in psi4, default
}

set PROPERTIES_ORIGIN ["COM"]
properties('MP2/aug-cc-pvtz', properties = ['dipole'])
--------------------------------------------------------------------------

    Molecular point group: c1
  Charge       = 0
  Multiplicity = 1
  Basis Set: AUG-CC-PVTZ
    Blend: AUG-CC-PVTZ
  Basis Set: (AUG-CC-PVTZ AUX)
    Blend: AUG-CC-PVTZ-JKFIT

    Orbital Energies [Eh]
    ---------------------

    Doubly Occupied:

       1A    -15.546741     2A    -11.258273     3A    -11.236568
       4A    -11.233376     5A    -11.232058     6A    -11.230900
       7A    -11.230242     8A    -11.225611     9A     -1.188475
      10A     -1.139859    11A     -1.023288    12A     -1.007867
      13A     -0.900532    14A     -0.822065    15A     -0.790018
      16A     -0.695470    17A     -0.661271    18A     -0.643480
      19A     -0.622793    20A     -0.584649    21A     -0.575299
      22A     -0.568020    23A     -0.545385    24A     -0.488997
      25A     -0.486803    26A     -0.480573    27A     -0.401381
      28A     -0.331908    29A     -0.323600

  @DF-RHF Final Energy:  -324.87397651571098

   => Energetics <=

    Nuclear Repulsion Energy =            341.1065965887265747
    One-Electron Energy =               -1115.0101427437421080
    Two-Electron Energy =                 449.0295696393045546
    Total Energy =                       -324.8739765157109787
  Basis Set: (AUG-CC-PVTZ AUX)
    Blend: AUG-CC-PVTZ-RI
    Molecular point group: c1

    Geometry (in Angstrom), charge = 0, multiplicity = 1:

       Center              X                  Y                   Z               Mass
    ------------   -----------------  -----------------  -----------------  -----------------
         N           -2.745106296351    -0.455600899965    -0.386807212145    14.003074004430
         C           -0.466376296351     0.251381100035     0.160261787855    12.000000000000
         C           -1.939299296351     0.530577100035     0.342020787855    12.000000000000
         C            0.010443703649    -1.065738899965     0.192940787855    12.000000000000
         C            0.444737703649     1.298988100035    -0.012933212145    12.000000000000
         C            1.374115703649    -1.325387899965     0.054709787855    12.000000000000
         C            1.810848703649     1.040854100035    -0.146726212145    12.000000000000
         C            2.279143703649    -0.273549899965    -0.112118212145    12.000000000000
         H           -2.200857296351     0.441681100035     1.403886787855     1.007825032230
         H           -2.138054296351     1.577358100035     0.056830787855     1.007825032230
         H           -0.701790296351    -1.877871899965     0.311228787855     1.007825032230
         H            0.082702703649     2.325646100035    -0.049376212145     1.007825032230
         H            1.733439703649    -2.351824899965     0.079644787855     1.007825032230
         H            2.507221703649     1.865047100035    -0.283794212145     1.007825032230
         H            3.341695703649    -0.478143899965    -0.220295212145     1.007825032230
         H           -2.583248296351    -0.342345899965    -1.386764212145     1.007825032230
         H           -3.735640296351    -0.272160899965    -0.230242212145     1.007825032230

  Basis Set: AUG-CC-PVTZ
    Blend: AUG-CC-PVTZ
  Basis Set: (AUG-CC-PVTZ AUX)
    Blend: AUG-CC-PVTZ-JKFIT
	 Reference Energy          =    -324.8739765157109787 [Eh]
	 Singles Energy            =      -0.0000000000000000 [Eh]
	 Same-Spin Energy          =      -0.3578920817759356 [Eh]
	 Opposite-Spin Energy      =      -1.1501780007914326 [Eh]
	 Correlation Energy        =      -1.5080700825673681 [Eh]
	 Total Energy              =    -326.3820465982783503 [Eh]

	 ================> DF-SCS-MP2 Energies <==================
	-----------------------------------------------------------
	 SCS Same-Spin Scale       =       0.3333333333333333 [-]
	 SCS Opposite-Spin Scale   =       1.2000000000000000 [-]
	 SCS Same-Spin Energy      =      -0.1192973605919785 [Eh]
	 SCS Opposite-Spin Energy  =      -1.3802136009497190 [Eh]
	 SCS Correlation Energy    =      -1.4995109615416975 [Eh]
	 SCS Total Energy          =    -326.3734874772526950 [Eh]
	-----------------------------------------------------------

  Dipole Moment: [D]
     X:    -0.7365      Y:     1.0264      Z:    -0.3538     Total:     1.3119

*** Psi4 exiting successfully. Buy a developer a beer!
