                               Psi4 1.3.2 release

  ==> Input File <==

--------------------------------------------------------------------------
#psi4
#
memory 32 gb

molecule  {
0 1
  N       -2.8373323    -0.3887942    -0.3317654
  C       -0.4348490     0.2437790     0.1629790
  C       -1.9077720     0.5229750     0.3447380
  C        0.0419710    -1.0733410     0.1956580
  C        0.4762650     1.2913860    -0.0102160
  C        1.4056430    -1.3329900     0.0574270
  C        1.8423760     1.0332520    -0.1440090
  C        2.3106710    -0.2811520    -0.1094010
  H       -2.1693300     0.4340790     1.4066040
  H       -2.1065270     1.5697560     0.0595480
  H       -0.6702630    -1.8854740     0.3139460
  H        0.1142300     2.3180440    -0.0466590
  H        1.7649670    -2.3594270     0.0823620
  H        2.5387490     1.8574450    -0.2810770
  H        3.3732230    -0.4857460    -0.2175780
  H       -2.5517210    -0.3499480    -1.3840470
  H       -3.7041130    -0.2797630    -0.2275250
units angstrom
no_reorient  #important for SAPT in psi4, default
symmetry c1  #important for SAPT in psi4, default
}

set PROPERTIES_ORIGIN ["COM"]
properties('MP2/aug-cc-pvtz', properties = ['dipole'])
--------------------------------------------------------------------------

    Molecular point group: c1
  Charge       = 0
  Multiplicity = 1
  Basis Set: AUG-CC-PVTZ
    Blend: AUG-CC-PVTZ
  Basis Set: (AUG-CC-PVTZ AUX)
    Blend: AUG-CC-PVTZ-JKFIT

    Orbital Energies [Eh]
    ---------------------

    Doubly Occupied:

       1A    -15.534458     2A    -11.259087     3A    -11.240699
       4A    -11.235569     5A    -11.234205     6A    -11.233573
       7A    -11.232461     8A    -11.228514     9A     -1.193039
      10A     -1.144464    11A     -1.028842    12A     -1.010261
      13A     -0.907296    14A     -0.824321    15A     -0.792619
      16A     -0.696729    17A     -0.683375    18A     -0.641027
      19A     -0.630720    20A     -0.586227    21A     -0.578291
      22A     -0.570752    23A     -0.537366    24A     -0.492464
      25A     -0.489021    26A     -0.482813    27A     -0.390095
      28A     -0.334033    29A     -0.325884

  @DF-RHF Final Energy:  -324.84786537758970

   => Energetics <=

    Nuclear Repulsion Energy =            340.3079236171553248
    One-Electron Energy =               -1113.2351659347402801
    Two-Electron Energy =                 448.0793769399952566
    Total Energy =                       -324.8478653775896987
  Basis Set: (AUG-CC-PVTZ AUX)
    Blend: AUG-CC-PVTZ-RI
    Molecular point group: c1

    Geometry (in Angstrom), charge = 0, multiplicity = 1:

       Center              X                  Y                   Z               Mass
    ------------   -----------------  -----------------  -----------------  -----------------
         N           -2.852675137735    -0.390923284057    -0.341325624196    14.003074004430
         C           -0.450191837735     0.241649915943     0.153418775804    12.000000000000
         C           -1.923114837735     0.520845915943     0.335177775804    12.000000000000
         C            0.026628162265    -1.075470084057     0.186097775804    12.000000000000
         C            0.460922162265     1.289256915943    -0.019776224196    12.000000000000
         C            1.390300162265    -1.335119084057     0.047866775804    12.000000000000
         C            1.827033162265     1.031122915943    -0.153569224196    12.000000000000
         C            2.295328162265    -0.283281084057    -0.118961224196    12.000000000000
         H           -2.184672837735     0.431949915943     1.397043775804     1.007825032230
         H           -2.121869837735     1.567626915943     0.049987775804     1.007825032230
         H           -0.685605837735    -1.887603084057     0.304385775804     1.007825032230
         H            0.098887162265     2.315914915943    -0.056219224196     1.007825032230
         H            1.749624162265    -2.361556084057     0.072801775804     1.007825032230
         H            2.523406162265     1.855315915943    -0.290637224196     1.007825032230
         H            3.357880162265    -0.487875084057    -0.227138224196     1.007825032230
         H           -2.567063837735    -0.352077084057    -1.393607224196     1.007825032230
         H           -3.719455837735    -0.281892084057    -0.237085224196     1.007825032230

  Basis Set: AUG-CC-PVTZ
    Blend: AUG-CC-PVTZ
  Basis Set: (AUG-CC-PVTZ AUX)
    Blend: AUG-CC-PVTZ-JKFIT
	 Reference Energy          =    -324.8478653775896987 [Eh]
	 Singles Energy            =      -0.0000000000000000 [Eh]
	 Same-Spin Energy          =      -0.3574217175759529 [Eh]
	 Opposite-Spin Energy      =      -1.1492729784733156 [Eh]
	 Correlation Energy        =      -1.5066946960492684 [Eh]
	 Total Energy              =    -326.3545600736389929 [Eh]

	 ================> DF-SCS-MP2 Energies <==================
	-----------------------------------------------------------
	 SCS Same-Spin Scale       =       0.3333333333333333 [-]
	 SCS Opposite-Spin Scale   =       1.2000000000000000 [-]
	 SCS Same-Spin Energy      =      -0.1191405725253176 [Eh]
	 SCS Opposite-Spin Energy  =      -1.3791275741679787 [Eh]
	 SCS Correlation Energy    =      -1.4982681466932963 [Eh]
	 SCS Total Energy          =    -326.3461335242830046 [Eh]
	-----------------------------------------------------------

  Dipole Moment: [D]
     X:    -0.4219      Y:     0.8918      Z:    -0.3854     Total:     1.0592

*** Psi4 exiting successfully. Buy a developer a beer!
