                               Psi4 1.3.2 release

  ==> Input File <==

--------------------------------------------------------------------------
#psi4
#
memory 32 gb

molecule  {
0 1
  N       -2.6702961    -0.4856418    -0.3997829
  C       -0.4348490     0.2437790     0.1629790
  C       -1.9077720     0.5229750     0.3447380
  C        0.0419710    -1.0733410     0.1956580
  C        0.4762650     1.2913860    -0.0102160
  C        1.4056430    -1.3329900     0.0574270
  C        1.8423760     1.0332520    -0.1440090
  C        2.3106710    -0.2811520    -0.1094010
  H       -2.1693300     0.4340790     1.4066040
  H       -2.1065270     1.5697560     0.0595480
  H       -0.6702630    -1.8854740     0.3139460
  H        0.1142300     2.3180440    -0.0466590
  H        1.7649670    -2.3594270     0.0823620
  H        2.5387490     1.8574450    -0.2810770
  H        3.3732230    -0.4857460    -0.2175780
  H       -2.5517210    -0.3499480    -1.3840470
  H       -3.7041130    -0.2797630    -0.2275250
units angstrom
no_reorient  #important for SAPT in psi4, default
symmetry c1  #important for SAPT in psi4, default
}

set PROPERTIES_ORIGIN ["COM"]
properties('MP2/aug-cc-pvtz', properties = ['dipole'])
--------------------------------------------------------------------------

    Molecular point group: c1
  Charge       = 0
  Multiplicity = 1
  Basis Set: AUG-CC-PVTZ
    Blend: AUG-CC-PVTZ
  Basis Set: (AUG-CC-PVTZ AUX)
    Blend: AUG-CC-PVTZ-JKFIT

    Orbital Energies [Eh]
    ---------------------

    Doubly Occupied:

       1A    -15.551323     2A    -11.258698     3A    -11.235481
       4A    -11.232793     5A    -11.231482     6A    -11.230175
       7A    -11.229643     8A    -11.224815     9A     -1.188584
      10A     -1.138728    11A     -1.022004    12A     -1.007228
      13A     -0.900062    14A     -0.821559    15A     -0.789901
      16A     -0.694681    17A     -0.656575    18A     -0.643636
      19A     -0.619242    20A     -0.585062    21A     -0.576662
      22A     -0.567475    23A     -0.542169    24A     -0.488590
      25A     -0.486449    26A     -0.477807    27A     -0.405796
      28A     -0.331344    29A     -0.322912

  @DF-RHF Final Energy:  -324.86988431388119

   => Energetics <=

    Nuclear Repulsion Energy =            341.4263488093119463
    One-Electron Energy =               -1115.6707122114046342
    Two-Electron Energy =                 449.3744790882114444
    Total Energy =                       -324.8698843138811867
  Basis Set: (AUG-CC-PVTZ AUX)
    Blend: AUG-CC-PVTZ-RI
    Molecular point group: c1

    Geometry (in Angstrom), charge = 0, multiplicity = 1:

       Center              X                  Y                   Z               Mass
    ------------   -----------------  -----------------  -----------------  -----------------
         N           -2.707483934727    -0.475105153331    -0.400447794424    14.003074004430
         C           -0.472036834727     0.254315646669     0.162314105576    12.000000000000
         C           -1.944959834727     0.533511646669     0.344073105576    12.000000000000
         C            0.004783165273    -1.062804353331     0.194993105576    12.000000000000
         C            0.439077165273     1.301922646669    -0.010880894424    12.000000000000
         C            1.368455165273    -1.322453353331     0.056762105576    12.000000000000
         C            1.805188165273     1.043788646669    -0.144673894424    12.000000000000
         C            2.273483165273    -0.270615353331    -0.110065894424    12.000000000000
         H           -2.206517834727     0.444615646669     1.405939105576     1.007825032230
         H           -2.143714834727     1.580292646669     0.058883105576     1.007825032230
         H           -0.707450834727    -1.874937353331     0.313281105576     1.007825032230
         H            0.077042165273     2.328580646669    -0.047323894424     1.007825032230
         H            1.727779165273    -2.348890353331     0.081697105576     1.007825032230
         H            2.501561165273     1.867981646669    -0.281741894424     1.007825032230
         H            3.336035165273    -0.475209353331    -0.218242894424     1.007825032230
         H           -2.588908834727    -0.339411353331    -1.384711894424     1.007825032230
         H           -3.741300834727    -0.269226353331    -0.228189894424     1.007825032230

  Basis Set: AUG-CC-PVTZ
    Blend: AUG-CC-PVTZ
  Basis Set: (AUG-CC-PVTZ AUX)
    Blend: AUG-CC-PVTZ-JKFIT
	 Reference Energy          =    -324.8698843138811867 [Eh]
	 Singles Energy            =      -0.0000000000000000 [Eh]
	 Same-Spin Energy          =      -0.3582261980983113 [Eh]
	 Opposite-Spin Energy      =      -1.1510761828376599 [Eh]
	 Correlation Energy        =      -1.5093023809359711 [Eh]
	 Total Energy              =    -326.3791866948171787 [Eh]

	 ================> DF-SCS-MP2 Energies <==================
	-----------------------------------------------------------
	 SCS Same-Spin Scale       =       0.3333333333333333 [-]
	 SCS Opposite-Spin Scale   =       1.2000000000000000 [-]
	 SCS Same-Spin Energy      =      -0.1194087326994371 [Eh]
	 SCS Opposite-Spin Energy  =      -1.3812914194051917 [Eh]
	 SCS Correlation Energy    =      -1.5007001521046288 [Eh]
	 SCS Total Energy          =    -326.3705844659858144 [Eh]
	-----------------------------------------------------------

  Dipole Moment: [D]
     X:    -0.8140      Y:     1.0679      Z:    -0.3407     Total:     1.3853

*** Psi4 exiting successfully. Buy a developer a beer!
