                               Psi4 1.3.2 release

  ==> Input File <==

--------------------------------------------------------------------------
#psi4
#
memory 32 gb

molecule  {
0 1
  N       -2.7348555    -0.4515313    -0.3759093
  C       -0.4348490     0.2437790     0.1629790
  C       -1.9077720     0.5229750     0.3447380
  C        0.0419710    -1.0733410     0.1956580
  C        0.4762650     1.2913860    -0.0102160
  C        1.4056430    -1.3329900     0.0574270
  C        1.8423760     1.0332520    -0.1440090
  C        2.3106710    -0.2811520    -0.1094010
  H       -2.1693300     0.4340790     1.4066040
  H       -2.1065270     1.5697560     0.0595480
  H       -0.6702630    -1.8854740     0.3139460
  H        0.1142300     2.3180440    -0.0466590
  H        1.7649670    -2.3594270     0.0823620
  H        2.5387490     1.8574450    -0.2810770
  H        3.3732230    -0.4857460    -0.2175780
  H       -2.5517210    -0.3499480    -1.3840470
  H       -3.7041130    -0.2797630    -0.2275250
units angstrom
no_reorient  #important for SAPT in psi4, default
symmetry c1  #important for SAPT in psi4, default
}

set PROPERTIES_ORIGIN ["COM"]
properties('MP2/aug-cc-pvtz', properties = ['dipole'])
--------------------------------------------------------------------------

    Molecular point group: c1
  Charge       = 0
  Multiplicity = 1
  Basis Set: AUG-CC-PVTZ
    Blend: AUG-CC-PVTZ
  Basis Set: (AUG-CC-PVTZ AUX)
    Blend: AUG-CC-PVTZ-JKFIT

    Orbital Energies [Eh]
    ---------------------

    Doubly Occupied:

       1A    -15.544543     2A    -11.258179     3A    -11.237170
       4A    -11.233697     5A    -11.232374     6A    -11.231296
       7A    -11.230570     8A    -11.226045     9A     -1.188691
      10A     -1.140502    11A     -1.024031    12A     -1.008220
      13A     -0.901056    14A     -0.822370    15A     -0.790169
      16A     -0.695826    17A     -0.664496    18A     -0.643103
      19A     -0.624383    20A     -0.584684    21A     -0.574940
      22A     -0.568490    23A     -0.545778    24A     -0.489317
      25A     -0.487053    26A     -0.481591    27A     -0.399288
      28A     -0.332219    29A     -0.323958

  @DF-RHF Final Energy:  -324.87399785591697

   => Energetics <=

    Nuclear Repulsion Energy =            340.9562648668667748
    One-Electron Energy =               -1114.6924488005815874
    Two-Electron Energy =                 448.8621860777977872
    Total Energy =                       -324.8739978559169685
  Basis Set: (AUG-CC-PVTZ AUX)
    Blend: AUG-CC-PVTZ-RI
    Molecular point group: c1

    Geometry (in Angstrom), charge = 0, multiplicity = 1:

       Center              X                  Y                   Z               Mass
    ------------   -----------------  -----------------  -----------------  -----------------
         N           -2.763600255330    -0.445455625084    -0.379696384226    14.003074004430
         C           -0.463593755330     0.249854674916     0.159191915774    12.000000000000
         C           -1.936516755330     0.529050674916     0.340950915774    12.000000000000
         C            0.013226244670    -1.067265325084     0.191870915774    12.000000000000
         C            0.447520244670     1.297461674916    -0.014003084226    12.000000000000
         C            1.376898244670    -1.326914325084     0.053639915774    12.000000000000
         C            1.813631244670     1.039327674916    -0.147796084226    12.000000000000
         C            2.281926244670    -0.275076325084    -0.113188084226    12.000000000000
         H           -2.198074755330     0.440154674916     1.402816915774     1.007825032230
         H           -2.135271755330     1.575831674916     0.055760915774     1.007825032230
         H           -0.699007755330    -1.879398325084     0.310158915774     1.007825032230
         H            0.085485244670     2.324119674916    -0.050446084226     1.007825032230
         H            1.736222244670    -2.353351325084     0.078574915774     1.007825032230
         H            2.510004244670     1.863520674916    -0.284864084226     1.007825032230
         H            3.344478244670    -0.479670325084    -0.221365084226     1.007825032230
         H           -2.580465755330    -0.343872325084    -1.387834084226     1.007825032230
         H           -3.732857755330    -0.273687325084    -0.231312084226     1.007825032230

  Basis Set: AUG-CC-PVTZ
    Blend: AUG-CC-PVTZ
  Basis Set: (AUG-CC-PVTZ AUX)
    Blend: AUG-CC-PVTZ-JKFIT
	 Reference Energy          =    -324.8739978559169685 [Eh]
	 Singles Energy            =      -0.0000000000000000 [Eh]
	 Same-Spin Energy          =      -0.3577569904225203 [Eh]
	 Opposite-Spin Energy      =      -1.1498379198141737 [Eh]
	 Correlation Energy        =      -1.5075949102366941 [Eh]
	 Total Energy              =    -326.3815927661536875 [Eh]

	 ================> DF-SCS-MP2 Energies <==================
	-----------------------------------------------------------
	 SCS Same-Spin Scale       =       0.3333333333333333 [-]
	 SCS Opposite-Spin Scale   =       1.2000000000000000 [-]
	 SCS Same-Spin Energy      =      -0.1192523301408401 [Eh]
	 SCS Opposite-Spin Energy  =      -1.3798055037770085 [Eh]
	 SCS Correlation Energy    =      -1.4990578339178486 [Eh]
	 SCS Total Energy          =    -326.3730556898348141 [Eh]
	-----------------------------------------------------------

  Dipole Moment: [D]
     X:    -0.6924      Y:     1.0049      Z:    -0.3602     Total:     1.2724

*** Psi4 exiting successfully. Buy a developer a beer!
