                               Psi4 1.3.2 release

  ==> Input File <==

--------------------------------------------------------------------------
#psi4
#
memory 32 gb

molecule  {
0 1
  N       -2.7558801    -0.4395627    -0.3675091
  C       -0.4348490     0.2437790     0.1629790
  C       -1.9077720     0.5229750     0.3447380
  C        0.0419710    -1.0733410     0.1956580
  C        0.4762650     1.2913860    -0.0102160
  C        1.4056430    -1.3329900     0.0574270
  C        1.8423760     1.0332520    -0.1440090
  C        2.3106710    -0.2811520    -0.1094010
  H       -2.1693300     0.4340790     1.4066040
  H       -2.1065270     1.5697560     0.0595480
  H       -0.6702630    -1.8854740     0.3139460
  H        0.1142300     2.3180440    -0.0466590
  H        1.7649670    -2.3594270     0.0823620
  H        2.5387490     1.8574450    -0.2810770
  H        3.3732230    -0.4857460    -0.2175780
  H       -2.5517210    -0.3499480    -1.3840470
  H       -3.7041130    -0.2797630    -0.2275250
units angstrom
no_reorient  #important for SAPT in psi4, default
symmetry c1  #important for SAPT in psi4, default
}

set PROPERTIES_ORIGIN ["COM"]
properties('MP2/aug-cc-pvtz', properties = ['dipole'])
--------------------------------------------------------------------------

    Molecular point group: c1
  Charge       = 0
  Multiplicity = 1
  Basis Set: AUG-CC-PVTZ
    Blend: AUG-CC-PVTZ
  Basis Set: (AUG-CC-PVTZ AUX)
    Blend: AUG-CC-PVTZ-JKFIT

    Orbital Energies [Eh]
    ---------------------

    Doubly Occupied:

       1A    -15.542404     2A    -11.258170     3A    -11.237808
       4A    -11.234037     5A    -11.232708     6A    -11.231714
       7A    -11.230916     8A    -11.226500     9A     -1.189106
      10A     -1.141198    11A     -1.024846    12A     -1.008593
      13A     -0.901801    14A     -0.822706    15A     -0.790407
      16A     -0.696142    17A     -0.668076    18A     -0.642661
      19A     -0.625850    20A     -0.584830    21A     -0.574932
      22A     -0.569049    23A     -0.545321    24A     -0.489734
      25A     -0.487367    26A     -0.482344    27A     -0.397277
      28A     -0.332549    29A     -0.324326

  @DF-RHF Final Energy:  -324.87247484818988

   => Energetics <=

    Nuclear Repulsion Energy =            340.8125831620314443
    One-Electron Energy =               -1114.3833728773215626
    Two-Electron Energy =                 448.6983148671002937
    Total Energy =                       -324.8724748481898814
  Basis Set: (AUG-CC-PVTZ AUX)
    Blend: AUG-CC-PVTZ-RI
    Molecular point group: c1

    Geometry (in Angstrom), charge = 0, multiplicity = 1:

       Center              X                  Y                   Z               Mass
    ------------   -----------------  -----------------  -----------------  -----------------
         N           -2.781875257795    -0.435052278789    -0.372394762521    14.003074004430
         C           -0.460844157795     0.248289421211     0.158093337479    12.000000000000
         C           -1.933767157795     0.527485421211     0.339852337479    12.000000000000
         C            0.015975842205    -1.068830578789     0.190772337479    12.000000000000
         C            0.450269842205     1.295896421211    -0.015101662521    12.000000000000
         C            1.379647842205    -1.328479578789     0.052541337479    12.000000000000
         C            1.816380842205     1.037762421211    -0.148894662521    12.000000000000
         C            2.284675842205    -0.276641578789    -0.114286662521    12.000000000000
         H           -2.195325157795     0.438589421211     1.401718337479     1.007825032230
         H           -2.132522157795     1.574266421211     0.054662337479     1.007825032230
         H           -0.696258157795    -1.880963578789     0.309060337479     1.007825032230
         H            0.088234842205     2.322554421211    -0.051544662521     1.007825032230
         H            1.738971842205    -2.354916578789     0.077476337479     1.007825032230
         H            2.512753842205     1.861955421211    -0.285962662521     1.007825032230
         H            3.347227842205    -0.481235578789    -0.222463662521     1.007825032230
         H           -2.577716157795    -0.345437578789    -1.388932662521     1.007825032230
         H           -3.730108157795    -0.275252578789    -0.232410662521     1.007825032230

  Basis Set: AUG-CC-PVTZ
    Blend: AUG-CC-PVTZ
  Basis Set: (AUG-CC-PVTZ AUX)
    Blend: AUG-CC-PVTZ-JKFIT
	 Reference Energy          =    -324.8724748481898814 [Eh]
	 Singles Energy            =      -0.0000000000000000 [Eh]
	 Same-Spin Energy          =      -0.3576439325433670 [Eh]
	 Opposite-Spin Energy      =      -1.1495721495477587 [Eh]
	 Correlation Energy        =      -1.5072160820911256 [Eh]
	 Total Energy              =    -326.3796909302810150 [Eh]

	 ================> DF-SCS-MP2 Energies <==================
	-----------------------------------------------------------
	 SCS Same-Spin Scale       =       0.3333333333333333 [-]
	 SCS Opposite-Spin Scale   =       1.2000000000000000 [-]
	 SCS Same-Spin Energy      =      -0.1192146441811223 [Eh]
	 SCS Opposite-Spin Energy  =      -1.3794865794573103 [Eh]
	 SCS Correlation Energy    =      -1.4987012236384327 [Eh]
	 SCS Total Energy          =    -326.3711760718283017 [Eh]
	-----------------------------------------------------------

  Dipole Moment: [D]
     X:    -0.6448      Y:     0.9831      Z:    -0.3662     Total:     1.2314

*** Psi4 exiting successfully. Buy a developer a beer!
