                               Psi4 1.3.2 release

  ==> Input File <==

--------------------------------------------------------------------------
#psi4
#
memory 32 gb

molecule  {
0 1
  N       -2.5809972    -0.5268070    -0.4284294
  C       -0.4348490     0.2437790     0.1629790
  C       -1.9077720     0.5229750     0.3447380
  C        0.0419710    -1.0733410     0.1956580
  C        0.4762650     1.2913860    -0.0102160
  C        1.4056430    -1.3329900     0.0574270
  C        1.8423760     1.0332520    -0.1440090
  C        2.3106710    -0.2811520    -0.1094010
  H       -2.1693300     0.4340790     1.4066040
  H       -2.1065270     1.5697560     0.0595480
  H       -0.6702630    -1.8854740     0.3139460
  H        0.1142300     2.3180440    -0.0466590
  H        1.7649670    -2.3594270     0.0823620
  H        2.5387490     1.8574450    -0.2810770
  H        3.3732230    -0.4857460    -0.2175780
  H       -2.5517210    -0.3499480    -1.3840470
  H       -3.7041130    -0.2797630    -0.2275250
units angstrom
no_reorient  #important for SAPT in psi4, default
symmetry c1  #important for SAPT in psi4, default
}

set PROPERTIES_ORIGIN ["COM"]
properties('MP2/aug-cc-pvtz', properties = ['dipole'])
--------------------------------------------------------------------------

    Molecular point group: c1
  Charge       = 0
  Multiplicity = 1
  Basis Set: AUG-CC-PVTZ
    Blend: AUG-CC-PVTZ
  Basis Set: (AUG-CC-PVTZ AUX)
    Blend: AUG-CC-PVTZ-JKFIT

    Orbital Energies [Eh]
    ---------------------

    Doubly Occupied:

       1A    -15.561300     2A    -11.260355     3A    -11.233812
       4A    -11.231886     5A    -11.230578     6A    -11.229020
       7A    -11.228690     8A    -11.223541     9A     -1.190581
      10A     -1.137027    11A     -1.020135    12A     -1.006241
      13A     -0.900766    14A     -0.821013    15A     -0.790017
      16A     -0.693074    17A     -0.656150    18A     -0.640247
      19A     -0.611288    20A     -0.588682    21A     -0.578829
      22A     -0.567112    23A     -0.529918    24A     -0.488419
      25A     -0.486106    26A     -0.469313    27A     -0.415378
      28A     -0.330475    29A     -0.321641

  @DF-RHF Final Energy:  -324.84923509808618

   => Energetics <=

    Nuclear Repulsion Energy =            342.1359583617045814
    One-Electron Energy =               -1117.0871997891135834
    Two-Electron Energy =                 450.1020063293228759
    Total Energy =                       -324.8492350980861829
  Basis Set: (AUG-CC-PVTZ AUX)
    Blend: AUG-CC-PVTZ-RI
    Molecular point group: c1

    Geometry (in Angstrom), charge = 0, multiplicity = 1:

       Center              X                  Y                   Z               Mass
    ------------   -----------------  -----------------  -----------------  -----------------
         N           -2.629863546342    -0.510886767796    -0.425347904681    14.003074004430
         C           -0.483715346342     0.259699232204     0.166060495319    12.000000000000
         C           -1.956638346342     0.538895232204     0.347819495319    12.000000000000
         C           -0.006895346342    -1.057420767796     0.198739495319    12.000000000000
         C            0.427398653658     1.307306232204    -0.007134504681    12.000000000000
         C            1.356776653658    -1.317069767796     0.060508495319    12.000000000000
         C            1.793509653658     1.049172232204    -0.140927504681    12.000000000000
         C            2.261804653658    -0.265231767796    -0.106319504681    12.000000000000
         H           -2.218196346342     0.449999232204     1.409685495319     1.007825032230
         H           -2.155393346342     1.585676232204     0.062629495319     1.007825032230
         H           -0.719129346342    -1.869553767796     0.317027495319     1.007825032230
         H            0.065363653658     2.333964232204    -0.043577504681     1.007825032230
         H            1.716100653658    -2.343506767796     0.085443495319     1.007825032230
         H            2.489882653658     1.873365232204    -0.277995504681     1.007825032230
         H            3.324356653658    -0.469825767796    -0.214496504681     1.007825032230
         H           -2.600587346342    -0.334027767796    -1.380965504681     1.007825032230
         H           -3.752979346342    -0.263842767796    -0.224443504681     1.007825032230

  Basis Set: AUG-CC-PVTZ
    Blend: AUG-CC-PVTZ
  Basis Set: (AUG-CC-PVTZ AUX)
    Blend: AUG-CC-PVTZ-JKFIT
	 Reference Energy          =    -324.8492350980861829 [Eh]
	 Singles Energy            =      -0.0000000000000000 [Eh]
	 Same-Spin Energy          =      -0.3591417156050137 [Eh]
	 Opposite-Spin Energy      =      -1.1537072077803110 [Eh]
	 Correlation Energy        =      -1.5128489233853246 [Eh]
	 Total Energy              =    -326.3620840214715031 [Eh]

	 ================> DF-SCS-MP2 Energies <==================
	-----------------------------------------------------------
	 SCS Same-Spin Scale       =       0.3333333333333333 [-]
	 SCS Opposite-Spin Scale   =       1.2000000000000000 [-]
	 SCS Same-Spin Energy      =      -0.1197139052016712 [Eh]
	 SCS Opposite-Spin Energy  =      -1.3844486493363732 [Eh]
	 SCS Correlation Energy    =      -1.5041625545380444 [Eh]
	 SCS Total Energy          =    -326.3533976526242100 [Eh]
	-----------------------------------------------------------

  Dipole Moment: [D]
     X:    -0.9258      Y:     1.1449      Z:    -0.3150     Total:     1.5057

*** Psi4 exiting successfully. Buy a developer a beer!
