                               Psi4 1.3.2 release

  ==> Input File <==

--------------------------------------------------------------------------
#psi4
#
memory 32 gb

molecule  {
0 1
  N       -2.7971480    -0.4147497    -0.3500605
  C       -0.4348490     0.2437790     0.1629790
  C       -1.9077720     0.5229750     0.3447380
  C        0.0419710    -1.0733410     0.1956580
  C        0.4762650     1.2913860    -0.0102160
  C        1.4056430    -1.3329900     0.0574270
  C        1.8423760     1.0332520    -0.1440090
  C        2.3106710    -0.2811520    -0.1094010
  H       -2.1693300     0.4340790     1.4066040
  H       -2.1065270     1.5697560     0.0595480
  H       -0.6702630    -1.8854740     0.3139460
  H        0.1142300     2.3180440    -0.0466590
  H        1.7649670    -2.3594270     0.0823620
  H        2.5387490     1.8574450    -0.2810770
  H        3.3732230    -0.4857460    -0.2175780
  H       -2.5517210    -0.3499480    -1.3840470
  H       -3.7041130    -0.2797630    -0.2275250
units angstrom
no_reorient  #important for SAPT in psi4, default
symmetry c1  #important for SAPT in psi4, default
}

set PROPERTIES_ORIGIN ["COM"]
properties('MP2/aug-cc-pvtz', properties = ['dipole'])
--------------------------------------------------------------------------

    Molecular point group: c1
  Charge       = 0
  Multiplicity = 1
  Basis Set: AUG-CC-PVTZ
    Blend: AUG-CC-PVTZ
  Basis Set: (AUG-CC-PVTZ AUX)
    Blend: AUG-CC-PVTZ-JKFIT

    Orbital Energies [Eh]
    ---------------------

    Doubly Occupied:

       1A    -15.538303     2A    -11.258429     3A    -11.239190
       4A    -11.234770     5A    -11.233426     6A    -11.232608
       7A    -11.231657     8A    -11.227471     9A     -1.190593
      10A     -1.142743    11A     -1.026697    12A     -1.009394
      13A     -0.904023    14A     -0.823465    15A     -0.791224
      16A     -0.696598    17A     -0.675750    18A     -0.641775
      19A     -0.628457    20A     -0.585382    21A     -0.576084
      22A     -0.570067    23A     -0.542277    24A     -0.490902
      25A     -0.488152    26A     -0.483048    27A     -0.393510
      28A     -0.333260    29A     -0.325089

  @DF-RHF Final Energy:  -324.86418510241549

   => Energetics <=

    Nuclear Repulsion Energy =            340.5459360860592710
    One-Electron Energy =               -1113.7915564062343492
    Two-Electron Energy =                 448.3814352177595310
    Total Energy =                       -324.8641851024154903
  Basis Set: (AUG-CC-PVTZ AUX)
    Blend: AUG-CC-PVTZ-RI
    Molecular point group: c1

    Geometry (in Angstrom), charge = 0, multiplicity = 1:

       Center              X                  Y                   Z               Mass
    ------------   -----------------  -----------------  -----------------  -----------------
         N           -2.817746141152    -0.413484323339    -0.357228090717    14.003074004430
         C           -0.455447141152     0.245044376661     0.155811409283    12.000000000000
         C           -1.928370141152     0.524240376661     0.337570409283    12.000000000000
         C            0.021372858848    -1.072075623339     0.188490409283    12.000000000000
         C            0.455666858848     1.292651376661    -0.017383590717    12.000000000000
         C            1.385044858848    -1.331724623339     0.050259409283    12.000000000000
         C            1.821777858848     1.034517376661    -0.151176590717    12.000000000000
         C            2.290072858848    -0.279886623339    -0.116568590717    12.000000000000
         H           -2.189928141152     0.435344376661     1.399436409283     1.007825032230
         H           -2.127125141152     1.571021376661     0.052380409283     1.007825032230
         H           -0.690861141152    -1.884208623339     0.306778409283     1.007825032230
         H            0.093631858848     2.319309376661    -0.053826590717     1.007825032230
         H            1.744368858848    -2.358161623339     0.075194409283     1.007825032230
         H            2.518150858848     1.858710376661    -0.288244590717     1.007825032230
         H            3.352624858848    -0.484480623339    -0.224745590717     1.007825032230
         H           -2.572319141152    -0.348682623339    -1.391214590717     1.007825032230
         H           -3.724711141152    -0.278497623339    -0.234692590717     1.007825032230

  Basis Set: AUG-CC-PVTZ
    Blend: AUG-CC-PVTZ
  Basis Set: (AUG-CC-PVTZ AUX)
    Blend: AUG-CC-PVTZ-JKFIT
	 Reference Energy          =    -324.8641851024154903 [Eh]
	 Singles Energy            =      -0.0000000000000000 [Eh]
	 Same-Spin Energy          =      -0.3574860584987390 [Eh]
	 Opposite-Spin Energy      =      -1.1492679180485643 [Eh]
	 Correlation Energy        =      -1.5067539765473033 [Eh]
	 Total Energy              =    -326.3709390789628060 [Eh]

	 ================> DF-SCS-MP2 Energies <==================
	-----------------------------------------------------------
	 SCS Same-Spin Scale       =       0.3333333333333333 [-]
	 SCS Opposite-Spin Scale   =       1.2000000000000000 [-]
	 SCS Same-Spin Energy      =      -0.1191620194995797 [Eh]
	 SCS Opposite-Spin Energy  =      -1.3791215016582772 [Eh]
	 SCS Correlation Energy    =      -1.4982835211578569 [Eh]
	 SCS Total Energy          =    -326.3624686235733634 [Eh]
	-----------------------------------------------------------

  Dipole Moment: [D]
     X:    -0.5395      Y:     0.9383      Z:    -0.3771     Total:     1.1462

*** Psi4 exiting successfully. Buy a developer a beer!
