                               Psi4 1.3.2 release

  ==> Input File <==

--------------------------------------------------------------------------
#psi4
#
memory 32 gb

molecule  {
0 1
  F       -1.1631396    -0.2116801    -0.0000045
  F        1.1103890    -0.2910770    -0.0000050
  C        0.0000050     0.5038560     0.0000000
  H        0.0000020     1.1080370     0.9089350
  H        0.0000010     1.1081850    -0.9088390
units angstrom
no_reorient  #important for SAPT in psi4, default
symmetry c1  #important for SAPT in psi4, default
}

set PROPERTIES_ORIGIN ["COM"]
properties('MP2/aug-cc-pvtz', properties = ['dipole'])
--------------------------------------------------------------------------

    Molecular point group: c1
  Charge       = 0
  Multiplicity = 1
  Basis Set: AUG-CC-PVTZ
    Blend: AUG-CC-PVTZ
  Basis Set: (AUG-CC-PVTZ AUX)
    Blend: AUG-CC-PVTZ-JKFIT

    Orbital Energies [Eh]
    ---------------------

    Doubly Occupied:

       1A    -26.318094     2A    -26.315404     3A    -11.410121
       4A     -1.656523     5A     -1.604932     6A     -0.971769
       7A     -0.776832     8A     -0.764376     9A     -0.757566
      10A     -0.670982    11A     -0.639911    12A     -0.618321
      13A     -0.537689

  @DF-RHF Final Energy:  -237.99648078877104

   => Energetics <=

    Nuclear Repulsion Energy =             76.3645013841081948
    One-Electron Energy =                -482.6369218103138223
    Two-Electron Energy =                 168.2759396374345613
    Total Energy =                       -237.9964807887710379
  Basis Set: (AUG-CC-PVTZ AUX)
    Blend: AUG-CC-PVTZ-RI
    Molecular point group: c1

    Geometry (in Angstrom), charge = 0, multiplicity = 1:

       Center              X                  Y                   Z               Mass
    ------------   -----------------  -----------------  -----------------  -----------------
         F           -1.143872789471    -0.187229301895    -0.000002890124    18.998403162730
         F            1.129655810529    -0.266626201895    -0.000003390124    18.998403162730
         C            0.019271810529     0.528306798105     0.000001609876    12.000000000000
         H            0.019268810529     1.132487798105     0.908936609876     1.007825032230
         H            0.019267810529     1.132635798105    -0.908837390124     1.007825032230

  Basis Set: AUG-CC-PVTZ
    Blend: AUG-CC-PVTZ
  Basis Set: (AUG-CC-PVTZ AUX)
    Blend: AUG-CC-PVTZ-JKFIT
	 Reference Energy          =    -237.9964807887710379 [Eh]
	 Singles Energy            =      -0.0000000000000000 [Eh]
	 Same-Spin Energy          =      -0.1828153332765486 [Eh]
	 Opposite-Spin Energy      =      -0.5544392683352691 [Eh]
	 Correlation Energy        =      -0.7372546016118177 [Eh]
	 Total Energy              =    -238.7337353903828614 [Eh]

	 ================> DF-SCS-MP2 Energies <==================
	-----------------------------------------------------------
	 SCS Same-Spin Scale       =       0.3333333333333333 [-]
	 SCS Opposite-Spin Scale   =       1.2000000000000000 [-]
	 SCS Same-Spin Energy      =      -0.0609384444255162 [Eh]
	 SCS Opposite-Spin Energy  =      -0.6653271220023229 [Eh]
	 SCS Correlation Energy    =      -0.7262655664278391 [Eh]
	 SCS Total Energy          =    -238.7227463551988649 [Eh]
	-----------------------------------------------------------

  Dipole Moment: [D]
     X:     0.0633      Y:     1.8947      Z:     0.0000     Total:     1.8958

*** Psi4 exiting successfully. Buy a developer a beer!
