                               Psi4 1.3.2 release

  ==> Input File <==

--------------------------------------------------------------------------
#psi4
#
memory 32 gb

molecule  {
0 1
  F       -1.0963504    -0.3103320    -0.0000051
  F        1.1103890    -0.2910770    -0.0000050
  C        0.0000050     0.5038560     0.0000000
  H        0.0000020     1.1080370     0.9089350
  H        0.0000010     1.1081850    -0.9088390
units angstrom
no_reorient  #important for SAPT in psi4, default
symmetry c1  #important for SAPT in psi4, default
}

set PROPERTIES_ORIGIN ["COM"]
properties('MP2/aug-cc-pvtz', properties = ['dipole'])
--------------------------------------------------------------------------

    Molecular point group: c1
  Charge       = 0
  Multiplicity = 1
  Basis Set: AUG-CC-PVTZ
    Blend: AUG-CC-PVTZ
  Basis Set: (AUG-CC-PVTZ AUX)
    Blend: AUG-CC-PVTZ-JKFIT

    Orbital Energies [Eh]
    ---------------------

    Doubly Occupied:

       1A    -26.313772     2A    -26.313105     3A    -11.410347
       4A     -1.657672     5A     -1.598752     6A     -0.971519
       7A     -0.775707     8A     -0.768030     9A     -0.751401
      10A     -0.666021    11A     -0.632002    12A     -0.623747
      13A     -0.539882

  @DF-RHF Final Energy:  -237.99813483464914

   => Energetics <=

    Nuclear Repulsion Energy =             76.8743500269574440
    One-Electron Energy =                -483.7010511197760252
    Two-Electron Energy =                 168.8285662581694169
    Total Energy =                       -237.9981348346491359
  Basis Set: (AUG-CC-PVTZ AUX)
    Blend: AUG-CC-PVTZ-RI
    Molecular point group: c1

    Geometry (in Angstrom), charge = 0, multiplicity = 1:

       Center              X                  Y                   Z               Mass
    ------------   -----------------  -----------------  -----------------  -----------------
         F           -1.101479440707    -0.249846976652    -0.000003270964    18.998403162730
         F            1.105259959293    -0.230591976652    -0.000003170964    18.998403162730
         C           -0.005124040707     0.564341023348     0.000001829036    12.000000000000
         H           -0.005127040707     1.168522023348     0.908936829036     1.007825032230
         H           -0.005128040707     1.168670023348    -0.908837170964     1.007825032230

  Basis Set: AUG-CC-PVTZ
    Blend: AUG-CC-PVTZ
  Basis Set: (AUG-CC-PVTZ AUX)
    Blend: AUG-CC-PVTZ-JKFIT
	 Reference Energy          =    -237.9981348346491359 [Eh]
	 Singles Energy            =      -0.0000000000000000 [Eh]
	 Same-Spin Energy          =      -0.1826720462930571 [Eh]
	 Opposite-Spin Energy      =      -0.5541236453739031 [Eh]
	 Correlation Energy        =      -0.7367956916669602 [Eh]
	 Total Energy              =    -238.7349305263161057 [Eh]

	 ================> DF-SCS-MP2 Energies <==================
	-----------------------------------------------------------
	 SCS Same-Spin Scale       =       0.3333333333333333 [-]
	 SCS Opposite-Spin Scale   =       1.2000000000000000 [-]
	 SCS Same-Spin Energy      =      -0.0608906820976857 [Eh]
	 SCS Opposite-Spin Energy  =      -0.6649483744486837 [Eh]
	 SCS Correlation Energy    =      -0.7258390565463694 [Eh]
	 SCS Total Energy          =    -238.7239738911954987 [Eh]
	-----------------------------------------------------------

  Dipole Moment: [D]
     X:    -0.0171      Y:     2.0506      Z:     0.0000     Total:     2.0507

*** Psi4 exiting successfully. Buy a developer a beer!
