                               Psi4 1.3.2 release

  ==> Input File <==

--------------------------------------------------------------------------
#psi4
#
memory 32 gb

molecule  {
0 1
  F       -1.1103930    -0.2910740    -0.0000050
  F        1.1103890    -0.2910770    -0.0000050
  C       -0.0813064     0.4456455    -0.0000004
  H        0.0000020     1.1080370     0.9089350
  H        0.0000010     1.1081850    -0.9088390
units angstrom
no_reorient  #important for SAPT in psi4, default
symmetry c1  #important for SAPT in psi4, default
}

set PROPERTIES_ORIGIN ["COM"]
properties('MP2/aug-cc-pvtz', properties = ['dipole'])
--------------------------------------------------------------------------

    Molecular point group: c1
  Charge       = 0
  Multiplicity = 1
  Basis Set: AUG-CC-PVTZ
    Blend: AUG-CC-PVTZ
  Basis Set: (AUG-CC-PVTZ AUX)
    Blend: AUG-CC-PVTZ-JKFIT

    Orbital Energies [Eh]
    ---------------------

    Doubly Occupied:

       1A    -26.344261     2A    -26.297784     3A    -11.411768
       4A     -1.703629     5A     -1.595650     6A     -0.969287
       7A     -0.790989     8A     -0.790266     9A     -0.775186
      10A     -0.669449    11A     -0.638805    12A     -0.612275
      13A     -0.515000

  @DF-RHF Final Energy:  -237.98894345695388

   => Energetics <=

    Nuclear Repulsion Energy =             77.7033172668704566
    One-Electron Energy =                -485.1558221413195611
    Two-Electron Energy =                 169.4635614174952423
    Total Energy =                       -237.9889434569538764
  Basis Set: (AUG-CC-PVTZ AUX)
    Blend: AUG-CC-PVTZ-RI
    Molecular point group: c1

    Geometry (in Angstrom), charge = 0, multiplicity = 1:

       Center              X                  Y                   Z               Mass
    ------------   -----------------  -----------------  -----------------  -----------------
         F           -1.091633075208    -0.224193301943    -0.000003115205    18.998403162730
         F            1.129148924792    -0.224196301943    -0.000003115205    18.998403162730
         C           -0.062546475208     0.512526198057     0.000001484795    12.000000000000
         H            0.018761924792     1.174917698057     0.908936884795     1.007825032230
         H            0.018760924792     1.175065698057    -0.908837115205     1.007825032230

  Basis Set: AUG-CC-PVTZ
    Blend: AUG-CC-PVTZ
  Basis Set: (AUG-CC-PVTZ AUX)
    Blend: AUG-CC-PVTZ-JKFIT
	 Reference Energy          =    -237.9889434569538764 [Eh]
	 Singles Energy            =      -0.0000000000000000 [Eh]
	 Same-Spin Energy          =      -0.1826981061145380 [Eh]
	 Opposite-Spin Energy      =      -0.5531189122208389 [Eh]
	 Correlation Energy        =      -0.7358170183353769 [Eh]
	 Total Energy              =    -238.7247604752892585 [Eh]

	 ================> DF-SCS-MP2 Energies <==================
	-----------------------------------------------------------
	 SCS Same-Spin Scale       =       0.3333333333333333 [-]
	 SCS Opposite-Spin Scale   =       1.2000000000000000 [-]
	 SCS Same-Spin Energy      =      -0.0608993687048460 [Eh]
	 SCS Opposite-Spin Energy  =      -0.6637426946650066 [Eh]
	 SCS Correlation Energy    =      -0.7246420633698526 [Eh]
	 SCS Total Energy          =    -238.7135855203237327 [Eh]
	-----------------------------------------------------------

  Dipole Moment: [D]
     X:    -0.6191      Y:     1.7125      Z:    -0.0000     Total:     1.8210

*** Psi4 exiting successfully. Buy a developer a beer!
