                               Psi4 1.3.2 release

  ==> Input File <==

--------------------------------------------------------------------------
#psi4
#
memory 32 gb

molecule  {
0 1
  F       -1.0819739    -0.3293421    -0.0000052
  F        1.1103890    -0.2910770    -0.0000050
  C        0.0000050     0.5038560     0.0000000
  H        0.0000020     1.1080370     0.9089350
  H        0.0000010     1.1081850    -0.9088390
units angstrom
no_reorient  #important for SAPT in psi4, default
symmetry c1  #important for SAPT in psi4, default
}

set PROPERTIES_ORIGIN ["COM"]
properties('MP2/aug-cc-pvtz', properties = ['dipole'])
--------------------------------------------------------------------------

    Molecular point group: c1
  Charge       = 0
  Multiplicity = 1
  Basis Set: AUG-CC-PVTZ
    Blend: AUG-CC-PVTZ
  Basis Set: (AUG-CC-PVTZ AUX)
    Blend: AUG-CC-PVTZ-JKFIT

    Orbital Energies [Eh]
    ---------------------

    Doubly Occupied:

       1A    -26.313367     2A    -26.312032     3A    -11.410400
       4A     -1.657958     5A     -1.597395     6A     -0.971464
       7A     -0.775499     8A     -0.768835     9A     -0.750029
      10A     -0.664946    11A     -0.630235    12A     -0.624766
      13A     -0.540305

  @DF-RHF Final Energy:  -237.99806494106426

   => Energetics <=

    Nuclear Repulsion Energy =             76.9860667451983147
    One-Electron Energy =                -483.9337979282837523
    Two-Electron Energy =                 168.9496662420212090
    Total Energy =                       -237.9980649410642570
  Basis Set: (AUG-CC-PVTZ AUX)
    Blend: AUG-CC-PVTZ-RI
    Molecular point group: c1

    Geometry (in Angstrom), charge = 0, multiplicity = 1:

       Center              X                  Y                   Z               Mass
    ------------   -----------------  -----------------  -----------------  -----------------
         F           -1.092354193235    -0.261913325693    -0.000003334437    18.998403162730
         F            1.100008706765    -0.223648225693    -0.000003134437    18.998403162730
         C           -0.010375293235     0.571284774307     0.000001865563    12.000000000000
         H           -0.010378293235     1.175465774307     0.908936865563     1.007825032230
         H           -0.010379293235     1.175613774307    -0.908837134437     1.007825032230

  Basis Set: AUG-CC-PVTZ
    Blend: AUG-CC-PVTZ
  Basis Set: (AUG-CC-PVTZ AUX)
    Blend: AUG-CC-PVTZ-JKFIT
	 Reference Energy          =    -237.9980649410642570 [Eh]
	 Singles Energy            =      -0.0000000000000000 [Eh]
	 Same-Spin Energy          =      -0.1826532708526633 [Eh]
	 Opposite-Spin Energy      =      -0.5540799502574448 [Eh]
	 Correlation Energy        =      -0.7367332211101081 [Eh]
	 Total Energy              =    -238.7347981621743713 [Eh]

	 ================> DF-SCS-MP2 Energies <==================
	-----------------------------------------------------------
	 SCS Same-Spin Scale       =       0.3333333333333333 [-]
	 SCS Opposite-Spin Scale   =       1.2000000000000000 [-]
	 SCS Same-Spin Energy      =      -0.0608844236175544 [Eh]
	 SCS Opposite-Spin Energy  =      -0.6648959403089337 [Eh]
	 SCS Correlation Energy    =      -0.7257803639264881 [Eh]
	 SCS Total Energy          =    -238.7238453049907321 [Eh]
	-----------------------------------------------------------

  Dipole Moment: [D]
     X:    -0.0348      Y:     2.0808      Z:     0.0000     Total:     2.0811

*** Psi4 exiting successfully. Buy a developer a beer!
