                               Psi4 1.3.2 release

  ==> Input File <==

--------------------------------------------------------------------------
#psi4
#
memory 32 gb

molecule  {
0 1
  F       -1.0813216    -0.3259671    -0.0838079
  F        1.1103890    -0.2910770    -0.0000050
  C        0.0000050     0.5038560     0.0000000
  H        0.0000020     1.1080370     0.9089350
  H        0.0000010     1.1081850    -0.9088390
units angstrom
no_reorient  #important for SAPT in psi4, default
symmetry c1  #important for SAPT in psi4, default
}

set PROPERTIES_ORIGIN ["COM"]
properties('MP2/aug-cc-pvtz', properties = ['dipole'])
--------------------------------------------------------------------------

    Molecular point group: c1
  Charge       = 0
  Multiplicity = 1
  Basis Set: AUG-CC-PVTZ
    Blend: AUG-CC-PVTZ
  Basis Set: (AUG-CC-PVTZ AUX)
    Blend: AUG-CC-PVTZ-JKFIT

    Orbital Energies [Eh]
    ---------------------

    Doubly Occupied:

       1A    -26.313374     2A    -26.312114     3A    -11.410376
       4A     -1.657974     5A     -1.597509     6A     -0.971467
       7A     -0.775930     8A     -0.768636     9A     -0.749939
      10A     -0.665041    11A     -0.630366    12A     -0.624757
      13A     -0.539762

  @DF-RHF Final Energy:  -237.99739296323767

   => Energetics <=

    Nuclear Repulsion Energy =             76.9829755146211880
    One-Electron Energy =                -483.9262483317983197
    Two-Electron Energy =                 168.9458798539394309
    Total Energy =                       -237.9973929632376723
  Basis Set: (AUG-CC-PVTZ AUX)
    Blend: AUG-CC-PVTZ-RI
    Molecular point group: c1

    Geometry (in Angstrom), charge = 0, multiplicity = 1:

       Center              X                  Y                   Z               Mass
    ------------   -----------------  -----------------  -----------------  -----------------
         F           -1.091940156513    -0.259771099823    -0.053195723153    18.998403162730
         F            1.099770443487    -0.224880999823     0.030607176847    18.998403162730
         C           -0.010613556513     0.570052000177     0.030612176847    12.000000000000
         H           -0.010616556513     1.174233000177     0.939547176847     1.007825032230
         H           -0.010617556513     1.174381000177    -0.878226823153     1.007825032230

  Basis Set: AUG-CC-PVTZ
    Blend: AUG-CC-PVTZ
  Basis Set: (AUG-CC-PVTZ AUX)
    Blend: AUG-CC-PVTZ-JKFIT
	 Reference Energy          =    -237.9973929632376723 [Eh]
	 Singles Energy            =      -0.0000000000000000 [Eh]
	 Same-Spin Energy          =      -0.1826751707369142 [Eh]
	 Opposite-Spin Energy      =      -0.5541201769267150 [Eh]
	 Correlation Energy        =      -0.7367953476636292 [Eh]
	 Total Energy              =    -238.7341883109012883 [Eh]

	 ================> DF-SCS-MP2 Energies <==================
	-----------------------------------------------------------
	 SCS Same-Spin Scale       =       0.3333333333333333 [-]
	 SCS Opposite-Spin Scale   =       1.2000000000000000 [-]
	 SCS Same-Spin Energy      =      -0.0608917235789714 [Eh]
	 SCS Opposite-Spin Energy  =      -0.6649442123120580 [Eh]
	 SCS Correlation Energy    =      -0.7258359358910295 [Eh]
	 SCS Total Energy          =    -238.7232288991287135 [Eh]
	-----------------------------------------------------------

  Dipole Moment: [D]
     X:    -0.0363      Y:     2.0752      Z:     0.1135     Total:     2.0786

*** Psi4 exiting successfully. Buy a developer a beer!
