                               Psi4 1.3.2 release

  ==> Input File <==

--------------------------------------------------------------------------
#psi4
#
memory 32 gb

molecule  {
0 1
  F       -1.1229079    -0.2721638     0.0419220
  F        1.1103890    -0.2910770    -0.0000050
  C        0.0000050     0.5038560     0.0000000
  H        0.0000020     1.1080370     0.9089350
  H        0.0000010     1.1081850    -0.9088390
units angstrom
no_reorient  #important for SAPT in psi4, default
symmetry c1  #important for SAPT in psi4, default
}

set PROPERTIES_ORIGIN ["COM"]
properties('MP2/aug-cc-pvtz', properties = ['dipole'])
--------------------------------------------------------------------------

    Molecular point group: c1
  Charge       = 0
  Multiplicity = 1
  Basis Set: AUG-CC-PVTZ
    Blend: AUG-CC-PVTZ
  Basis Set: (AUG-CC-PVTZ AUX)
    Blend: AUG-CC-PVTZ-JKFIT

    Orbital Energies [Eh]
    ---------------------

    Doubly Occupied:

       1A    -26.315119     2A    -26.314477     3A    -11.410245
       4A     -1.657183     5A     -1.601275     6A     -0.971621
       7A     -0.776226     8A     -0.766497     9A     -0.753897
      10A     -0.668036    11A     -0.635259    12A     -0.621722
      13A     -0.538909

  @DF-RHF Final Energy:  -237.99770191488042

   => Energetics <=

    Nuclear Repulsion Energy =             76.6679798573811553
    One-Electron Energy =                -483.2704320784689003
    Two-Electron Energy =                 168.6047503062073076
    Total Energy =                       -237.9977019148804231
  Basis Set: (AUG-CC-PVTZ AUX)
    Blend: AUG-CC-PVTZ-RI
    Molecular point group: c1

    Geometry (in Angstrom), charge = 0, multiplicity = 1:

       Center              X                  Y                   Z               Mass
    ------------   -----------------  -----------------  -----------------  -----------------
         F           -1.118336378053    -0.225620338000     0.026609267784    18.998403162730
         F            1.114960521947    -0.244533538000    -0.015317732216    18.998403162730
         C            0.004576521947     0.550399462000    -0.015312732216    12.000000000000
         H            0.004573521947     1.154580462000     0.893622267784     1.007825032230
         H            0.004572521947     1.154728462000    -0.924151732216     1.007825032230

  Basis Set: AUG-CC-PVTZ
    Blend: AUG-CC-PVTZ
  Basis Set: (AUG-CC-PVTZ AUX)
    Blend: AUG-CC-PVTZ-JKFIT
	 Reference Energy          =    -237.9977019148804231 [Eh]
	 Singles Energy            =      -0.0000000000000000 [Eh]
	 Same-Spin Energy          =      -0.1827235938194014 [Eh]
	 Opposite-Spin Energy      =      -0.5542373872278399 [Eh]
	 Correlation Energy        =      -0.7369609810472413 [Eh]
	 Total Energy              =    -238.7346628959276700 [Eh]

	 ================> DF-SCS-MP2 Energies <==================
	-----------------------------------------------------------
	 SCS Same-Spin Scale       =       0.3333333333333333 [-]
	 SCS Opposite-Spin Scale   =       1.2000000000000000 [-]
	 SCS Same-Spin Energy      =      -0.0609078646064671 [Eh]
	 SCS Opposite-Spin Energy  =      -0.6650848646734079 [Eh]
	 SCS Correlation Energy    =      -0.7259927292798750 [Eh]
	 SCS Total Energy          =    -238.7236946441603038 [Eh]
	-----------------------------------------------------------

  Dipole Moment: [D]
     X:     0.0150      Y:     1.9901      Z:    -0.0568     Total:     1.9909

*** Psi4 exiting successfully. Buy a developer a beer!
