                               Psi4 1.3.2 release

  ==> Input File <==

--------------------------------------------------------------------------
#psi4
#
memory 32 gb

molecule  {
0 1
  F       -1.1168205    -0.2817385     0.0209617
  F        1.1103890    -0.2910770    -0.0000050
  C        0.0000050     0.5038560     0.0000000
  H        0.0000020     1.1080370     0.9089350
  H        0.0000010     1.1081850    -0.9088390
units angstrom
no_reorient  #important for SAPT in psi4, default
symmetry c1  #important for SAPT in psi4, default
}

set PROPERTIES_ORIGIN ["COM"]
properties('MP2/aug-cc-pvtz', properties = ['dipole'])
--------------------------------------------------------------------------

    Molecular point group: c1
  Charge       = 0
  Multiplicity = 1
  Basis Set: AUG-CC-PVTZ
    Blend: AUG-CC-PVTZ
  Basis Set: (AUG-CC-PVTZ AUX)
    Blend: AUG-CC-PVTZ-JKFIT

    Orbital Energies [Eh]
    ---------------------

    Doubly Occupied:

       1A    -26.314641     2A    -26.314318     3A    -11.410272
       4A     -1.657290     5A     -1.600676     6A     -0.971597
       7A     -0.776049     8A     -0.766869     9A     -0.753338
      10A     -0.667555    11A     -0.634493    12A     -0.622209
      13A     -0.539216

  @DF-RHF Final Energy:  -237.99794328805575

   => Energetics <=

    Nuclear Repulsion Energy =             76.7161057244743319
    One-Electron Energy =                -483.3710507237436786
    Two-Electron Energy =                 168.6570017112135815
    Total Energy =                       -237.9979432880557511
  Basis Set: (AUG-CC-PVTZ AUX)
    Blend: AUG-CC-PVTZ-RI
    Molecular point group: c1

    Geometry (in Angstrom), charge = 0, multiplicity = 1:

       Center              X                  Y                   Z               Mass
    ------------   -----------------  -----------------  -----------------  -----------------
         F           -1.114472500791    -0.231697721715     0.013305061294    18.998403162730
         F            1.112736999209    -0.241036221715    -0.007661638706    18.998403162730
         C            0.002352999209     0.553896778285    -0.007656638706    12.000000000000
         H            0.002349999209     1.158077778285     0.901278361294     1.007825032230
         H            0.002348999209     1.158225778285    -0.916495638706     1.007825032230

  Basis Set: AUG-CC-PVTZ
    Blend: AUG-CC-PVTZ
  Basis Set: (AUG-CC-PVTZ AUX)
    Blend: AUG-CC-PVTZ-JKFIT
	 Reference Energy          =    -237.9979432880557511 [Eh]
	 Singles Energy            =      -0.0000000000000000 [Eh]
	 Same-Spin Energy          =      -0.1827072167440093 [Eh]
	 Opposite-Spin Energy      =      -0.5542026177312191 [Eh]
	 Correlation Energy        =      -0.7369098344752285 [Eh]
	 Total Energy              =    -238.7348531225309785 [Eh]

	 ================> DF-SCS-MP2 Energies <==================
	-----------------------------------------------------------
	 SCS Same-Spin Scale       =       0.3333333333333333 [-]
	 SCS Opposite-Spin Scale   =       1.2000000000000000 [-]
	 SCS Same-Spin Energy      =      -0.0609024055813364 [Eh]
	 SCS Opposite-Spin Energy  =      -0.6650431412774630 [Eh]
	 SCS Correlation Energy    =      -0.7259455468587994 [Eh]
	 SCS Total Energy          =    -238.7238888349145611 [Eh]
	-----------------------------------------------------------

  Dipole Moment: [D]
     X:     0.0078      Y:     2.0053      Z:    -0.0284     Total:     2.0055

*** Psi4 exiting successfully. Buy a developer a beer!
