                               Psi4 1.3.2 release

  ==> Input File <==

--------------------------------------------------------------------------
#psi4
#
memory 32 gb

molecule  {
0 1
  F       -1.0212173    -0.4027875    -0.0000057
  F        1.1103890    -0.2910770    -0.0000050
  C        0.0000050     0.5038560     0.0000000
  H        0.0000020     1.1080370     0.9089350
  H        0.0000010     1.1081850    -0.9088390
units angstrom
no_reorient  #important for SAPT in psi4, default
symmetry c1  #important for SAPT in psi4, default
}

set PROPERTIES_ORIGIN ["COM"]
properties('MP2/aug-cc-pvtz', properties = ['dipole'])
--------------------------------------------------------------------------

    Molecular point group: c1
  Charge       = 0
  Multiplicity = 1
  Basis Set: AUG-CC-PVTZ
    Blend: AUG-CC-PVTZ
  Basis Set: (AUG-CC-PVTZ AUX)
    Blend: AUG-CC-PVTZ-JKFIT

    Orbital Energies [Eh]
    ---------------------

    Doubly Occupied:

       1A    -26.311467     2A    -26.307472     3A    -11.410622
       4A     -1.659338     5A     -1.591528     6A     -0.971232
       7A     -0.774736     8A     -0.772176     9A     -0.744179
      10A     -0.660335    11A     -0.628806    12A     -0.622333
      13A     -0.541956

  @DF-RHF Final Energy:  -237.99632607058743

   => Energetics <=

    Nuclear Repulsion Energy =             77.4679643315141959
    One-Electron Energy =                -484.9362233807918869
    Two-Electron Energy =                 169.4719329786902335
    Total Energy =                       -237.9963260705874291
  Basis Set: (AUG-CC-PVTZ AUX)
    Blend: AUG-CC-PVTZ-RI
    Molecular point group: c1

    Geometry (in Angstrom), charge = 0, multiplicity = 1:

       Center              X                  Y                   Z               Mass
    ------------   -----------------  -----------------  -----------------  -----------------
         F           -1.053789938333    -0.308531588186    -0.000003651804    18.998403162730
         F            1.077816361667    -0.196821088186    -0.000002951804    18.998403162730
         C           -0.032567638333     0.598111911814     0.000002048196    12.000000000000
         H           -0.032570638333     1.202292911814     0.908937048196     1.007825032230
         H           -0.032571638333     1.202440911814    -0.908836951804     1.007825032230

  Basis Set: AUG-CC-PVTZ
    Blend: AUG-CC-PVTZ
  Basis Set: (AUG-CC-PVTZ AUX)
    Blend: AUG-CC-PVTZ-JKFIT
	 Reference Energy          =    -237.9963260705874291 [Eh]
	 Singles Energy            =      -0.0000000000000000 [Eh]
	 Same-Spin Energy          =      -0.1826135499590201 [Eh]
	 Opposite-Spin Energy      =      -0.5539754420116080 [Eh]
	 Correlation Energy        =      -0.7365889919706281 [Eh]
	 Total Energy              =    -238.7329150625580496 [Eh]

	 ================> DF-SCS-MP2 Energies <==================
	-----------------------------------------------------------
	 SCS Same-Spin Scale       =       0.3333333333333333 [-]
	 SCS Opposite-Spin Scale   =       1.2000000000000000 [-]
	 SCS Same-Spin Energy      =      -0.0608711833196734 [Eh]
	 SCS Opposite-Spin Energy  =      -0.6647705304139295 [Eh]
	 SCS Correlation Energy    =      -0.7256417137336029 [Eh]
	 SCS Total Energy          =    -238.7219677843210377 [Eh]
	-----------------------------------------------------------

  Dipole Moment: [D]
     X:    -0.1105      Y:     2.1979      Z:     0.0000     Total:     2.2007

*** Psi4 exiting successfully. Buy a developer a beer!
