                               Psi4 1.3.2 release

  ==> Input File <==

--------------------------------------------------------------------------
#psi4
#
memory 32 gb

molecule  {
0 1
  F       -1.1374592    -0.2518374    -0.0000048
  F        1.1103890    -0.2910770    -0.0000050
  C        0.0000050     0.5038560     0.0000000
  H        0.0000020     1.1080370     0.9089350
  H        0.0000010     1.1081850    -0.9088390
units angstrom
no_reorient  #important for SAPT in psi4, default
symmetry c1  #important for SAPT in psi4, default
}

set PROPERTIES_ORIGIN ["COM"]
properties('MP2/aug-cc-pvtz', properties = ['dipole'])
--------------------------------------------------------------------------

    Molecular point group: c1
  Charge       = 0
  Multiplicity = 1
  Basis Set: AUG-CC-PVTZ
    Blend: AUG-CC-PVTZ
  Basis Set: (AUG-CC-PVTZ AUX)
    Blend: AUG-CC-PVTZ-JKFIT

    Orbital Energies [Eh]
    ---------------------

    Doubly Occupied:

       1A    -26.316173     2A    -26.314827     3A    -11.410203
       4A     -1.656932     5A     -1.602575     6A     -0.971674
       7A     -0.776366     8A     -0.765728     9A     -0.755272
      10A     -0.669078    11A     -0.636929    12A     -0.620559
      13A     -0.538583

  @DF-RHF Final Energy:  -237.99753072052096

   => Energetics <=

    Nuclear Repulsion Energy =             76.5589722483607318
    One-Electron Energy =                -483.0432085503190365
    Two-Electron Energy =                 168.4867055814373202
    Total Energy =                       -237.9975307205209560
  Basis Set: (AUG-CC-PVTZ AUX)
    Blend: AUG-CC-PVTZ-RI
    Molecular point group: c1

    Geometry (in Angstrom), charge = 0, multiplicity = 1:

       Center              X                  Y                   Z               Mass
    ------------   -----------------  -----------------  -----------------  -----------------
         F           -1.127572576958    -0.212718489133    -0.000003080544    18.998403162730
         F            1.120275623042    -0.251958089133    -0.000003280544    18.998403162730
         C            0.009891623042     0.542974910867     0.000001719456    12.000000000000
         H            0.009888623042     1.147155910867     0.908936719456     1.007825032230
         H            0.009887623042     1.147303910867    -0.908837280544     1.007825032230

  Basis Set: AUG-CC-PVTZ
    Blend: AUG-CC-PVTZ
  Basis Set: (AUG-CC-PVTZ AUX)
    Blend: AUG-CC-PVTZ-JKFIT
	 Reference Energy          =    -237.9975307205209560 [Eh]
	 Singles Energy            =      -0.0000000000000000 [Eh]
	 Same-Spin Energy          =      -0.1827484034418849 [Eh]
	 Opposite-Spin Energy      =      -0.5542941921300713 [Eh]
	 Correlation Energy        =      -0.7370425955719562 [Eh]
	 Total Energy              =    -238.7345733160929058 [Eh]

	 ================> DF-SCS-MP2 Energies <==================
	-----------------------------------------------------------
	 SCS Same-Spin Scale       =       0.3333333333333333 [-]
	 SCS Opposite-Spin Scale   =       1.2000000000000000 [-]
	 SCS Same-Spin Energy      =      -0.0609161344806283 [Eh]
	 SCS Opposite-Spin Energy  =      -0.6651530305560854 [Eh]
	 SCS Correlation Energy    =      -0.7260691650367137 [Eh]
	 SCS Total Energy          =    -238.7235998855576611 [Eh]
	-----------------------------------------------------------

  Dipole Moment: [D]
     X:     0.0328      Y:     1.9580      Z:     0.0000     Total:     1.9583

*** Psi4 exiting successfully. Buy a developer a beer!
