                               Psi4 1.4a3.dev225

  ==> Input File <==

--------------------------------------------------------------------------
#psi4
#
memory 32 gb

molecule  {
0 1
  F       -1.1108160    -0.2909390    -0.0000030
  F        1.1108160    -0.2909390    -0.0000030
  C        0.0406668     0.5327961     0.0000001
  H        0.0000000     1.1072950     0.9088380
  H        0.0000000     1.1073740    -0.9087870
units angstrom
no_reorient  #important for SAPT in psi4, default
symmetry c1  #important for SAPT in psi4, default
}

set PROPERTIES_ORIGIN ["COM"]
properties('MP2/aug-cc-pvtz', properties = ['dipole'])
--------------------------------------------------------------------------

    Molecular point group: c1
  Charge       = 0
  Multiplicity = 1
  Basis Set: AUG-CC-PVTZ
    Blend: AUG-CC-PVTZ
  Basis Set: (AUG-CC-PVTZ AUX)
    Blend: AUG-CC-PVTZ-JKFIT

    Orbital Energies [Eh]
    ---------------------

    Doubly Occupied:

       1A    -26.322030     2A    -26.299636     3A    -11.411240
       4A     -1.655187     5A     -1.585690     6A     -0.975291
       7A     -0.776908     8A     -0.764133     9A     -0.743873
      10A     -0.660758    11A     -0.626204    12A     -0.621084
      13A     -0.549496

  @DF-RHF Final Energy:  -237.99504780430081

   => Energetics <=

    Nuclear Repulsion Energy =             76.3372618600274677
    One-Electron Energy =                -482.6815594135356946
    Two-Electron Energy =                 168.3492497492074165
    Total Energy =                       -237.9950478043008104
  Basis Set: (AUG-CC-PVTZ AUX)
    Blend: AUG-CC-PVTZ-RI
    Molecular point group: c1

    Geometry (in Angstrom), charge = 0, multiplicity = 1:

       Center              X                  Y                   Z               Mass
    ------------   -----------------  -----------------  -----------------  -----------------
         F           -1.120198398638    -0.244234788205    -0.000001819680    18.998403162730
         F            1.101433601362    -0.244234788205    -0.000001819680    18.998403162730
         C            0.031284401362     0.579500311795     0.000001280320    12.000000000000
         H           -0.009382398638     1.153999211795     0.908839180320     1.007825032230
         H           -0.009382398638     1.154078211795    -0.908785819680     1.007825032230

  Basis Set: AUG-CC-PVTZ
    Blend: AUG-CC-PVTZ
  Basis Set: (AUG-CC-PVTZ AUX)
    Blend: AUG-CC-PVTZ-JKFIT
	 Reference Energy          =    -237.9950478043008104 [Eh]
	 Singles Energy            =      -0.0000000000000000 [Eh]
	 Same-Spin Energy          =      -0.1828615665916548 [Eh]
	 Opposite-Spin Energy      =      -0.5550136886673296 [Eh]
	 Correlation Energy        =      -0.7378752552589845 [Eh]
	 Total Energy              =    -238.7329230595597949 [Eh]

	 ================> DF-SCS-MP2 Energies <==================
	-----------------------------------------------------------
	 SCS Same-Spin Scale       =       0.3333333333333333 [-]
	 SCS Opposite-Spin Scale   =       1.2000000000000000 [-]
	 SCS Same-Spin Energy      =      -0.0609538555305516 [Eh]
	 SCS Opposite-Spin Energy  =      -0.6660164264007955 [Eh]
	 SCS Correlation Energy    =      -0.7269702819313472 [Eh]
	 SCS Total Energy          =    -238.7220180862321683 [Eh]
	-----------------------------------------------------------

  Dipole Moment: [D]
     X:     0.2956      Y:     2.1594      Z:     0.0000     Total:     2.1795

*** Psi4 exiting successfully. Buy a developer a beer!
