                               Psi4 1.3.2 release

  ==> Input File <==

--------------------------------------------------------------------------
#psi4
#
memory 32 gb

molecule  {
0 1
  F       -1.0965253    -0.3090157    -0.0419320
  F        1.1103890    -0.2910770    -0.0000050
  C        0.0000050     0.5038560     0.0000000
  H        0.0000020     1.1080370     0.9089350
  H        0.0000010     1.1081850    -0.9088390
units angstrom
no_reorient  #important for SAPT in psi4, default
symmetry c1  #important for SAPT in psi4, default
}

set PROPERTIES_ORIGIN ["COM"]
properties('MP2/aug-cc-pvtz', properties = ['dipole'])
--------------------------------------------------------------------------

    Molecular point group: c1
  Charge       = 0
  Multiplicity = 1
  Basis Set: AUG-CC-PVTZ
    Blend: AUG-CC-PVTZ
  Basis Set: (AUG-CC-PVTZ AUX)
    Blend: AUG-CC-PVTZ-JKFIT

    Orbital Energies [Eh]
    ---------------------

    Doubly Occupied:

       1A    -26.313783     2A    -26.313151     3A    -11.410340
       4A     -1.657670     5A     -1.598812     6A     -0.971521
       7A     -0.775818     8A     -0.767967     9A     -0.751407
      10A     -0.666071    11A     -0.632076    12A     -0.623720
      13A     -0.539734

  @DF-RHF Final Energy:  -237.99796269758249

   => Energetics <=

    Nuclear Repulsion Energy =             76.8709661798296651
    One-Electron Energy =                -483.6937174638949273
    Two-Electron Energy =                 168.8247885864827538
    Total Energy =                       -237.9979626975824942
  Basis Set: (AUG-CC-PVTZ AUX)
    Blend: AUG-CC-PVTZ-RI
    Molecular point group: c1

    Geometry (in Angstrom), charge = 0, multiplicity = 1:

       Center              X                  Y                   Z               Mass
    ------------   -----------------  -----------------  -----------------  -----------------
         F           -1.101590455612    -0.249011476826    -0.026615682765    18.998403162730
         F            1.105323844388    -0.231072776826     0.015311317235    18.998403162730
         C           -0.005060155612     0.563860223174     0.015316317235    12.000000000000
         H           -0.005063155612     1.168041223174     0.924251317235     1.007825032230
         H           -0.005064155612     1.168189223174    -0.893522682765     1.007825032230

  Basis Set: AUG-CC-PVTZ
    Blend: AUG-CC-PVTZ
  Basis Set: (AUG-CC-PVTZ AUX)
    Blend: AUG-CC-PVTZ-JKFIT
	 Reference Energy          =    -237.9979626975824942 [Eh]
	 Singles Energy            =      -0.0000000000000000 [Eh]
	 Same-Spin Energy          =      -0.1826781451047640 [Eh]
	 Opposite-Spin Energy      =      -0.5541350776226179 [Eh]
	 Correlation Energy        =      -0.7368132227273820 [Eh]
	 Total Energy              =    -238.7347759203098860 [Eh]

	 ================> DF-SCS-MP2 Energies <==================
	-----------------------------------------------------------
	 SCS Same-Spin Scale       =       0.3333333333333333 [-]
	 SCS Opposite-Spin Scale   =       1.2000000000000000 [-]
	 SCS Same-Spin Energy      =      -0.0608927150349213 [Eh]
	 SCS Opposite-Spin Energy  =      -0.6649620931471415 [Eh]
	 SCS Correlation Energy    =      -0.7258548081820628 [Eh]
	 SCS Total Energy          =    -238.7238175057645435 [Eh]
	-----------------------------------------------------------

  Dipole Moment: [D]
     X:    -0.0171      Y:     2.0485      Z:     0.0568     Total:     2.0493

*** Psi4 exiting successfully. Buy a developer a beer!
