                               Psi4 1.3.2 release

  ==> Input File <==

--------------------------------------------------------------------------
#psi4
#
memory 32 gb

molecule  {
0 1
  F       -1.1103930    -0.2910740    -0.0000050
  F        1.1103890    -0.2910770    -0.0000050
  C        0.1626277     0.6202770     0.0000007
  H        0.0000020     1.1080370     0.9089350
  H        0.0000010     1.1081850    -0.9088390
units angstrom
no_reorient  #important for SAPT in psi4, default
symmetry c1  #important for SAPT in psi4, default
}

set PROPERTIES_ORIGIN ["COM"]
properties('MP2/aug-cc-pvtz', properties = ['dipole'])
--------------------------------------------------------------------------

    Molecular point group: c1
  Charge       = 0
  Multiplicity = 1
  Basis Set: AUG-CC-PVTZ
    Blend: AUG-CC-PVTZ
  Basis Set: (AUG-CC-PVTZ AUX)
    Blend: AUG-CC-PVTZ-JKFIT

    Orbital Energies [Eh]
    ---------------------

    Doubly Occupied:

       1A    -26.345170     2A    -26.256186     3A    -11.420791
       4A     -1.678075     5A     -1.524668     6A     -0.989369
       7A     -0.794201     8A     -0.774195     9A     -0.739341
      10A     -0.639842    11A     -0.593095    12A     -0.586943
      13A     -0.563935

  @DF-RHF Final Energy:  -237.96726389591589

   => Energetics <=

    Nuclear Repulsion Energy =             75.1633684898979766
    One-Electron Energy =                -480.4496403365840820
    Two-Electron Energy =                 167.3190079507701853
    Total Energy =                       -237.9672638959158917
  Basis Set: (AUG-CC-PVTZ AUX)
    Blend: AUG-CC-PVTZ-RI
    Molecular point group: c1

    Geometry (in Angstrom), charge = 0, multiplicity = 1:

       Center              X                  Y                   Z               Mass
    ------------   -----------------  -----------------  -----------------  -----------------
         F           -1.147912078415    -0.264483227577    -0.000003368990    18.998403162730
         F            1.072869921585    -0.264486227577    -0.000003368990    18.998403162730
         C            0.125108621585     0.646867772423     0.000002331010    12.000000000000
         H           -0.037517078415     1.134627772423     0.908936631010     1.007825032230
         H           -0.037518078415     1.134775772423    -0.908837368990     1.007825032230

  Basis Set: AUG-CC-PVTZ
    Blend: AUG-CC-PVTZ
  Basis Set: (AUG-CC-PVTZ AUX)
    Blend: AUG-CC-PVTZ-JKFIT
	 Reference Energy          =    -237.9672638959158917 [Eh]
	 Singles Energy            =      -0.0000000000000000 [Eh]
	 Same-Spin Energy          =      -0.1838815568504931 [Eh]
	 Opposite-Spin Energy      =      -0.5582453103896927 [Eh]
	 Correlation Energy        =      -0.7421268672401858 [Eh]
	 Total Energy              =    -238.7093907631560796 [Eh]

	 ================> DF-SCS-MP2 Energies <==================
	-----------------------------------------------------------
	 SCS Same-Spin Scale       =       0.3333333333333333 [-]
	 SCS Opposite-Spin Scale   =       1.2000000000000000 [-]
	 SCS Same-Spin Energy      =      -0.0612938522834977 [Eh]
	 SCS Opposite-Spin Energy  =      -0.6698943724676313 [Eh]
	 SCS Correlation Energy    =      -0.7311882247511290 [Eh]
	 SCS Total Energy          =    -238.6984521206670138 [Eh]
	-----------------------------------------------------------

  Dipole Moment: [D]
     X:     1.1408      Y:     2.5387      Z:     0.0000     Total:     2.7832

*** Psi4 exiting successfully. Buy a developer a beer!
