                               Psi4 1.3.2 release

  ==> Input File <==

--------------------------------------------------------------------------
#psi4
#
memory 32 gb

molecule  {
0 1
  F       -1.1103930    -0.2910740    -0.0000050
  F        1.1103890    -0.2910770    -0.0000050
  C       -0.1626177     0.3874350    -0.0000007
  H        0.0000020     1.1080370     0.9089350
  H        0.0000010     1.1081850    -0.9088390
units angstrom
no_reorient  #important for SAPT in psi4, default
symmetry c1  #important for SAPT in psi4, default
}

set PROPERTIES_ORIGIN ["COM"]
properties('MP2/aug-cc-pvtz', properties = ['dipole'])
--------------------------------------------------------------------------

    Molecular point group: c1
  Charge       = 0
  Multiplicity = 1
  Basis Set: AUG-CC-PVTZ
    Blend: AUG-CC-PVTZ
  Basis Set: (AUG-CC-PVTZ AUX)
    Blend: AUG-CC-PVTZ-JKFIT

    Orbital Energies [Eh]
    ---------------------

    Doubly Occupied:

       1A    -26.378154     2A    -26.279887     3A    -11.418004
       4A     -1.782908     5A     -1.573901     6A     -0.981418
       7A     -0.829043     8A     -0.824718     9A     -0.805688
      10A     -0.657461    11A     -0.631365    12A     -0.590666
      13A     -0.485649

  @DF-RHF Final Energy:  -237.95037843377904

   => Energetics <=

    Nuclear Repulsion Energy =             78.8436392411529567
    One-Electron Energy =                -487.1103098885502618
    Two-Electron Energy =                 170.3162922136182544
    Total Energy =                       -237.9503784337790364
  Basis Set: (AUG-CC-PVTZ AUX)
    Blend: AUG-CC-PVTZ-RI
    Molecular point group: c1

    Geometry (in Angstrom), charge = 0, multiplicity = 1:

       Center              X                  Y                   Z               Mass
    ------------   -----------------  -----------------  -----------------  -----------------
         F           -1.072873422853    -0.210763326732    -0.000003045991    18.998403162730
         F            1.147908577147    -0.210766326732    -0.000003045991    18.998403162730
         C           -0.125098122853     0.467745673268     0.000001254009    12.000000000000
         H            0.037521577147     1.188347673268     0.908936954009     1.007825032230
         H            0.037520577147     1.188495673268    -0.908837045991     1.007825032230

  Basis Set: AUG-CC-PVTZ
    Blend: AUG-CC-PVTZ
  Basis Set: (AUG-CC-PVTZ AUX)
    Blend: AUG-CC-PVTZ-JKFIT
	 Reference Energy          =    -237.9503784337790364 [Eh]
	 Singles Energy            =      -0.0000000000000000 [Eh]
	 Same-Spin Energy          =      -0.1831392967092321 [Eh]
	 Opposite-Spin Energy      =      -0.5530258398899376 [Eh]
	 Correlation Energy        =      -0.7361651365991697 [Eh]
	 Total Energy              =    -238.6865435703782055 [Eh]

	 ================> DF-SCS-MP2 Energies <==================
	-----------------------------------------------------------
	 SCS Same-Spin Scale       =       0.3333333333333333 [-]
	 SCS Opposite-Spin Scale   =       1.2000000000000000 [-]
	 SCS Same-Spin Energy      =      -0.0610464322364107 [Eh]
	 SCS Opposite-Spin Energy  =      -0.6636310078679251 [Eh]
	 SCS Correlation Energy    =      -0.7246774401043358 [Eh]
	 SCS Total Energy          =    -238.6750558738833661 [Eh]
	-----------------------------------------------------------

  Dipole Moment: [D]
     X:    -1.2963      Y:     1.3519      Z:    -0.0000     Total:     1.8730

*** Psi4 exiting successfully. Buy a developer a beer!
