                               Psi4 1.3.2 release

  ==> Input File <==

--------------------------------------------------------------------------
#psi4
#
memory 32 gb

molecule  {
0 1
  F       -1.1103930    -0.2910740    -0.0000050
  F        1.1103890    -0.2910770    -0.0000050
  C        0.0813164     0.5620665     0.0000004
  H        0.0000020     1.1080370     0.9089350
  H        0.0000010     1.1081850    -0.9088390
units angstrom
no_reorient  #important for SAPT in psi4, default
symmetry c1  #important for SAPT in psi4, default
}

set PROPERTIES_ORIGIN ["COM"]
properties('MP2/aug-cc-pvtz', properties = ['dipole'])
--------------------------------------------------------------------------

    Molecular point group: c1
  Charge       = 0
  Multiplicity = 1
  Basis Set: AUG-CC-PVTZ
    Blend: AUG-CC-PVTZ
  Basis Set: (AUG-CC-PVTZ AUX)
    Blend: AUG-CC-PVTZ-JKFIT

    Orbital Energies [Eh]
    ---------------------

    Doubly Occupied:

       1A    -26.329808     2A    -26.285202     3A    -11.413410
       4A     -1.661071     5A     -1.565624     6A     -0.979607
       7A     -0.781110     8A     -0.765478     9A     -0.738758
      10A     -0.652967    11A     -0.615973    12A     -0.614378
      13A     -0.557201

  @DF-RHF Final Energy:  -237.98840145039324

   => Energetics <=

    Nuclear Repulsion Energy =             75.9434573013314917
    One-Electron Energy =                -481.9425432835345191
    Two-Electron Energy =                 168.0106845318098010
    Total Energy =                       -237.9884014503932406
  Basis Set: (AUG-CC-PVTZ AUX)
    Blend: AUG-CC-PVTZ-RI
    Molecular point group: c1

    Geometry (in Angstrom), charge = 0, multiplicity = 1:

       Center              X                  Y                   Z               Mass
    ------------   -----------------  -----------------  -----------------  -----------------
         F           -1.129152426060    -0.251053252366    -0.000003299776    18.998403162730
         F            1.091629573940    -0.251056252366    -0.000003299776    18.998403162730
         C            0.062556973940     0.602087247634     0.000002100224    12.000000000000
         H           -0.018757426060     1.148057747634     0.908936700224     1.007825032230
         H           -0.018758426060     1.148205747634    -0.908837299776     1.007825032230

  Basis Set: AUG-CC-PVTZ
    Blend: AUG-CC-PVTZ
  Basis Set: (AUG-CC-PVTZ AUX)
    Blend: AUG-CC-PVTZ-JKFIT
	 Reference Energy          =    -237.9884014503932406 [Eh]
	 Singles Energy            =      -0.0000000000000000 [Eh]
	 Same-Spin Energy          =      -0.1831238243659580 [Eh]
	 Opposite-Spin Energy      =      -0.5559930507000561 [Eh]
	 Correlation Energy        =      -0.7391168750660142 [Eh]
	 Total Energy              =    -238.7275183254592434 [Eh]

	 ================> DF-SCS-MP2 Energies <==================
	-----------------------------------------------------------
	 SCS Same-Spin Scale       =       0.3333333333333333 [-]
	 SCS Opposite-Spin Scale   =       1.2000000000000000 [-]
	 SCS Same-Spin Energy      =      -0.0610412747886527 [Eh]
	 SCS Opposite-Spin Energy  =      -0.6671916608400673 [Eh]
	 SCS Correlation Energy    =      -0.7282329356287200 [Eh]
	 SCS Total Energy          =    -238.7166343860219513 [Eh]
	-----------------------------------------------------------

  Dipole Moment: [D]
     X:     0.5840      Y:     2.2924      Z:     0.0000     Total:     2.3656

*** Psi4 exiting successfully. Buy a developer a beer!
