                               Psi4 1.3.2 release

  ==> Input File <==

--------------------------------------------------------------------------
#psi4
#
memory 32 gb

molecule  {
0 1
  F       -1.1874029    -0.1706511    -0.0000042
  F        1.1103890    -0.2910770    -0.0000050
  C        0.0000050     0.5038560     0.0000000
  H        0.0000020     1.1080370     0.9089350
  H        0.0000010     1.1081850    -0.9088390
units angstrom
no_reorient  #important for SAPT in psi4, default
symmetry c1  #important for SAPT in psi4, default
}

set PROPERTIES_ORIGIN ["COM"]
properties('MP2/aug-cc-pvtz', properties = ['dipole'])
--------------------------------------------------------------------------

    Molecular point group: c1
  Charge       = 0
  Multiplicity = 1
  Basis Set: AUG-CC-PVTZ
    Blend: AUG-CC-PVTZ
  Basis Set: (AUG-CC-PVTZ AUX)
    Blend: AUG-CC-PVTZ-JKFIT

    Orbital Energies [Eh]
    ---------------------

    Doubly Occupied:

       1A    -26.319921     2A    -26.315887     3A    -11.410051
       4A     -1.656171     5A     -1.607145     6A     -0.971857
       7A     -0.777319     8A     -0.763527     9A     -0.759280
      10A     -0.672787    11A     -0.642667    12A     -0.615985
      13A     -0.536770

  @DF-RHF Final Energy:  -237.99493718880314

   => Energetics <=

    Nuclear Repulsion Energy =             76.1820504828189797
    One-Electron Energy =                -482.2552386086455272
    Two-Electron Energy =                 168.0782509370234266
    Total Energy =                       -237.9949371888031351
  Basis Set: (AUG-CC-PVTZ AUX)
    Blend: AUG-CC-PVTZ-RI
    Molecular point group: c1

    Geometry (in Angstrom), charge = 0, multiplicity = 1:

       Center              X                  Y                   Z               Mass
    ------------   -----------------  -----------------  -----------------  -----------------
         F           -1.159273521013    -0.161186817385    -0.000002699704    18.998403162730
         F            1.138518378987    -0.281612717385    -0.000003499704    18.998403162730
         C            0.028134378987     0.513320282615     0.000001500296    12.000000000000
         H            0.028131378987     1.117501282615     0.908936500296     1.007825032230
         H            0.028130378987     1.117649282615    -0.908837499704     1.007825032230

  Basis Set: AUG-CC-PVTZ
    Blend: AUG-CC-PVTZ
  Basis Set: (AUG-CC-PVTZ AUX)
    Blend: AUG-CC-PVTZ-JKFIT
	 Reference Energy          =    -237.9949371888031351 [Eh]
	 Singles Energy            =      -0.0000000000000000 [Eh]
	 Same-Spin Energy          =      -0.1828945254792805 [Eh]
	 Opposite-Spin Energy      =      -0.5546082865932704 [Eh]
	 Correlation Energy        =      -0.7375028120725509 [Eh]
	 Total Energy              =    -238.7324400008756982 [Eh]

	 ================> DF-SCS-MP2 Energies <==================
	-----------------------------------------------------------
	 SCS Same-Spin Scale       =       0.3333333333333333 [-]
	 SCS Opposite-Spin Scale   =       1.2000000000000000 [-]
	 SCS Same-Spin Energy      =      -0.0609648418264268 [Eh]
	 SCS Opposite-Spin Energy  =      -0.6655299439119245 [Eh]
	 SCS Correlation Energy    =      -0.7264947857383514 [Eh]
	 SCS Total Energy          =    -238.7214319745414741 [Eh]
	-----------------------------------------------------------

  Dipole Moment: [D]
     X:     0.0916      Y:     1.8304      Z:     0.0000     Total:     1.8327

*** Psi4 exiting successfully. Buy a developer a beer!
