                               Psi4 1.4a3.dev225

  ==> Input File <==

--------------------------------------------------------------------------
#psi4
#
memory 32 gb

molecule  {
0 1
  F       -1.1108160    -0.2909390    -0.0000030
  F        1.1108160    -0.2909390    -0.0000030
  C        0.0162673     0.5153414     0.0000000
  H        0.0000000     1.1072950     0.9088380
  H        0.0000000     1.1073740    -0.9087870
units angstrom
no_reorient  #important for SAPT in psi4, default
symmetry c1  #important for SAPT in psi4, default
}

set PROPERTIES_ORIGIN ["COM"]
properties('MP2/aug-cc-pvtz', properties = ['dipole'])
--------------------------------------------------------------------------

    Molecular point group: c1
  Charge       = 0
  Multiplicity = 1
  Basis Set: AUG-CC-PVTZ
    Blend: AUG-CC-PVTZ
  Basis Set: (AUG-CC-PVTZ AUX)
    Blend: AUG-CC-PVTZ-JKFIT

    Orbital Energies [Eh]
    ---------------------

    Doubly Occupied:

       1A    -26.317314     2A    -26.308321     3A    -11.410505
       4A     -1.654921     5A     -1.595531     6A     -0.972987
       7A     -0.775835     8A     -0.765263     9A     -0.748845
      10A     -0.664835    11A     -0.631088    12A     -0.622651
      13A     -0.543780

  @DF-RHF Final Energy:  -237.99735411473435

   => Energetics <=

    Nuclear Repulsion Energy =             76.5864784524179214
    One-Electron Energy =                -483.1439148030859769
    Two-Electron Energy =                 168.5600822359337201
    Total Energy =                       -237.9973541147343497
  Basis Set: (AUG-CC-PVTZ AUX)
    Blend: AUG-CC-PVTZ-RI
    Molecular point group: c1

    Geometry (in Angstrom), charge = 0, multiplicity = 1:

       Center              X                  Y                   Z               Mass
    ------------   -----------------  -----------------  -----------------  -----------------
         F           -1.114569093269    -0.240207745174    -0.000001796609    18.998403162730
         F            1.107062906731    -0.240207745174    -0.000001796609    18.998403162730
         C            0.012514206731     0.566072654826     0.000001203391    12.000000000000
         H           -0.003753093269     1.158026254826     0.908839203391     1.007825032230
         H           -0.003753093269     1.158105254826    -0.908785796609     1.007825032230

  Basis Set: AUG-CC-PVTZ
    Blend: AUG-CC-PVTZ
  Basis Set: (AUG-CC-PVTZ AUX)
    Blend: AUG-CC-PVTZ-JKFIT
	 Reference Energy          =    -237.9973541147343497 [Eh]
	 Singles Energy            =      -0.0000000000000000 [Eh]
	 Same-Spin Energy          =      -0.1827495791249130 [Eh]
	 Opposite-Spin Energy      =      -0.5544931022502302 [Eh]
	 Correlation Energy        =      -0.7372426813751431 [Eh]
	 Total Energy              =    -238.7345967961094857 [Eh]

	 ================> DF-SCS-MP2 Energies <==================
	-----------------------------------------------------------
	 SCS Same-Spin Scale       =       0.3333333333333333 [-]
	 SCS Opposite-Spin Scale   =       1.2000000000000000 [-]
	 SCS Same-Spin Energy      =      -0.0609165263749710 [Eh]
	 SCS Opposite-Spin Energy  =      -0.6653917227002762 [Eh]
	 SCS Correlation Energy    =      -0.7263082490752473 [Eh]
	 SCS Total Energy          =    -238.7236623638096091 [Eh]
	-----------------------------------------------------------

  Dipole Moment: [D]
     X:     0.1192      Y:     2.0766      Z:     0.0000     Total:     2.0800

*** Psi4 exiting successfully. Buy a developer a beer!
