                               Psi4 1.3.2 release

  ==> Input File <==

--------------------------------------------------------------------------
#psi4
#
memory 32 gb

molecule  {
0 1
  F       -1.0522366    -0.3665950    -0.0000055
  F        1.1103890    -0.2910770    -0.0000050
  C        0.0000050     0.5038560     0.0000000
  H        0.0000020     1.1080370     0.9089350
  H        0.0000010     1.1081850    -0.9088390
units angstrom
no_reorient  #important for SAPT in psi4, default
symmetry c1  #important for SAPT in psi4, default
}

set PROPERTIES_ORIGIN ["COM"]
properties('MP2/aug-cc-pvtz', properties = ['dipole'])
--------------------------------------------------------------------------

    Molecular point group: c1
  Charge       = 0
  Multiplicity = 1
  Basis Set: AUG-CC-PVTZ
    Blend: AUG-CC-PVTZ
  Basis Set: (AUG-CC-PVTZ AUX)
    Blend: AUG-CC-PVTZ-JKFIT

    Orbital Energies [Eh]
    ---------------------

    Doubly Occupied:

       1A    -26.312475     2A    -26.309806     3A    -11.410509
       4A     -1.658597     5A     -1.594553     6A     -0.971350
       7A     -0.775103     8A     -0.770483     9A     -0.747175
      10A     -0.662704    11A     -0.627079    12A     -0.626167
      13A     -0.541138

  @DF-RHF Final Energy:  -237.99749612594712

   => Energetics <=

    Nuclear Repulsion Energy =             77.2198463623745397
    One-Electron Energy =                -484.4204019641397281
    Two-Electron Energy =                 169.2030594758180655
    Total Energy =                       -237.9974961259471229
  Basis Set: (AUG-CC-PVTZ AUX)
    Blend: AUG-CC-PVTZ-RI
    Molecular point group: c1

    Geometry (in Angstrom), charge = 0, multiplicity = 1:

       Center              X                  Y                   Z               Mass
    ------------   -----------------  -----------------  -----------------  -----------------
         F           -1.073478930016    -0.285558992689    -0.000003524857    18.998403162730
         F            1.089146669984    -0.210040992689    -0.000003024857    18.998403162730
         C           -0.021237330016     0.584892007311     0.000001975143    12.000000000000
         H           -0.021240330016     1.189073007311     0.908936975143     1.007825032230
         H           -0.021241330016     1.189221007311    -0.908837024857     1.007825032230

  Basis Set: AUG-CC-PVTZ
    Blend: AUG-CC-PVTZ
  Basis Set: (AUG-CC-PVTZ AUX)
    Blend: AUG-CC-PVTZ-JKFIT
	 Reference Energy          =    -237.9974961259471229 [Eh]
	 Singles Energy            =      -0.0000000000000000 [Eh]
	 Same-Spin Energy          =      -0.1826261725309128 [Eh]
	 Opposite-Spin Energy      =      -0.5540132833602158 [Eh]
	 Correlation Energy        =      -0.7366394558911287 [Eh]
	 Total Energy              =    -238.7341355818382453 [Eh]

	 ================> DF-SCS-MP2 Energies <==================
	-----------------------------------------------------------
	 SCS Same-Spin Scale       =       0.3333333333333333 [-]
	 SCS Opposite-Spin Scale   =       1.2000000000000000 [-]
	 SCS Same-Spin Energy      =      -0.0608753908436376 [Eh]
	 SCS Opposite-Spin Energy  =      -0.6648159400322590 [Eh]
	 SCS Correlation Energy    =      -0.7256913308758965 [Eh]
	 SCS Total Energy          =    -238.7231874568230126 [Eh]
	-----------------------------------------------------------

  Dipole Moment: [D]
     X:    -0.0717      Y:     2.1402      Z:     0.0000     Total:     2.1414

*** Psi4 exiting successfully. Buy a developer a beer!
