                               Psi4 1.3.2 release

  ==> Input File <==

--------------------------------------------------------------------------
#psi4
#
memory 32 gb

molecule  {
0 1
  F       -1.1240973    -0.2715738    -0.0000049
  F        1.1103890    -0.2910770    -0.0000050
  C        0.0000050     0.5038560     0.0000000
  H        0.0000020     1.1080370     0.9089350
  H        0.0000010     1.1081850    -0.9088390
units angstrom
no_reorient  #important for SAPT in psi4, default
symmetry c1  #important for SAPT in psi4, default
}

set PROPERTIES_ORIGIN ["COM"]
properties('MP2/aug-cc-pvtz', properties = ['dipole'])
--------------------------------------------------------------------------

    Molecular point group: c1
  Charge       = 0
  Multiplicity = 1
  Basis Set: AUG-CC-PVTZ
    Blend: AUG-CC-PVTZ
  Basis Set: (AUG-CC-PVTZ AUX)
    Blend: AUG-CC-PVTZ-JKFIT

    Orbital Energies [Eh]
    ---------------------

    Doubly Occupied:

       1A    -26.315175     2A    -26.314501     3A    -11.410249
       4A     -1.657161     5A     -1.601340     6A     -0.971624
       7A     -0.776141     8A     -0.766472     9A     -0.754027
      10A     -0.668087    11A     -0.635349    12A     -0.621643
      13A     -0.539022

  @DF-RHF Final Energy:  -237.99786441778372

   => Energetics <=

    Nuclear Repulsion Energy =             76.6608737582261739
    One-Electron Energy =                -483.2558978499141062
    Two-Electron Energy =                 168.5971596739042297
    Total Energy =                       -237.9978644177837168
  Basis Set: (AUG-CC-PVTZ AUX)
    Blend: AUG-CC-PVTZ-RI
    Molecular point group: c1

    Geometry (in Angstrom), charge = 0, multiplicity = 1:

       Center              X                  Y                   Z               Mass
    ------------   -----------------  -----------------  -----------------  -----------------
         F           -1.119091330187    -0.225245845181    -0.000003144017    18.998403162730
         F            1.115394969813    -0.244749045181    -0.000003244017    18.998403162730
         C            0.005010969813     0.550183954819     0.000001755983    12.000000000000
         H            0.005007969813     1.154364954819     0.908936755983     1.007825032230
         H            0.005006969813     1.154512954819    -0.908837244017     1.007825032230

  Basis Set: AUG-CC-PVTZ
    Blend: AUG-CC-PVTZ
  Basis Set: (AUG-CC-PVTZ AUX)
    Blend: AUG-CC-PVTZ-JKFIT
	 Reference Energy          =    -237.9978644177837168 [Eh]
	 Singles Energy            =      -0.0000000000000000 [Eh]
	 Same-Spin Energy          =      -0.1827196819017634 [Eh]
	 Opposite-Spin Energy      =      -0.5542309256896500 [Eh]
	 Correlation Energy        =      -0.7369506075914134 [Eh]
	 Total Energy              =    -238.7348150253751271 [Eh]

	 ================> DF-SCS-MP2 Energies <==================
	-----------------------------------------------------------
	 SCS Same-Spin Scale       =       0.3333333333333333 [-]
	 SCS Opposite-Spin Scale   =       1.2000000000000000 [-]
	 SCS Same-Spin Energy      =      -0.0609065606339211 [Eh]
	 SCS Opposite-Spin Energy  =      -0.6650771108275800 [Eh]
	 SCS Correlation Energy    =      -0.7259836714615011 [Eh]
	 SCS Total Energy          =    -238.7238480892452230 [Eh]
	-----------------------------------------------------------

  Dipole Moment: [D]
     X:     0.0167      Y:     1.9892      Z:     0.0000     Total:     1.9893

*** Psi4 exiting successfully. Buy a developer a beer!
