                               Psi4 1.4a3.dev225

  ==> Input File <==

--------------------------------------------------------------------------
#psi4
#
memory 32 gb

molecule  {
0 1
  F       -1.1108160    -0.2909390    -0.0000030
  F        1.1108160    -0.2909390    -0.0000030
  C       -0.0406648     0.4746139    -0.0000001
  H        0.0000000     1.1072950     0.9088380
  H        0.0000000     1.1073740    -0.9087870
units angstrom
no_reorient  #important for SAPT in psi4, default
symmetry c1  #important for SAPT in psi4, default
}

set PROPERTIES_ORIGIN ["COM"]
properties('MP2/aug-cc-pvtz', properties = ['dipole'])
--------------------------------------------------------------------------

    Molecular point group: c1
  Charge       = 0
  Multiplicity = 1
  Basis Set: AUG-CC-PVTZ
    Blend: AUG-CC-PVTZ
  Basis Set: (AUG-CC-PVTZ AUX)
    Blend: AUG-CC-PVTZ-JKFIT

    Orbital Energies [Eh]
    ---------------------

    Doubly Occupied:

       1A    -26.328915     2A    -26.306082     3A    -11.410395
       4A     -1.674366     5A     -1.602168     6A     -0.969375
       7A     -0.780056     8A     -0.776501     9A     -0.763105
      10A     -0.670264    11A     -0.638004    12A     -0.619345
      13A     -0.528084

  @DF-RHF Final Energy:  -237.99642838962066

   => Energetics <=

    Nuclear Repulsion Energy =             77.2059964905388370
    One-Electron Energy =                -484.2715294374013411
    Two-Electron Energy =                 169.0691045572418432
    Total Energy =                       -237.9964283896206609
  Basis Set: (AUG-CC-PVTZ AUX)
    Blend: AUG-CC-PVTZ-RI
    Molecular point group: c1

    Geometry (in Angstrom), charge = 0, multiplicity = 1:

       Center              X                  Y                   Z               Mass
    ------------   -----------------  -----------------  -----------------  -----------------
         F           -1.101434062790    -0.230811342199    -0.000001773537    18.998403162730
         F            1.120197937210    -0.230811342199    -0.000001773537    18.998403162730
         C           -0.031282862790     0.534741557801     0.000001126463    12.000000000000
         H            0.009381937210     1.167422657801     0.908839226463     1.007825032230
         H            0.009381937210     1.167501657801    -0.908785773537     1.007825032230

  Basis Set: AUG-CC-PVTZ
    Blend: AUG-CC-PVTZ
  Basis Set: (AUG-CC-PVTZ AUX)
    Blend: AUG-CC-PVTZ-JKFIT
	 Reference Energy          =    -237.9964283896206609 [Eh]
	 Singles Energy            =      -0.0000000000000000 [Eh]
	 Same-Spin Energy          =      -0.1826405402236065 [Eh]
	 Opposite-Spin Energy      =      -0.5535418621193809 [Eh]
	 Correlation Energy        =      -0.7361824023429874 [Eh]
	 Total Energy              =    -238.7326107919636513 [Eh]

	 ================> DF-SCS-MP2 Energies <==================
	-----------------------------------------------------------
	 SCS Same-Spin Scale       =       0.3333333333333333 [-]
	 SCS Opposite-Spin Scale   =       1.2000000000000000 [-]
	 SCS Same-Spin Energy      =      -0.0608801800745355 [Eh]
	 SCS Opposite-Spin Energy  =      -0.6642502345432572 [Eh]
	 SCS Correlation Energy    =      -0.7251304146177926 [Eh]
	 SCS Total Energy          =    -238.7215588042384411 [Eh]
	-----------------------------------------------------------

  Dipole Moment: [D]
     X:    -0.3041      Y:     1.8716      Z:     0.0000     Total:     1.8962

*** Psi4 exiting successfully. Buy a developer a beer!
