                               Psi4 1.3.2 release

  ==> Input File <==

--------------------------------------------------------------------------
#psi4
#
memory 32 gb

molecule  {
0 1
  F       -1.0648006    -0.3419074    -0.1255817
  F        1.1103890    -0.2910770    -0.0000050
  C        0.0000050     0.5038560     0.0000000
  H        0.0000020     1.1080370     0.9089350
  H        0.0000010     1.1081850    -0.9088390
units angstrom
no_reorient  #important for SAPT in psi4, default
symmetry c1  #important for SAPT in psi4, default
}

set PROPERTIES_ORIGIN ["COM"]
properties('MP2/aug-cc-pvtz', properties = ['dipole'])
--------------------------------------------------------------------------

    Molecular point group: c1
  Charge       = 0
  Multiplicity = 1
  Basis Set: AUG-CC-PVTZ
    Blend: AUG-CC-PVTZ
  Basis Set: (AUG-CC-PVTZ AUX)
    Blend: AUG-CC-PVTZ-JKFIT

    Orbital Energies [Eh]
    ---------------------

    Doubly Occupied:

       1A    -26.312920     2A    -26.311043     3A    -11.410407
       4A     -1.658321     5A     -1.596156     6A     -0.971411
       7A     -0.776264     8A     -0.769218     9A     -0.748352
      10A     -0.663977    11A     -0.628590    12A     -0.625791
      13A     -0.539553

  @DF-RHF Final Energy:  -237.99635967643454

   => Energetics <=

    Nuclear Repulsion Energy =             77.1020296531119556
    One-Electron Energy =                -484.1727777217279822
    Two-Electron Energy =                 169.0743883921814756
    Total Energy =                       -237.9963596764345368
  Basis Set: (AUG-CC-PVTZ AUX)
    Blend: AUG-CC-PVTZ-RI
    Molecular point group: c1

    Geometry (in Angstrom), charge = 0, multiplicity = 1:

       Center              X                  Y                   Z               Mass
    ------------   -----------------  -----------------  -----------------  -----------------
         F           -1.081453722854    -0.269888943685    -0.079710957242    18.998403162730
         F            1.093735877146    -0.219058543685     0.045865742758    18.998403162730
         C           -0.016648122854     0.575874456315     0.045870742758    12.000000000000
         H           -0.016651122854     1.180055456315     0.954805742758     1.007825032230
         H           -0.016652122854     1.180203456315    -0.862968257242     1.007825032230

  Basis Set: AUG-CC-PVTZ
    Blend: AUG-CC-PVTZ
  Basis Set: (AUG-CC-PVTZ AUX)
    Blend: AUG-CC-PVTZ-JKFIT
	 Reference Energy          =    -237.9963596764345368 [Eh]
	 Singles Energy            =      -0.0000000000000000 [Eh]
	 Same-Spin Energy          =      -0.1826851284258499 [Eh]
	 Opposite-Spin Energy      =      -0.5541292952947801 [Eh]
	 Correlation Energy        =      -0.7368144237206300 [Eh]
	 Total Energy              =    -238.7331741001551677 [Eh]

	 ================> DF-SCS-MP2 Energies <==================
	-----------------------------------------------------------
	 SCS Same-Spin Scale       =       0.3333333333333333 [-]
	 SCS Opposite-Spin Scale   =       1.2000000000000000 [-]
	 SCS Same-Spin Energy      =      -0.0608950428086166 [Eh]
	 SCS Opposite-Spin Energy  =      -0.6649551543537361 [Eh]
	 SCS Correlation Energy    =      -0.7258501971623528 [Eh]
	 SCS Total Energy          =    -238.7222098735968814 [Eh]
	-----------------------------------------------------------

  Dipole Moment: [D]
     X:    -0.0575      Y:     2.1002      Z:     0.1700     Total:     2.1078

*** Psi4 exiting successfully. Buy a developer a beer!
