                               Psi4 1.3.2 release

  ==> Input File <==

--------------------------------------------------------------------------
#psi4
#
memory 32 gb

molecule  {
0 1
  F       -1.1103930    -0.2910740    -0.0000050
  F        1.1103890    -0.2910770    -0.0000050
  C        0.0000050     0.5038560     0.0000000
  H        0.0000020     1.1080370     0.9089350
  H        0.0000010     1.1081850    -0.9088390
units angstrom
no_reorient  #important for SAPT in psi4, default
symmetry c1  #important for SAPT in psi4, default
}

set PROPERTIES_ORIGIN ["COM"]
properties('MP2/aug-cc-pvtz', properties = ['dipole'])
--------------------------------------------------------------------------

    Molecular point group: c1
  Charge       = 0
  Multiplicity = 1
  Basis Set: AUG-CC-PVTZ
    Blend: AUG-CC-PVTZ
  Basis Set: (AUG-CC-PVTZ AUX)
    Blend: AUG-CC-PVTZ-JKFIT

    Orbital Energies [Eh]
    ---------------------

    Doubly Occupied:

       1A    -26.314160     2A    -26.314142     3A    -11.410297
       4A     -1.657407     5A     -1.600066     6A     -0.971573
       7A     -0.775921     8A     -0.767241     9A     -0.752734
      10A     -0.667068    11A     -0.633707    12A     -0.622706
      13A     -0.539455

  @DF-RHF Final Energy:  -237.99806683976669

   => Energetics <=

    Nuclear Repulsion Energy =             76.7659753618194856
    One-Electron Energy =                -483.4751302317505406
    Two-Electron Energy =                 168.7110880301643761
    Total Energy =                       -237.9980668397666932
  Basis Set: (AUG-CC-PVTZ AUX)
    Blend: AUG-CC-PVTZ-RI
    Molecular point group: c1

    Geometry (in Angstrom), charge = 0, multiplicity = 1:

       Center              X                  Y                   Z               Mass
    ------------   -----------------  -----------------  -----------------  -----------------
         F           -1.110392750634    -0.237623277155    -0.000003207490    18.998403162730
         F            1.110389249366    -0.237626277155    -0.000003207490    18.998403162730
         C            0.000005249366     0.557306722845     0.000001792510    12.000000000000
         H            0.000002249366     1.161487722845     0.908936792510     1.007825032230
         H            0.000001249366     1.161635722845    -0.908837207490     1.007825032230

  Basis Set: AUG-CC-PVTZ
    Blend: AUG-CC-PVTZ
  Basis Set: (AUG-CC-PVTZ AUX)
    Blend: AUG-CC-PVTZ-JKFIT
	 Reference Energy          =    -237.9980668397666932 [Eh]
	 Singles Energy            =      -0.0000000000000000 [Eh]
	 Same-Spin Energy          =      -0.1826942072329705 [Eh]
	 Opposite-Spin Energy      =      -0.5541740266665443 [Eh]
	 Correlation Energy        =      -0.7368682338995147 [Eh]
	 Total Energy              =    -238.7349350736662075 [Eh]

	 ================> DF-SCS-MP2 Energies <==================
	-----------------------------------------------------------
	 SCS Same-Spin Scale       =       0.3333333333333333 [-]
	 SCS Opposite-Spin Scale   =       1.2000000000000000 [-]
	 SCS Same-Spin Energy      =      -0.0608980690776568 [Eh]
	 SCS Opposite-Spin Energy  =      -0.6650088319998531 [Eh]
	 SCS Correlation Energy    =      -0.7259069010775099 [Eh]
	 SCS Total Energy          =    -238.7239737408442011 [Eh]
	-----------------------------------------------------------

  Dipole Moment: [D]
     X:     0.0000      Y:     2.0201      Z:     0.0000     Total:     2.0201

*** Psi4 exiting successfully. Buy a developer a beer!
