                               Psi4 1.4a3.dev225

  ==> Input File <==

--------------------------------------------------------------------------
#psi4
#
memory 32 gb

molecule  {
0 1
  F       -1.1108160    -0.2909390    -0.0000030
  F        1.1108160    -0.2909390    -0.0000030
  C       -0.0162653     0.4920686    -0.0000000
  H        0.0000000     1.1072950     0.9088380
  H        0.0000000     1.1073740    -0.9087870
units angstrom
no_reorient  #important for SAPT in psi4, default
symmetry c1  #important for SAPT in psi4, default
}

set PROPERTIES_ORIGIN ["COM"]
properties('MP2/aug-cc-pvtz', properties = ['dipole'])
--------------------------------------------------------------------------

    Molecular point group: c1
  Charge       = 0
  Multiplicity = 1
  Basis Set: AUG-CC-PVTZ
    Blend: AUG-CC-PVTZ
  Basis Set: (AUG-CC-PVTZ AUX)
    Blend: AUG-CC-PVTZ-JKFIT

    Orbital Energies [Eh]
    ---------------------

    Doubly Occupied:

       1A    -26.320004     2A    -26.310944     3A    -11.410165
       4A     -1.662250     5A     -1.602400     6A     -0.970540
       7A     -0.776919     8A     -0.770059     9A     -0.756776
      10A     -0.668799    11A     -0.635855    12A     -0.621862
      13A     -0.535179

  @DF-RHF Final Energy:  -237.99802544474244

   => Energetics <=

    Nuclear Repulsion Energy =             76.9328543986598135
    One-Electron Energy =                -483.7782574519208652
    Two-Electron Energy =                 168.8473776085186273
    Total Energy =                       -237.9980254447424386
  Basis Set: (AUG-CC-PVTZ AUX)
    Blend: AUG-CC-PVTZ-RI
    Molecular point group: c1

    Geometry (in Angstrom), charge = 0, multiplicity = 1:

       Center              X                  Y                   Z               Mass
    ------------   -----------------  -----------------  -----------------  -----------------
         F           -1.107063368159    -0.234838385229    -0.000001796609    18.998403162730
         F            1.114568631841    -0.234838385229    -0.000001796609    18.998403162730
         C           -0.012512668159     0.548169214771     0.000001203391    12.000000000000
         H            0.003752631841     1.163395614771     0.908839203391     1.007825032230
         H            0.003752631841     1.163474614771    -0.908785796609     1.007825032230

  Basis Set: AUG-CC-PVTZ
    Blend: AUG-CC-PVTZ
  Basis Set: (AUG-CC-PVTZ AUX)
    Blend: AUG-CC-PVTZ-JKFIT
	 Reference Energy          =    -237.9980254447424386 [Eh]
	 Singles Energy            =      -0.0000000000000000 [Eh]
	 Same-Spin Energy          =      -0.1826602114580754 [Eh]
	 Opposite-Spin Energy      =      -0.5539003028700300 [Eh]
	 Correlation Energy        =      -0.7365605143281054 [Eh]
	 Total Energy              =    -238.7345859590705572 [Eh]

	 ================> DF-SCS-MP2 Energies <==================
	-----------------------------------------------------------
	 SCS Same-Spin Scale       =       0.3333333333333333 [-]
	 SCS Opposite-Spin Scale   =       1.2000000000000000 [-]
	 SCS Same-Spin Energy      =      -0.0608867371526918 [Eh]
	 SCS Opposite-Spin Energy  =      -0.6646803634440360 [Eh]
	 SCS Correlation Energy    =      -0.7255671005967278 [Eh]
	 SCS Total Energy          =    -238.7235925453391587 [Eh]
	-----------------------------------------------------------

  Dipole Moment: [D]
     X:    -0.1205      Y:     1.9617      Z:     0.0000     Total:     1.9654

*** Psi4 exiting successfully. Buy a developer a beer!
