                               Psi4 1.3.2 release

  ==> Input File <==

--------------------------------------------------------------------------
#psi4
#
memory 32 gb

molecule  {
0 1
  F       -1.1036272    -0.3001673    -0.0209717
  F        1.1103890    -0.2910770    -0.0000050
  C        0.0000050     0.5038560     0.0000000
  H        0.0000020     1.1080370     0.9089350
  H        0.0000010     1.1081850    -0.9088390
units angstrom
no_reorient  #important for SAPT in psi4, default
symmetry c1  #important for SAPT in psi4, default
}

set PROPERTIES_ORIGIN ["COM"]
properties('MP2/aug-cc-pvtz', properties = ['dipole'])
--------------------------------------------------------------------------

    Molecular point group: c1
  Charge       = 0
  Multiplicity = 1
  Basis Set: AUG-CC-PVTZ
    Blend: AUG-CC-PVTZ
  Basis Set: (AUG-CC-PVTZ AUX)
    Blend: AUG-CC-PVTZ-JKFIT

    Orbital Energies [Eh]
    ---------------------

    Doubly Occupied:

       1A    -26.313972     2A    -26.313656     3A    -11.410319
       4A     -1.657534     5A     -1.599445     6A     -0.971547
       7A     -0.775843     8A     -0.767609     9A     -0.752090
      10A     -0.666573    11A     -0.632902    12A     -0.623210
      13A     -0.539627

  @DF-RHF Final Energy:  -237.99807315264150

   => Energetics <=

    Nuclear Repulsion Energy =             76.8175959655160909
    One-Electron Energy =                -483.5826862365104830
    Two-Electron Energy =                 168.7670171183528964
    Total Energy =                       -237.9980731526414957
  Basis Set: (AUG-CC-PVTZ AUX)
    Blend: AUG-CC-PVTZ-RI
    Molecular point group: c1

    Geometry (in Angstrom), charge = 0, multiplicity = 1:

       Center              X                  Y                   Z               Mass
    ------------   -----------------  -----------------  -----------------  -----------------
         F           -1.106098270103    -0.243395100119    -0.013311476275    18.998403162730
         F            1.107917929897    -0.234304800119     0.007655223725    18.998403162730
         C           -0.002466070103     0.560628199881     0.007660223725    12.000000000000
         H           -0.002469070103     1.164809199881     0.916595223725     1.007825032230
         H           -0.002470070103     1.164957199881    -0.901178776275     1.007825032230

  Basis Set: AUG-CC-PVTZ
    Blend: AUG-CC-PVTZ
  Basis Set: (AUG-CC-PVTZ AUX)
    Blend: AUG-CC-PVTZ-JKFIT
	 Reference Energy          =    -237.9980731526414957 [Eh]
	 Singles Energy            =      -0.0000000000000000 [Eh]
	 Same-Spin Energy          =      -0.1826845270468553 [Eh]
	 Opposite-Spin Energy      =      -0.5541515301744303 [Eh]
	 Correlation Energy        =      -0.7368360572212855 [Eh]
	 Total Energy              =    -238.7349092098627921 [Eh]

	 ================> DF-SCS-MP2 Energies <==================
	-----------------------------------------------------------
	 SCS Same-Spin Scale       =       0.3333333333333333 [-]
	 SCS Opposite-Spin Scale   =       1.2000000000000000 [-]
	 SCS Same-Spin Energy      =      -0.0608948423489517 [Eh]
	 SCS Opposite-Spin Energy  =      -0.6649818362093164 [Eh]
	 SCS Correlation Energy    =      -0.7258766785582681 [Eh]
	 SCS Total Energy          =    -238.7239498311997750 [Eh]
	-----------------------------------------------------------

  Dipole Moment: [D]
     X:    -0.0083      Y:     2.0345      Z:     0.0284     Total:     2.0347

*** Psi4 exiting successfully. Buy a developer a beer!
