                               Psi4 1.3.2 release

  ==> Input File <==

--------------------------------------------------------------------------
#psi4
#
memory 32 gb

molecule  {
0 1
  F       -1.1340546    -0.2523081     0.0837979
  F        1.1103890    -0.2910770    -0.0000050
  C        0.0000050     0.5038560     0.0000000
  H        0.0000020     1.1080370     0.9089350
  H        0.0000010     1.1081850    -0.9088390
units angstrom
no_reorient  #important for SAPT in psi4, default
symmetry c1  #important for SAPT in psi4, default
}

set PROPERTIES_ORIGIN ["COM"]
properties('MP2/aug-cc-pvtz', properties = ['dipole'])
--------------------------------------------------------------------------

    Molecular point group: c1
  Charge       = 0
  Multiplicity = 1
  Basis Set: AUG-CC-PVTZ
    Blend: AUG-CC-PVTZ
  Basis Set: (AUG-CC-PVTZ AUX)
    Blend: AUG-CC-PVTZ-JKFIT

    Orbital Energies [Eh]
    ---------------------

    Doubly Occupied:

       1A    -26.316048     2A    -26.314767     3A    -11.410181
       4A     -1.656999     5A     -1.602440     6A     -0.971667
       7A     -0.776717     8A     -0.765780     9A     -0.754869
      10A     -0.668978    11A     -0.636735    12A     -0.620778
      13A     -0.538080

  @DF-RHF Final Energy:  -237.99686298669238

   => Energetics <=

    Nuclear Repulsion Energy =             76.5769693466331489
    One-Electron Energy =                -483.0795877177923217
    Two-Electron Energy =                 168.5057553844668234
    Total Energy =                       -237.9968629866923777
  Basis Set: (AUG-CC-PVTZ AUX)
    Blend: AUG-CC-PVTZ-RI
    Molecular point group: c1

    Geometry (in Angstrom), charge = 0, multiplicity = 1:

       Center              X                  Y                   Z               Mass
    ------------   -----------------  -----------------  -----------------  -----------------
         F           -1.125411562974    -0.213017258235     0.053189308173    18.998403162730
         F            1.119032037026    -0.251786158235    -0.030613591827    18.998403162730
         C            0.008648037026     0.543146841765    -0.030608591827    12.000000000000
         H            0.008645037026     1.147327841765     0.878326408173     1.007825032230
         H            0.008644037026     1.147475841765    -0.939447591827     1.007825032230

  Basis Set: AUG-CC-PVTZ
    Blend: AUG-CC-PVTZ
  Basis Set: (AUG-CC-PVTZ AUX)
    Blend: AUG-CC-PVTZ-JKFIT
	 Reference Energy          =    -237.9968629866923777 [Eh]
	 Singles Energy            =      -0.0000000000000000 [Eh]
	 Same-Spin Energy          =      -0.1827666174445527 [Eh]
	 Opposite-Spin Energy      =      -0.5543258471933891 [Eh]
	 Correlation Energy        =      -0.7370924646379418 [Eh]
	 Total Energy              =    -238.7339554513303312 [Eh]

	 ================> DF-SCS-MP2 Energies <==================
	-----------------------------------------------------------
	 SCS Same-Spin Scale       =       0.3333333333333333 [-]
	 SCS Opposite-Spin Scale   =       1.2000000000000000 [-]
	 SCS Same-Spin Energy      =      -0.0609222058148509 [Eh]
	 SCS Opposite-Spin Energy  =      -0.6651910166320668 [Eh]
	 SCS Correlation Energy    =      -0.7261132224469178 [Eh]
	 SCS Total Energy          =    -238.7229762091392899 [Eh]
	-----------------------------------------------------------

  Dipole Moment: [D]
     X:     0.0277      Y:     1.9584      Z:    -0.1135     Total:     1.9619

*** Psi4 exiting successfully. Buy a developer a beer!
