                               Psi4 1.3.2 release

  ==> Input File <==

--------------------------------------------------------------------------
#psi4
#
memory 32 gb

molecule  {
0 1
  F       -1.1438197    -0.2315312     0.1255717
  F        1.1103890    -0.2910770    -0.0000050
  C        0.0000050     0.5038560     0.0000000
  H        0.0000020     1.1080370     0.9089350
  H        0.0000010     1.1081850    -0.9088390
units angstrom
no_reorient  #important for SAPT in psi4, default
symmetry c1  #important for SAPT in psi4, default
}

set PROPERTIES_ORIGIN ["COM"]
properties('MP2/aug-cc-pvtz', properties = ['dipole'])
--------------------------------------------------------------------------

    Molecular point group: c1
  Charge       = 0
  Multiplicity = 1
  Basis Set: AUG-CC-PVTZ
    Blend: AUG-CC-PVTZ
  Basis Set: (AUG-CC-PVTZ AUX)
    Blend: AUG-CC-PVTZ-JKFIT

    Orbital Energies [Eh]
    ---------------------

    Doubly Occupied:

       1A    -26.316938     2A    -26.315025     3A    -11.410102
       4A     -1.656852     5A     -1.603566     6A     -0.971709
       7A     -0.777382     8A     -0.765134     9A     -0.755621
      10A     -0.669897    11A     -0.638139    12A     -0.619881
      13A     -0.536953

  @DF-RHF Final Energy:  -237.99554359063461

   => Energetics <=

    Nuclear Repulsion Energy =             76.4929326544948509
    One-Electron Energy =                -482.9025540557984755
    Two-Electron Energy =                 168.4140778106690277
    Total Energy =                       -237.9955435906346111
  Basis Set: (AUG-CC-PVTZ AUX)
    Blend: AUG-CC-PVTZ-RI
    Molecular point group: c1

    Geometry (in Angstrom), charge = 0, multiplicity = 1:

       Center              X                  Y                   Z               Mass
    ------------   -----------------  -----------------  -----------------  -----------------
         F           -1.131609799964    -0.199829461885     0.079704542261    18.998403162730
         F            1.122598900036    -0.259375261885    -0.045872157739    18.998403162730
         C            0.012214900036     0.535557738115    -0.045867157739    12.000000000000
         H            0.012211900036     1.139738738115     0.863067842261     1.007825032230
         H            0.012210900036     1.139886738115    -0.954706157739     1.007825032230

  Basis Set: AUG-CC-PVTZ
    Blend: AUG-CC-PVTZ
  Basis Set: (AUG-CC-PVTZ AUX)
    Blend: AUG-CC-PVTZ-JKFIT
	 Reference Energy          =    -237.9955435906346111 [Eh]
	 Singles Energy            =      -0.0000000000000000 [Eh]
	 Same-Spin Energy          =      -0.1828236635810646 [Eh]
	 Opposite-Spin Energy      =      -0.5544404060758679 [Eh]
	 Correlation Energy        =      -0.7372640696569325 [Eh]
	 Total Energy              =    -238.7328076602915417 [Eh]

	 ================> DF-SCS-MP2 Energies <==================
	-----------------------------------------------------------
	 SCS Same-Spin Scale       =       0.3333333333333333 [-]
	 SCS Opposite-Spin Scale   =       1.2000000000000000 [-]
	 SCS Same-Spin Energy      =      -0.0609412211936882 [Eh]
	 SCS Opposite-Spin Energy  =      -0.6653284872910414 [Eh]
	 SCS Correlation Energy    =      -0.7262697084847296 [Eh]
	 SCS Total Energy          =    -238.7218132991193329 [Eh]
	-----------------------------------------------------------

  Dipole Moment: [D]
     X:     0.0381      Y:     1.9252      Z:    -0.1699     Total:     1.9331

*** Psi4 exiting successfully. Buy a developer a beer!
