                               Psi4 1.3.2 release

  ==> Input File <==

--------------------------------------------------------------------------
#psi4
#
memory 32 gb

molecule  {
0 1
  O       -2.1909590     0.3022110    -0.2104850
  N        0.0851610     0.4390910     0.0952720
  N       -0.9706104    -1.6526796    -0.0628460
  C        1.3080130    -0.1567610     0.6181790
  C        2.3023860    -0.5362440    -0.4764420
  C        0.0556740     1.8856370    -0.0391460
  C       -1.1027220    -0.2453970    -0.0205620
  H        1.7650550     0.5724880     1.2977430
  H        1.0430010    -1.0258810     1.2255100
  H        1.8814000    -1.2911440    -1.1469770
  H        2.5641180     0.3366430    -1.0800470
  H        3.2219480    -0.9400230    -0.0411410
  H        0.9206510     2.2208510    -0.6190080
  H        0.0756270     2.3767260     0.9415890
  H       -0.8611500     2.1650270    -0.5546380
  H       -0.1986710    -2.0759730    -0.3046340
  H       -1.8731440    -2.0716480    -0.1344710
units angstrom
no_reorient  #important for SAPT in psi4, default
symmetry c1  #important for SAPT in psi4, default
}

set PROPERTIES_ORIGIN ["COM"]
properties('MP2/aug-cc-pvtz', properties = ['dipole'])
--------------------------------------------------------------------------

    Molecular point group: c1
  Charge       = 0
  Multiplicity = 1
  Basis Set: AUG-CC-PVTZ
    Blend: AUG-CC-PVTZ
  Basis Set: (AUG-CC-PVTZ AUX)
    Blend: AUG-CC-PVTZ-JKFIT

    Orbital Energies [Eh]
    ---------------------

    Doubly Occupied:

       1A    -20.504782     2A    -15.580964     3A    -15.564117
       4A    -11.374556     5A    -11.275628     6A    -11.252460
       7A    -11.232648     8A     -1.377829     9A     -1.249319
      10A     -1.196850    11A     -1.033879    12A     -0.945175
      13A     -0.876827    14A     -0.780232    15A     -0.744542
      16A     -0.689247    17A     -0.643427    18A     -0.636420
      19A     -0.606100    20A     -0.589900    21A     -0.561464
      22A     -0.550116    23A     -0.537211    24A     -0.525712
      25A     -0.506105    26A     -0.435636    27A     -0.412272
      28A     -0.373100

  @DF-RHF Final Energy:  -341.19483395822976

   => Energetics <=

    Nuclear Repulsion Energy =            326.5427618804524741
    One-Electron Energy =               -1111.3621513214663992
    Two-Electron Energy =                 443.6245554827842170
    Total Energy =                       -341.1948339582297649
  Basis Set: (AUG-CC-PVTZ AUX)
    Blend: AUG-CC-PVTZ-RI
    Molecular point group: c1

    Geometry (in Angstrom), charge = 0, multiplicity = 1:

       Center              X                  Y                   Z               Mass
    ------------   -----------------  -----------------  -----------------  -----------------
         O           -2.111830803279     0.307345791952    -0.187487120698    15.994914619570
         N            0.164289196721     0.444225791952     0.118269879302    14.003074004430
         N           -0.891482203279    -1.647544808048    -0.039848120698    14.003074004430
         C            1.387141196721    -0.151626208048     0.641176879302    12.000000000000
         C            2.381514196721    -0.531109208048    -0.453444120698    12.000000000000
         C            0.134802196721     1.890771791952    -0.016148120698    12.000000000000
         C           -1.023593803279    -0.240262208048     0.002435879302    12.000000000000
         H            1.844183196721     0.577622791952     1.320740879302     1.007825032230
         H            1.122129196721    -1.020746208048     1.248507879302     1.007825032230
         H            1.960528196721    -1.286009208048    -1.123979120698     1.007825032230
         H            2.643246196721     0.341777791952    -1.057049120698     1.007825032230
         H            3.301076196721    -0.934888208048    -0.018143120698     1.007825032230
         H            0.999779196721     2.225985791952    -0.596010120698     1.007825032230
         H            0.154755196721     2.381860791952     0.964586879302     1.007825032230
         H           -0.782021803279     2.170161791952    -0.531640120698     1.007825032230
         H           -0.119542803279    -2.070838208048    -0.281636120698     1.007825032230
         H           -1.794015803279    -2.066513208048    -0.111473120698     1.007825032230

  Basis Set: AUG-CC-PVTZ
    Blend: AUG-CC-PVTZ
  Basis Set: (AUG-CC-PVTZ AUX)
    Blend: AUG-CC-PVTZ-JKFIT
	 Reference Energy          =    -341.1948339582297649 [Eh]
	 Singles Energy            =      -0.0000000000000000 [Eh]
	 Same-Spin Energy          =      -0.3484813916133555 [Eh]
	 Opposite-Spin Energy      =      -1.1382196486526337 [Eh]
	 Correlation Energy        =      -1.4867010402659893 [Eh]
	 Total Energy              =    -342.6815349984957493 [Eh]

	 ================> DF-SCS-MP2 Energies <==================
	-----------------------------------------------------------
	 SCS Same-Spin Scale       =       0.3333333333333333 [-]
	 SCS Opposite-Spin Scale   =       1.2000000000000000 [-]
	 SCS Same-Spin Energy      =      -0.1161604638711185 [Eh]
	 SCS Opposite-Spin Energy  =      -1.3658635783831603 [Eh]
	 SCS Correlation Energy    =      -1.4820240422542788 [Eh]
	 SCS Total Energy          =    -342.6768580004840601 [Eh]
	-----------------------------------------------------------

  Dipole Moment: [D]
     X:     3.8116      Y:    -1.2364      Z:     0.2647     Total:     4.0159

*** Psi4 exiting successfully. Buy a developer a beer!
