                               Psi4 1.3.2 release

  ==> Input File <==

--------------------------------------------------------------------------
#psi4
#
memory 32 gb

molecule  {
0 1
  O       -2.1909590     0.3022110    -0.2104850
  N        0.0851610     0.4390910     0.0952720
  N       -0.9844047    -1.6436113     0.0357820
  C        1.3080130    -0.1567610     0.6181790
  C        2.3023860    -0.5362440    -0.4764420
  C        0.0556740     1.8856370    -0.0391460
  C       -1.1027220    -0.2453970    -0.0205620
  H        1.7650550     0.5724880     1.2977430
  H        1.0430010    -1.0258810     1.2255100
  H        1.8814000    -1.2911440    -1.1469770
  H        2.5641180     0.3366430    -1.0800470
  H        3.2219480    -0.9400230    -0.0411410
  H        0.9206510     2.2208510    -0.6190080
  H        0.0756270     2.3767260     0.9415890
  H       -0.8611500     2.1650270    -0.5546380
  H       -0.1986710    -2.0759730    -0.3046340
  H       -1.8731440    -2.0716480    -0.1344710
units angstrom
no_reorient  #important for SAPT in psi4, default
symmetry c1  #important for SAPT in psi4, default
}

set PROPERTIES_ORIGIN ["COM"]
properties('MP2/aug-cc-pvtz', properties = ['dipole'])
--------------------------------------------------------------------------

    Molecular point group: c1
  Charge       = 0
  Multiplicity = 1
  Basis Set: AUG-CC-PVTZ
    Blend: AUG-CC-PVTZ
  Basis Set: (AUG-CC-PVTZ AUX)
    Blend: AUG-CC-PVTZ-JKFIT

    Orbital Energies [Eh]
    ---------------------

    Doubly Occupied:

       1A    -20.504533     2A    -15.581146     3A    -15.569815
       4A    -11.373059     5A    -11.274852     6A    -11.252468
       7A    -11.232842     8A     -1.378482     9A     -1.249207
      10A     -1.194302    11A     -1.033752    12A     -0.944720
      13A     -0.876511    14A     -0.769872    15A     -0.739016
      16A     -0.688163    17A     -0.640062    18A     -0.637502
      19A     -0.605190    20A     -0.589467    21A     -0.560865
      22A     -0.553814    23A     -0.537031    24A     -0.525556
      25A     -0.505759    26A     -0.437570    27A     -0.414591
      28A     -0.373042

  @DF-RHF Final Energy:  -341.20362481392306

   => Energetics <=

    Nuclear Repulsion Energy =            326.5263638520451650
    One-Electron Energy =               -1111.3736011417522604
    Two-Electron Energy =                 443.6436124757840389
    Total Energy =                       -341.2036248139230565
  Basis Set: (AUG-CC-PVTZ AUX)
    Blend: AUG-CC-PVTZ-RI
    Molecular point group: c1

    Geometry (in Angstrom), charge = 0, multiplicity = 1:

       Center              X                  Y                   Z               Mass
    ------------   -----------------  -----------------  -----------------  -----------------
         O           -2.109938523657     0.306101817317    -0.201016749209    15.994914619570
         N            0.166181476343     0.442981817317     0.104740250791    14.003074004430
         N           -0.903384223657    -1.639720482683     0.045250250791    14.003074004430
         C            1.389033476343    -0.152870182683     0.627647250791    12.000000000000
         C            2.383406476343    -0.532353182683    -0.466973749209    12.000000000000
         C            0.136694476343     1.889527817317    -0.029677749209    12.000000000000
         C           -1.021701523657    -0.241506182683    -0.011093749209    12.000000000000
         H            1.846075476343     0.576378817317     1.307211250791     1.007825032230
         H            1.124021476343    -1.021990182683     1.234978250791     1.007825032230
         H            1.962420476343    -1.287253182683    -1.137508749209     1.007825032230
         H            2.645138476343     0.340533817317    -1.070578749209     1.007825032230
         H            3.302968476343    -0.936132182683    -0.031672749209     1.007825032230
         H            1.001671476343     2.224741817317    -0.609539749209     1.007825032230
         H            0.156647476343     2.380616817317     0.951057250791     1.007825032230
         H           -0.780129523657     2.168917817317    -0.545169749209     1.007825032230
         H           -0.117650523657    -2.072082182683    -0.295165749209     1.007825032230
         H           -1.792123523657    -2.067757182683    -0.125002749209     1.007825032230

  Basis Set: AUG-CC-PVTZ
    Blend: AUG-CC-PVTZ
  Basis Set: (AUG-CC-PVTZ AUX)
    Blend: AUG-CC-PVTZ-JKFIT
	 Reference Energy          =    -341.2036248139230565 [Eh]
	 Singles Energy            =      -0.0000000000000000 [Eh]
	 Same-Spin Energy          =      -0.3485637532823803 [Eh]
	 Opposite-Spin Energy      =      -1.1385144310415667 [Eh]
	 Correlation Energy        =      -1.4870781843239469 [Eh]
	 Total Energy              =    -342.6907029982469908 [Eh]

	 ================> DF-SCS-MP2 Energies <==================
	-----------------------------------------------------------
	 SCS Same-Spin Scale       =       0.3333333333333333 [-]
	 SCS Opposite-Spin Scale   =       1.2000000000000000 [-]
	 SCS Same-Spin Energy      =      -0.1161879177607934 [Eh]
	 SCS Opposite-Spin Energy  =      -1.3662173172498799 [Eh]
	 SCS Correlation Energy    =      -1.4824052350106733 [Eh]
	 SCS Total Energy          =    -342.6860300489337305 [Eh]
	-----------------------------------------------------------

  Dipole Moment: [D]
     X:     3.8152      Y:    -1.2264      Z:     0.0259     Total:     4.0075

*** Psi4 exiting successfully. Buy a developer a beer!
