                               Psi4 1.3.2 release

  ==> Input File <==

--------------------------------------------------------------------------
#psi4
#
memory 32 gb

molecule  {
0 1
  O       -2.1909590     0.3022110    -0.2104850
  N        0.0851610     0.4390910     0.0952720
  N       -0.9637133    -1.6572137    -0.1121600
  C        1.3080130    -0.1567610     0.6181790
  C        2.3023860    -0.5362440    -0.4764420
  C        0.0556740     1.8856370    -0.0391460
  C       -1.1027220    -0.2453970    -0.0205620
  H        1.7650550     0.5724880     1.2977430
  H        1.0430010    -1.0258810     1.2255100
  H        1.8814000    -1.2911440    -1.1469770
  H        2.5641180     0.3366430    -1.0800470
  H        3.2219480    -0.9400230    -0.0411410
  H        0.9206510     2.2208510    -0.6190080
  H        0.0756270     2.3767260     0.9415890
  H       -0.8611500     2.1650270    -0.5546380
  H       -0.1986710    -2.0759730    -0.3046340
  H       -1.8731440    -2.0716480    -0.1344710
units angstrom
no_reorient  #important for SAPT in psi4, default
symmetry c1  #important for SAPT in psi4, default
}

set PROPERTIES_ORIGIN ["COM"]
properties('MP2/aug-cc-pvtz', properties = ['dipole'])
--------------------------------------------------------------------------

    Molecular point group: c1
  Charge       = 0
  Multiplicity = 1
  Basis Set: AUG-CC-PVTZ
    Blend: AUG-CC-PVTZ
  Basis Set: (AUG-CC-PVTZ AUX)
    Blend: AUG-CC-PVTZ-JKFIT

    Orbital Energies [Eh]
    ---------------------

    Doubly Occupied:

       1A    -20.505463     2A    -15.581129     3A    -15.562012
       4A    -11.375563     5A    -11.276110     6A    -11.252600
       7A    -11.232556     8A     -1.377679     9A     -1.249506
      10A     -1.197542    11A     -1.034010    12A     -0.945431
      13A     -0.877018    14A     -0.785382    15A     -0.745074
      16A     -0.688794    17A     -0.644531    18A     -0.635861
      19A     -0.606609    20A     -0.590032    21A     -0.561821
      22A     -0.548252    23A     -0.537295    24A     -0.525854
      25A     -0.506344    26A     -0.435151    27A     -0.411719
      28A     -0.373264

  @DF-RHF Final Energy:  -341.18822736167334

   => Energetics <=

    Nuclear Repulsion Energy =            326.4763684612838688
    One-Electron Energy =               -1111.2039884351552246
    Two-Electron Energy =                 443.5393926121980144
    Total Energy =                       -341.1882273616733414
  Basis Set: (AUG-CC-PVTZ AUX)
    Blend: AUG-CC-PVTZ-RI
    Molecular point group: c1

    Geometry (in Angstrom), charge = 0, multiplicity = 1:

       Center              X                  Y                   Z               Mass
    ------------   -----------------  -----------------  -----------------  -----------------
         O           -2.112776936231     0.307967772410    -0.180722306442    15.994914619570
         N            0.163343063769     0.444847772410     0.125034693558    14.003074004430
         N           -0.885531236231    -1.651456927590    -0.082397306442    14.003074004430
         C            1.386195063769    -0.151004227590     0.647941693558    12.000000000000
         C            2.380568063769    -0.530487227590    -0.446679306442    12.000000000000
         C            0.133856063769     1.891393772410    -0.009383306442    12.000000000000
         C           -1.024539936231    -0.239640227590     0.009200693558    12.000000000000
         H            1.843237063769     0.578244772410     1.327505693558     1.007825032230
         H            1.121183063769    -1.020124227590     1.255272693558     1.007825032230
         H            1.959582063769    -1.285387227590    -1.117214306442     1.007825032230
         H            2.642300063769     0.342399772410    -1.050284306442     1.007825032230
         H            3.300130063769    -0.934266227590    -0.011378306442     1.007825032230
         H            0.998833063769     2.226607772410    -0.589245306442     1.007825032230
         H            0.153809063769     2.382482772410     0.971351693558     1.007825032230
         H           -0.782967936231     2.170783772410    -0.524875306442     1.007825032230
         H           -0.120488936231    -2.070216227590    -0.274871306442     1.007825032230
         H           -1.794961936231    -2.065891227590    -0.104708306442     1.007825032230

  Basis Set: AUG-CC-PVTZ
    Blend: AUG-CC-PVTZ
  Basis Set: (AUG-CC-PVTZ AUX)
    Blend: AUG-CC-PVTZ-JKFIT
	 Reference Energy          =    -341.1882273616733414 [Eh]
	 Singles Energy            =      -0.0000000000000000 [Eh]
	 Same-Spin Energy          =      -0.3485161061141877 [Eh]
	 Opposite-Spin Energy      =      -1.1383405208404453 [Eh]
	 Correlation Energy        =      -1.4868566269546331 [Eh]
	 Total Energy              =    -342.6750839886279891 [Eh]

	 ================> DF-SCS-MP2 Energies <==================
	-----------------------------------------------------------
	 SCS Same-Spin Scale       =       0.3333333333333333 [-]
	 SCS Opposite-Spin Scale   =       1.2000000000000000 [-]
	 SCS Same-Spin Energy      =      -0.1161720353713959 [Eh]
	 SCS Opposite-Spin Energy  =      -1.3660086250085344 [Eh]
	 SCS Correlation Energy    =      -1.4821806603799303 [Eh]
	 SCS Total Energy          =    -342.6704080220532660 [Eh]
	-----------------------------------------------------------

  Dipole Moment: [D]
     X:     3.8089      Y:    -1.2196      Z:     0.3961     Total:     4.0190

*** Psi4 exiting successfully. Buy a developer a beer!
