                               Psi4 1.3.2 release

  ==> Input File <==

--------------------------------------------------------------------------
#psi4
#
memory 32 gb

molecule  {
0 1
  O       -2.1909590     0.3022110    -0.2104850
  N        0.0851610     0.4390910     0.0952720
  N       -0.9981990    -1.6345430     0.1344100
  C        1.3080130    -0.1567610     0.6181790
  C        2.3023860    -0.5362440    -0.4764420
  C        0.0556740     1.8856370    -0.0391460
  C       -1.1027220    -0.2453970    -0.0205620
  H        1.7650550     0.5724880     1.2977430
  H        1.0430010    -1.0258810     1.2255100
  H        1.8814000    -1.2911440    -1.1469770
  H        2.5641180     0.3366430    -1.0800470
  H        3.2219480    -0.9400230    -0.0411410
  H        0.9206510     2.2208510    -0.6190080
  H        0.0756270     2.3767260     0.9415890
  H       -0.8611500     2.1650270    -0.5546380
  H       -0.1986710    -2.0759730    -0.3046340
  H       -1.8731440    -2.0716480    -0.1344710
units angstrom
no_reorient  #important for SAPT in psi4, default
symmetry c1  #important for SAPT in psi4, default
}

set PROPERTIES_ORIGIN ["COM"]
properties('MP2/aug-cc-pvtz', properties = ['dipole'])
--------------------------------------------------------------------------

    Molecular point group: c1
  Charge       = 0
  Multiplicity = 1
  Basis Set: AUG-CC-PVTZ
    Blend: AUG-CC-PVTZ
  Basis Set: (AUG-CC-PVTZ AUX)
    Blend: AUG-CC-PVTZ-JKFIT

    Orbital Energies [Eh]
    ---------------------

    Doubly Occupied:

       1A    -20.505609     2A    -15.581909     3A    -15.577519
       4A    -11.372404     5A    -11.274290     6A    -11.252811
       7A    -11.233022     8A     -1.379453     9A     -1.249408
      10A     -1.190048    11A     -1.033764    12A     -0.944268
      13A     -0.876255    14A     -0.762313    15A     -0.727759
      16A     -0.684504    17A     -0.639763    18A     -0.632849
      19A     -0.604024    20A     -0.588808    21A     -0.560435
      22A     -0.557226    23A     -0.536903    24A     -0.525516
      25A     -0.505550    26A     -0.440970    27A     -0.417843
      28A     -0.373273

  @DF-RHF Final Energy:  -341.20481999070415

   => Energetics <=

    Nuclear Repulsion Energy =            326.3178921522273299
    One-Electron Energy =               -1110.9884353859474686
    Two-Electron Energy =                 443.4657232430159297
    Total Energy =                       -341.2048199907041521
  Basis Set: (AUG-CC-PVTZ AUX)
    Blend: AUG-CC-PVTZ-RI
    Molecular point group: c1

    Geometry (in Angstrom), charge = 0, multiplicity = 1:

       Center              X                  Y                   Z               Mass
    ------------   -----------------  -----------------  -----------------  -----------------
         O           -2.108046244035     0.304857842683    -0.214546377720    15.994914619570
         N            0.168073755965     0.441737842683     0.091210622280    14.003074004430
         N           -0.915286244035    -1.631896157317     0.130348622280    14.003074004430
         C            1.390925755965    -0.154114157317     0.614117622280    12.000000000000
         C            2.385298755965    -0.533597157317    -0.480503377720    12.000000000000
         C            0.138586755965     1.888283842683    -0.043207377720    12.000000000000
         C           -1.019809244035    -0.242750157317    -0.024623377720    12.000000000000
         H            1.847967755965     0.575134842683     1.293681622280     1.007825032230
         H            1.125913755965    -1.023234157317     1.221448622280     1.007825032230
         H            1.964312755965    -1.288497157317    -1.151038377720     1.007825032230
         H            2.647030755965     0.339289842683    -1.084108377720     1.007825032230
         H            3.304860755965    -0.937376157317    -0.045202377720     1.007825032230
         H            1.003563755965     2.223497842683    -0.623069377720     1.007825032230
         H            0.158539755965     2.379372842683     0.937527622280     1.007825032230
         H           -0.778237244035     2.167673842683    -0.558699377720     1.007825032230
         H           -0.115758244035    -2.073326157317    -0.308695377720     1.007825032230
         H           -1.790231244035    -2.069001157317    -0.138532377720     1.007825032230

  Basis Set: AUG-CC-PVTZ
    Blend: AUG-CC-PVTZ
  Basis Set: (AUG-CC-PVTZ AUX)
    Blend: AUG-CC-PVTZ-JKFIT
	 Reference Energy          =    -341.2048199907041521 [Eh]
	 Singles Energy            =      -0.0000000000000000 [Eh]
	 Same-Spin Energy          =      -0.3489015310852931 [Eh]
	 Opposite-Spin Energy      =      -1.1396231794835534 [Eh]
	 Correlation Energy        =      -1.4885247105688464 [Eh]
	 Total Energy              =    -342.6933447012730198 [Eh]

	 ================> DF-SCS-MP2 Energies <==================
	-----------------------------------------------------------
	 SCS Same-Spin Scale       =       0.3333333333333333 [-]
	 SCS Opposite-Spin Scale   =       1.2000000000000000 [-]
	 SCS Same-Spin Energy      =      -0.1163005103617644 [Eh]
	 SCS Opposite-Spin Energy  =      -1.3675478153802640 [Eh]
	 SCS Correlation Energy    =      -1.4838483257420285 [Eh]
	 SCS Total Energy          =    -342.6886683164461829 [Eh]
	-----------------------------------------------------------

  Dipole Moment: [D]
     X:     3.8149      Y:    -1.1644      Z:    -0.1787     Total:     3.9926

*** Psi4 exiting successfully. Buy a developer a beer!
