                               Psi4 1.3.2 release

  ==> Input File <==

--------------------------------------------------------------------------
#psi4
#
memory 32 gb

molecule  {
0 1
  O       -2.1909590     0.3022110    -0.2104850
  N        0.0851610     0.4390910     0.0952720
  N       -0.9775076    -1.6481454    -0.0135320
  C        1.3080130    -0.1567610     0.6181790
  C        2.3023860    -0.5362440    -0.4764420
  C        0.0556740     1.8856370    -0.0391460
  C       -1.1027220    -0.2453970    -0.0205620
  H        1.7650550     0.5724880     1.2977430
  H        1.0430010    -1.0258810     1.2255100
  H        1.8814000    -1.2911440    -1.1469770
  H        2.5641180     0.3366430    -1.0800470
  H        3.2219480    -0.9400230    -0.0411410
  H        0.9206510     2.2208510    -0.6190080
  H        0.0756270     2.3767260     0.9415890
  H       -0.8611500     2.1650270    -0.5546380
  H       -0.1986710    -2.0759730    -0.3046340
  H       -1.8731440    -2.0716480    -0.1344710
units angstrom
no_reorient  #important for SAPT in psi4, default
symmetry c1  #important for SAPT in psi4, default
}

set PROPERTIES_ORIGIN ["COM"]
properties('MP2/aug-cc-pvtz', properties = ['dipole'])
--------------------------------------------------------------------------

    Molecular point group: c1
  Charge       = 0
  Multiplicity = 1
  Basis Set: AUG-CC-PVTZ
    Blend: AUG-CC-PVTZ
  Basis Set: (AUG-CC-PVTZ AUX)
    Blend: AUG-CC-PVTZ-JKFIT

    Orbital Energies [Eh]
    ---------------------

    Doubly Occupied:

       1A    -20.504478     2A    -15.580974     3A    -15.566717
       4A    -11.373713     5A    -11.275210     6A    -11.252418
       7A    -11.232745     8A     -1.378104     9A     -1.249221
      10A     -1.195777    11A     -1.033795    12A     -0.944942
      13A     -0.876660    14A     -0.774825    15A     -0.742628
      16A     -0.689039    17A     -0.641930    18A     -0.637020
      19A     -0.605638    20A     -0.589710    21A     -0.561146
      22A     -0.551982    23A     -0.537118    24A     -0.525615
      25A     -0.505911    26A     -0.436433    27A     -0.413260
      28A     -0.373029

  @DF-RHF Final Energy:  -341.20006755894127

   => Energetics <=

    Nuclear Repulsion Energy =            326.5591567174390093
    One-Electron Energy =               -1111.4183711245761970
    Two-Electron Energy =                 443.6591468481959168
    Total Energy =                       -341.2000675589412708
  Basis Set: (AUG-CC-PVTZ AUX)
    Blend: AUG-CC-PVTZ-RI
    Molecular point group: c1

    Geometry (in Angstrom), charge = 0, multiplicity = 1:

       Center              X                  Y                   Z               Mass
    ------------   -----------------  -----------------  -----------------  -----------------
         O           -2.110884656609     0.306723797776    -0.194251934953    15.994914619570
         N            0.165235343391     0.443603797776     0.111505065047    14.003074004430
         N           -0.897433256609    -1.643632602224     0.002701065047    14.003074004430
         C            1.388087343391    -0.152248202224     0.634412065047    12.000000000000
         C            2.382460343391    -0.531731202224    -0.460208934953    12.000000000000
         C            0.135748343391     1.890149797776    -0.022912934953    12.000000000000
         C           -1.022647656609    -0.240884202224    -0.004328934953    12.000000000000
         H            1.845129343391     0.577000797776     1.313976065047     1.007825032230
         H            1.123075343391    -1.021368202224     1.241743065047     1.007825032230
         H            1.961474343391    -1.286631202224    -1.130743934953     1.007825032230
         H            2.644192343391     0.341155797776    -1.063813934953     1.007825032230
         H            3.302022343391    -0.935510202224    -0.024907934953     1.007825032230
         H            1.000725343391     2.225363797776    -0.602774934953     1.007825032230
         H            0.155701343391     2.381238797776     0.957822065047     1.007825032230
         H           -0.781075656609     2.169539797776    -0.538404934953     1.007825032230
         H           -0.118596656609    -2.071460202224    -0.288400934953     1.007825032230
         H           -1.793069656609    -2.067135202224    -0.118237934953     1.007825032230

  Basis Set: AUG-CC-PVTZ
    Blend: AUG-CC-PVTZ
  Basis Set: (AUG-CC-PVTZ AUX)
    Blend: AUG-CC-PVTZ-JKFIT
	 Reference Energy          =    -341.2000675589412708 [Eh]
	 Singles Energy            =      -0.0000000000000000 [Eh]
	 Same-Spin Energy          =      -0.3484944837525487 [Eh]
	 Opposite-Spin Energy      =      -1.1382727699015147 [Eh]
	 Correlation Energy        =      -1.4867672536540635 [Eh]
	 Total Energy              =    -342.6868348125953503 [Eh]

	 ================> DF-SCS-MP2 Energies <==================
	-----------------------------------------------------------
	 SCS Same-Spin Scale       =       0.3333333333333333 [-]
	 SCS Opposite-Spin Scale   =       1.2000000000000000 [-]
	 SCS Same-Spin Energy      =      -0.1161648279175162 [Eh]
	 SCS Opposite-Spin Energy  =      -1.3659273238818177 [Eh]
	 SCS Correlation Energy    =      -1.4820921517993340 [Eh]
	 SCS Total Energy          =    -342.6821597107406205 [Eh]
	-----------------------------------------------------------

  Dipole Moment: [D]
     X:     3.8138      Y:    -1.2384      Z:     0.1412     Total:     4.0123

*** Psi4 exiting successfully. Buy a developer a beer!
