                               Psi4 1.3.2 release

  ==> Input File <==

--------------------------------------------------------------------------
#psi4
#
memory 32 gb

molecule  {
0 1
  O       -2.1909590     0.3022110    -0.2104850
  N        0.0851610     0.4390910     0.0952720
  N       -0.9913019    -1.6390771     0.0850960
  C        1.3080130    -0.1567610     0.6181790
  C        2.3023860    -0.5362440    -0.4764420
  C        0.0556740     1.8856370    -0.0391460
  C       -1.1027220    -0.2453970    -0.0205620
  H        1.7650550     0.5724880     1.2977430
  H        1.0430010    -1.0258810     1.2255100
  H        1.8814000    -1.2911440    -1.1469770
  H        2.5641180     0.3366430    -1.0800470
  H        3.2219480    -0.9400230    -0.0411410
  H        0.9206510     2.2208510    -0.6190080
  H        0.0756270     2.3767260     0.9415890
  H       -0.8611500     2.1650270    -0.5546380
  H       -0.1986710    -2.0759730    -0.3046340
  H       -1.8731440    -2.0716480    -0.1344710
units angstrom
no_reorient  #important for SAPT in psi4, default
symmetry c1  #important for SAPT in psi4, default
}

set PROPERTIES_ORIGIN ["COM"]
properties('MP2/aug-cc-pvtz', properties = ['dipole'])
--------------------------------------------------------------------------

    Molecular point group: c1
  Charge       = 0
  Multiplicity = 1
  Basis Set: AUG-CC-PVTZ
    Blend: AUG-CC-PVTZ
  Basis Set: (AUG-CC-PVTZ AUX)
    Blend: AUG-CC-PVTZ-JKFIT

    Orbital Energies [Eh]
    ---------------------

    Doubly Occupied:

       1A    -20.504921     2A    -15.581464     3A    -15.573414
       4A    -11.372618     5A    -11.274547     6A    -11.252603
       7A    -11.232936     8A     -1.378939     9A     -1.249272
      10A     -1.192400    11A     -1.033744    12A     -0.944497
      13A     -0.876377    14A     -0.765741    15A     -0.733842
      16A     -0.686627    17A     -0.639163    18A     -0.636346
      19A     -0.604691    20A     -0.589169    21A     -0.560621
      22A     -0.555578    23A     -0.536958    24A     -0.525528
      25A     -0.505641    26A     -0.439075    27A     -0.416157
      28A     -0.373127

  @DF-RHF Final Energy:  -341.20526666107111

   => Energetics <=

    Nuclear Repulsion Energy =            326.4454880870840157
    One-Electron Energy =               -1111.2295169589990564
    Two-Electron Energy =                 443.5787622108439905
    Total Energy =                       -341.2052666610711071
  Basis Set: (AUG-CC-PVTZ AUX)
    Blend: AUG-CC-PVTZ-RI
    Molecular point group: c1

    Geometry (in Angstrom), charge = 0, multiplicity = 1:

       Center              X                  Y                   Z               Mass
    ------------   -----------------  -----------------  -----------------  -----------------
         O           -2.108992376987     0.305479823141    -0.207781563465    15.994914619570
         N            0.167127623013     0.442359823141     0.097975436535    14.003074004430
         N           -0.909335276987    -1.635808276859     0.087799436535    14.003074004430
         C            1.389979623013    -0.153492176859     0.620882436535    12.000000000000
         C            2.384352623013    -0.532975176859    -0.473738563465    12.000000000000
         C            0.137640623013     1.888905823141    -0.036442563465    12.000000000000
         C           -1.020755376987    -0.242128176859    -0.017858563465    12.000000000000
         H            1.847021623013     0.575756823141     1.300446436535     1.007825032230
         H            1.124967623013    -1.022612176859     1.228213436535     1.007825032230
         H            1.963366623013    -1.287875176859    -1.144273563465     1.007825032230
         H            2.646084623013     0.339911823141    -1.077343563465     1.007825032230
         H            3.303914623013    -0.936754176859    -0.038437563465     1.007825032230
         H            1.002617623013     2.224119823141    -0.616304563465     1.007825032230
         H            0.157593623013     2.379994823141     0.944292436535     1.007825032230
         H           -0.779183376987     2.168295823141    -0.551934563465     1.007825032230
         H           -0.116704376987    -2.072704176859    -0.301930563465     1.007825032230
         H           -1.791177376987    -2.068379176859    -0.131767563465     1.007825032230

  Basis Set: AUG-CC-PVTZ
    Blend: AUG-CC-PVTZ
  Basis Set: (AUG-CC-PVTZ AUX)
    Blend: AUG-CC-PVTZ-JKFIT
	 Reference Energy          =    -341.2052666610711071 [Eh]
	 Singles Energy            =      -0.0000000000000000 [Eh]
	 Same-Spin Energy          =      -0.3486970761371257 [Eh]
	 Opposite-Spin Energy      =      -1.1389596649682301 [Eh]
	 Correlation Energy        =      -1.4876567411053558 [Eh]
	 Total Energy              =    -342.6929234021764614 [Eh]

	 ================> DF-SCS-MP2 Energies <==================
	-----------------------------------------------------------
	 SCS Same-Spin Scale       =       0.3333333333333333 [-]
	 SCS Opposite-Spin Scale   =       1.2000000000000000 [-]
	 SCS Same-Spin Energy      =      -0.1162323587123752 [Eh]
	 SCS Opposite-Spin Energy  =      -1.3667515979618761 [Eh]
	 SCS Correlation Energy    =      -1.4829839566742513 [Eh]
	 SCS Total Energy          =    -342.6882506177453820 [Eh]
	-----------------------------------------------------------

  Dipole Moment: [D]
     X:     3.8156      Y:    -1.2013      Z:    -0.0808     Total:     4.0011

*** Psi4 exiting successfully. Buy a developer a beer!
