                               Psi4 1.4a2.dev612

  ==> Input File <==

--------------------------------------------------------------------------
#psi4
#
memory 32 gb

molecule  {
-1 1
  O        1.1365690     1.2999450     0.1428980
  O       -1.4424670    -1.1799650     0.1827610
  O       -1.3575130     1.0293890    -0.3577040
  C        0.6633335    -0.0394701     0.3163383
  C        1.4464200    -1.0470520    -0.3590510
  C       -0.8609500    -0.0719650     0.0469300
  H        0.7165270    -0.2335850     1.4896730
  H        1.3388480    -0.8658950    -1.4332610
  H        2.5070550    -0.9809740    -0.0983190
  H        1.0872750    -2.0528800    -0.1336960
  H        0.3068940     1.7456410    -0.1582790
units angstrom
no_reorient  #important for SAPT in psi4, default
symmetry c1  #important for SAPT in psi4, default
}

set PROPERTIES_ORIGIN ["COM"]
properties('MP2/aug-cc-pvtz', properties = ['dipole'])
--------------------------------------------------------------------------

    Molecular point group: c1
  Charge       = -1
  Multiplicity = 1
  Basis Set: AUG-CC-PVTZ
    Blend: AUG-CC-PVTZ
  Basis Set: (AUG-CC-PVTZ AUX)
    Blend: AUG-CC-PVTZ-JKFIT

    Orbital Energies [Eh]
    ---------------------

    Doubly Occupied:

       1A    -20.382796     2A    -20.318486     3A    -20.310391
       4A    -11.153962     5A    -11.120314     6A    -11.071309
       7A     -1.205252     8A     -1.164369     9A     -1.083691
      10A     -0.880409    11A     -0.694326    12A     -0.565538
      13A     -0.497076    14A     -0.481346    15A     -0.444617
      16A     -0.409793    17A     -0.403694    18A     -0.371888
      19A     -0.366314    20A     -0.346998    21A     -0.273320
      22A     -0.233013    23A     -0.214481    24A     -0.213002

  @DF-RHF Final Energy:  -341.26871458525511

   => Energetics <=

    Nuclear Repulsion Energy =            239.4968772555067744
    One-Electron Energy =                -953.1184118007930692
    Two-Electron Energy =                 372.3528199600311837
    Total Energy =                       -341.2687145852551112
  Basis Set: (AUG-CC-PVTZ AUX)
    Blend: AUG-CC-PVTZ-RI
    Molecular point group: c1

    Geometry (in Angstrom), charge = -1, multiplicity = 1:

       Center              X                  Y                   Z               Mass
    ------------   -----------------  -----------------  -----------------  -----------------
         O            1.199667418491     1.276627241858     0.151866876383    15.994914619570
         O           -1.379368581509    -1.203282758142     0.191729876383    15.994914619570
         O           -1.294414581509     1.006071241858    -0.348735123617    15.994914619570
         C            0.726431918491    -0.062787858142     0.325307176383    12.000000000000
         C            1.509518418491    -1.070369758142    -0.350082123617    12.000000000000
         C           -0.797851581509    -0.095282758142     0.055898876383    12.000000000000
         H            0.779625418491    -0.256902758142     1.498641876383     1.007825032230
         H            1.401946418491    -0.889212758142    -1.424292123617     1.007825032230
         H            2.570153418491    -1.004291758142    -0.089350123617     1.007825032230
         H            1.150373418491    -2.076197758142    -0.124727123617     1.007825032230
         H            0.369992418491     1.722323241858    -0.149310123617     1.007825032230

  Basis Set: AUG-CC-PVTZ
    Blend: AUG-CC-PVTZ
  Basis Set: (AUG-CC-PVTZ AUX)
    Blend: AUG-CC-PVTZ-JKFIT
	 Reference Energy          =    -341.2687145852551112 [Eh]
	 Singles Energy            =      -0.0000000000000000 [Eh]
	 Same-Spin Energy          =      -0.3371932475432676 [Eh]
	 Opposite-Spin Energy      =      -1.0200005428487309 [Eh]
	 Correlation Energy        =      -1.3571937903919984 [Eh]
	 Total Energy              =    -342.6259083756471000 [Eh]

	 ================> DF-SCS-MP2 Energies <==================
	-----------------------------------------------------------
	 SCS Same-Spin Scale       =       0.3333333333333333 [-]
	 SCS Opposite-Spin Scale   =       1.2000000000000000 [-]
	 SCS Same-Spin Energy      =      -0.1123977491810892 [Eh]
	 SCS Opposite-Spin Energy  =      -1.2240006514184769 [Eh]
	 SCS Correlation Energy    =      -1.3363984005995662 [Eh]
	 SCS Total Energy          =    -342.6051129858547029 [Eh]
	-----------------------------------------------------------

  Dipole Moment: [D]
     X:     3.8588      Y:    -0.5505      Z:     0.1122     Total:     3.8994

*** Psi4 exiting successfully. Buy a developer a beer!
