                               Psi4 1.4a2.dev612

  ==> Input File <==

--------------------------------------------------------------------------
#psi4
#
memory 32 gb

molecule  {
-1 1
  O        1.1365690     1.2999450     0.1428980
  O       -1.4424670    -1.1799650     0.1827610
  O       -1.3575130     1.0293890    -0.3577040
  C        0.6396440    -0.0155260     0.4104950
  C        1.4464200    -1.0470520    -0.3590510
  C       -0.8609500    -0.0719650     0.0469300
  H        0.7165270    -0.2335850     1.4896730
  H        1.3388480    -0.8658950    -1.4332610
  H        2.5070550    -0.9809740    -0.0983190
  H        1.0872750    -2.0528800    -0.1336960
  H        0.3068940     1.7456410    -0.1582790
units angstrom
no_reorient  #important for SAPT in psi4, default
symmetry c1  #important for SAPT in psi4, default
}

set PROPERTIES_ORIGIN ["COM"]
properties('MP2/aug-cc-pvtz', properties = ['dipole'])
--------------------------------------------------------------------------

    Molecular point group: c1
  Charge       = -1
  Multiplicity = 1
  Basis Set: AUG-CC-PVTZ
    Blend: AUG-CC-PVTZ
  Basis Set: (AUG-CC-PVTZ AUX)
    Blend: AUG-CC-PVTZ-JKFIT

    Orbital Energies [Eh]
    ---------------------

    Doubly Occupied:

       1A    -20.381643     2A    -20.317913     3A    -20.310247
       4A    -11.152604     5A    -11.116303     6A    -11.071945
       7A     -1.204188     8A     -1.163488     9A     -1.083225
      10A     -0.861903    11A     -0.701109    12A     -0.566420
      13A     -0.500279    14A     -0.477411    15A     -0.436685
      16A     -0.404427    17A     -0.399991    18A     -0.372145
      19A     -0.366365    20A     -0.349415    21A     -0.279251
      22A     -0.233678    23A     -0.215064    24A     -0.213473

  @DF-RHF Final Energy:  -341.27980391847302

   => Energetics <=

    Nuclear Repulsion Energy =            238.9537853451392664
    One-Electron Energy =                -952.1088360287933483
    Two-Electron Energy =                 371.8752467651810321
    Total Energy =                       -341.2798039184730214
  Basis Set: (AUG-CC-PVTZ AUX)
    Blend: AUG-CC-PVTZ-RI
    Molecular point group: c1

    Geometry (in Angstrom), charge = -1, multiplicity = 1:

       Center              X                  Y                   Z               Mass
    ------------   -----------------  -----------------  -----------------  -----------------
         O            1.202860651981     1.273399689481     0.139174994841    15.994914619570
         O           -1.376175348019    -1.206510310519     0.179037994841    15.994914619570
         O           -1.291221348019     1.002843689481    -0.361427005159    15.994914619570
         C            0.705935651981    -0.042071310519     0.406771994841    12.000000000000
         C            1.512711651981    -1.073597310519    -0.362774005159    12.000000000000
         C           -0.794658348019    -0.098510310519     0.043206994841    12.000000000000
         H            0.782818651981    -0.260130310519     1.485949994841     1.007825032230
         H            1.405139651981    -0.892440310519    -1.436984005159     1.007825032230
         H            2.573346651981    -1.007519310519    -0.102042005159     1.007825032230
         H            1.153566651981    -2.079425310519    -0.137419005159     1.007825032230
         H            0.373185651981     1.719095689481    -0.162002005159     1.007825032230

  Basis Set: AUG-CC-PVTZ
    Blend: AUG-CC-PVTZ
  Basis Set: (AUG-CC-PVTZ AUX)
    Blend: AUG-CC-PVTZ-JKFIT
	 Reference Energy          =    -341.2798039184730214 [Eh]
	 Singles Energy            =      -0.0000000000000000 [Eh]
	 Same-Spin Energy          =      -0.3364671580206278 [Eh]
	 Opposite-Spin Energy      =      -1.0189972862556744 [Eh]
	 Correlation Energy        =      -1.3554644442763022 [Eh]
	 Total Energy              =    -342.6352683627493434 [Eh]

	 ================> DF-SCS-MP2 Energies <==================
	-----------------------------------------------------------
	 SCS Same-Spin Scale       =       0.3333333333333333 [-]
	 SCS Opposite-Spin Scale   =       1.2000000000000000 [-]
	 SCS Same-Spin Energy      =      -0.1121557193402093 [Eh]
	 SCS Opposite-Spin Energy  =      -1.2227967435068092 [Eh]
	 SCS Correlation Energy    =      -1.3349524628470184 [Eh]
	 SCS Total Energy          =    -342.6147563813200350 [Eh]
	-----------------------------------------------------------

  Dipole Moment: [D]
     X:     3.7928      Y:    -0.4770      Z:     0.3752     Total:     3.8410

*** Psi4 exiting successfully. Buy a developer a beer!
