                               Psi4 1.4a2.dev612

  ==> Input File <==

--------------------------------------------------------------------------
#psi4
#
memory 32 gb

molecule  {
-1 1
  O        1.1365690     1.2999450     0.1428980
  O       -1.4424670    -1.1799650     0.1827610
  O       -1.3575130     1.0293890    -0.3577040
  C        0.6751782    -0.0514421     0.2692599
  C        1.4464200    -1.0470520    -0.3590510
  C       -0.8609500    -0.0719650     0.0469300
  H        0.7165270    -0.2335850     1.4896730
  H        1.3388480    -0.8658950    -1.4332610
  H        2.5070550    -0.9809740    -0.0983190
  H        1.0872750    -2.0528800    -0.1336960
  H        0.3068940     1.7456410    -0.1582790
units angstrom
no_reorient  #important for SAPT in psi4, default
symmetry c1  #important for SAPT in psi4, default
}

set PROPERTIES_ORIGIN ["COM"]
properties('MP2/aug-cc-pvtz', properties = ['dipole'])
--------------------------------------------------------------------------

    Molecular point group: c1
  Charge       = -1
  Multiplicity = 1
  Basis Set: AUG-CC-PVTZ
    Blend: AUG-CC-PVTZ
  Basis Set: (AUG-CC-PVTZ AUX)
    Blend: AUG-CC-PVTZ-JKFIT

    Orbital Energies [Eh]
    ---------------------

    Doubly Occupied:

       1A    -20.383746     2A    -20.318934     3A    -20.310560
       4A    -11.155367     5A    -11.123090     6A    -11.071127
       7A     -1.205504     8A     -1.164637     9A     -1.084063
      10A     -0.891284    11A     -0.691135    12A     -0.565616
      13A     -0.496286    14A     -0.484537    15A     -0.449066
      16A     -0.413151    17A     -0.405177    18A     -0.373026
      19A     -0.366192    20A     -0.345454    21A     -0.267288
      22A     -0.232476    23A     -0.214444    24A     -0.211681

  @DF-RHF Final Energy:  -341.25590163311438

   => Energetics <=

    Nuclear Repulsion Energy =            239.7275717768695245
    One-Electron Energy =                -953.5192679977831176
    Two-Electron Energy =                 372.5357945877991597
    Total Energy =                       -341.2559016331143766
  Basis Set: (AUG-CC-PVTZ AUX)
    Blend: AUG-CC-PVTZ-RI
    Molecular point group: c1

    Geometry (in Angstrom), charge = -1, multiplicity = 1:

       Center              X                  Y                   Z               Mass
    ------------   -----------------  -----------------  -----------------  -----------------
         O            1.198070808485     1.278241011306     0.158212823894    15.994914619570
         O           -1.380965191515    -1.201668988694     0.198075823894    15.994914619570
         O           -1.296011191515     1.007685011306    -0.342389176106    15.994914619570
         C            0.736680008485    -0.073146088694     0.284574723894    12.000000000000
         C            1.507921808485    -1.068755988694    -0.343736176106    12.000000000000
         C           -0.799448191515    -0.093668988694     0.062244823894    12.000000000000
         H            0.778028808485    -0.255288988694     1.504987823894     1.007825032230
         H            1.400349808485    -0.887598988694    -1.417946176106     1.007825032230
         H            2.568556808485    -1.002677988694    -0.083004176106     1.007825032230
         H            1.148776808485    -2.074583988694    -0.118381176106     1.007825032230
         H            0.368395808485     1.723937011306    -0.142964176106     1.007825032230

  Basis Set: AUG-CC-PVTZ
    Blend: AUG-CC-PVTZ
  Basis Set: (AUG-CC-PVTZ AUX)
    Blend: AUG-CC-PVTZ-JKFIT
	 Reference Energy          =    -341.2559016331143766 [Eh]
	 Singles Energy            =      -0.0000000000000000 [Eh]
	 Same-Spin Energy          =      -0.3377534393633390 [Eh]
	 Opposite-Spin Energy      =      -1.0209396746395742 [Eh]
	 Correlation Energy        =      -1.3586931140029133 [Eh]
	 Total Energy              =    -342.6145947471172803 [Eh]

	 ================> DF-SCS-MP2 Energies <==================
	-----------------------------------------------------------
	 SCS Same-Spin Scale       =       0.3333333333333333 [-]
	 SCS Opposite-Spin Scale   =       1.2000000000000000 [-]
	 SCS Same-Spin Energy      =      -0.1125844797877797 [Eh]
	 SCS Opposite-Spin Energy  =      -1.2251276095674890 [Eh]
	 SCS Correlation Energy    =      -1.3377120893552688 [Eh]
	 SCS Total Energy          =    -342.5936137224696267 [Eh]
	-----------------------------------------------------------

  Dipole Moment: [D]
     X:     3.8865      Y:    -0.5854      Z:    -0.0314     Total:     3.9304

*** Psi4 exiting successfully. Buy a developer a beer!
