                               Psi4 1.4a2.dev612

  ==> Input File <==

--------------------------------------------------------------------------
#psi4
#
memory 32 gb

molecule  {
-1 1
  O        1.1365690     1.2999450     0.1428980
  O       -1.4424670    -1.1799650     0.1827610
  O       -1.3575130     1.0293890    -0.3577040
  C        0.6870229    -0.0634141     0.2221815
  C        1.4464200    -1.0470520    -0.3590510
  C       -0.8609500    -0.0719650     0.0469300
  H        0.7165270    -0.2335850     1.4896730
  H        1.3388480    -0.8658950    -1.4332610
  H        2.5070550    -0.9809740    -0.0983190
  H        1.0872750    -2.0528800    -0.1336960
  H        0.3068940     1.7456410    -0.1582790
units angstrom
no_reorient  #important for SAPT in psi4, default
symmetry c1  #important for SAPT in psi4, default
}

set PROPERTIES_ORIGIN ["COM"]
properties('MP2/aug-cc-pvtz', properties = ['dipole'])
--------------------------------------------------------------------------

    Molecular point group: c1
  Charge       = -1
  Multiplicity = 1
  Basis Set: AUG-CC-PVTZ
    Blend: AUG-CC-PVTZ
  Basis Set: (AUG-CC-PVTZ AUX)
    Blend: AUG-CC-PVTZ-JKFIT

    Orbital Energies [Eh]
    ---------------------

    Doubly Occupied:

       1A    -20.384933     2A    -20.319492     3A    -20.310805
       4A    -11.157246     5A    -11.126364     6A    -11.071092
       7A     -1.205580     8A     -1.164798     9A     -1.084532
      10A     -0.903207    11A     -0.688008    12A     -0.565950
      13A     -0.496225    14A     -0.488555    15A     -0.453581
      16A     -0.416750    17A     -0.406528    18A     -0.374624
      19A     -0.365570    20A     -0.344290    21A     -0.260389
      22A     -0.231765    23A     -0.214603    24A     -0.209112

  @DF-RHF Final Energy:  -341.23838219728623

   => Energetics <=

    Nuclear Repulsion Energy =            239.9307654641357033
    One-Electron Energy =                -953.8503030409631265
    Two-Electron Energy =                 372.6811553795412237
    Total Energy =                       -341.2383821972862279
  Basis Set: (AUG-CC-PVTZ AUX)
    Blend: AUG-CC-PVTZ-RI
    Molecular point group: c1

    Geometry (in Angstrom), charge = -1, multiplicity = 1:

       Center              X                  Y                   Z               Mass
    ------------   -----------------  -----------------  -----------------  -----------------
         O            1.196474198480     1.279854780754     0.164558771405    15.994914619570
         O           -1.382561801520    -1.200055219246     0.204421771405    15.994914619570
         O           -1.297607801520     1.009298780754    -0.336043228595    15.994914619570
         C            0.746928098480    -0.083504319246     0.243842271405    12.000000000000
         C            1.506325198480    -1.067142219246    -0.337390228595    12.000000000000
         C           -0.801044801520    -0.092055219246     0.068590771405    12.000000000000
         H            0.776432198480    -0.253675219246     1.511333771405     1.007825032230
         H            1.398753198480    -0.885985219246    -1.411600228595     1.007825032230
         H            2.566960198480    -1.001064219246    -0.076658228595     1.007825032230
         H            1.147180198480    -2.072970219246    -0.112035228595     1.007825032230
         H            0.366799198480     1.725550780754    -0.136618228595     1.007825032230

  Basis Set: AUG-CC-PVTZ
    Blend: AUG-CC-PVTZ
  Basis Set: (AUG-CC-PVTZ AUX)
    Blend: AUG-CC-PVTZ-JKFIT
	 Reference Energy          =    -341.2383821972862279 [Eh]
	 Singles Energy            =      -0.0000000000000000 [Eh]
	 Same-Spin Energy          =      -0.3384487087679330 [Eh]
	 Opposite-Spin Energy      =      -1.0221559190797738 [Eh]
	 Correlation Energy        =      -1.3606046278477066 [Eh]
	 Total Energy              =    -342.5989868251339203 [Eh]

	 ================> DF-SCS-MP2 Energies <==================
	-----------------------------------------------------------
	 SCS Same-Spin Scale       =       0.3333333333333333 [-]
	 SCS Opposite-Spin Scale   =       1.2000000000000000 [-]
	 SCS Same-Spin Energy      =      -0.1128162362559777 [Eh]
	 SCS Opposite-Spin Energy  =      -1.2265871028957285 [Eh]
	 SCS Correlation Energy    =      -1.3394033391517062 [Eh]
	 SCS Total Energy          =    -342.5777855364379434 [Eh]
	-----------------------------------------------------------

  Dipole Moment: [D]
     X:     3.9109      Y:    -0.6197      Z:    -0.1839     Total:     3.9639

*** Psi4 exiting successfully. Buy a developer a beer!
