                               Psi4 1.4a2.dev612

  ==> Input File <==

--------------------------------------------------------------------------
#psi4
#
memory 32 gb

molecule  {
-1 1
  O        1.1365690     1.2999450     0.1428980
  O       -1.4424670    -1.1799650     0.1827610
  O       -1.3575130     1.0293890    -0.3577040
  C        0.6514887    -0.0274980     0.3634166
  C        1.4464200    -1.0470520    -0.3590510
  C       -0.8609500    -0.0719650     0.0469300
  H        0.7165270    -0.2335850     1.4896730
  H        1.3388480    -0.8658950    -1.4332610
  H        2.5070550    -0.9809740    -0.0983190
  H        1.0872750    -2.0528800    -0.1336960
  H        0.3068940     1.7456410    -0.1582790
units angstrom
no_reorient  #important for SAPT in psi4, default
symmetry c1  #important for SAPT in psi4, default
}

set PROPERTIES_ORIGIN ["COM"]
properties('MP2/aug-cc-pvtz', properties = ['dipole'])
--------------------------------------------------------------------------

    Molecular point group: c1
  Charge       = -1
  Multiplicity = 1
  Basis Set: AUG-CC-PVTZ
    Blend: AUG-CC-PVTZ
  Basis Set: (AUG-CC-PVTZ AUX)
    Blend: AUG-CC-PVTZ-JKFIT

    Orbital Energies [Eh]
    ---------------------

    Doubly Occupied:

       1A    -20.382093     2A    -20.318146     3A    -20.310289
       4A    -11.153039     5A    -11.118050     6A    -11.071593
       7A     -1.204813     8A     -1.163989     9A     -1.083413
      10A     -0.870608    11A     -0.697631    12A     -0.565773
      13A     -0.498438    14A     -0.479012    15A     -0.440440
      16A     -0.406839    17A     -0.401986    18A     -0.371646
      19A     -0.366011    20A     -0.348609    21A     -0.277502
      22A     -0.233406    23A     -0.214785    24A     -0.213419

  @DF-RHF Final Energy:  -341.27672865314855

   => Energetics <=

    Nuclear Repulsion Energy =            239.2388223101112317
    One-Electron Energy =                -952.6480442533252244
    Two-Electron Energy =                 372.1324932900654403
    Total Energy =                       -341.2767286531485524
  Basis Set: (AUG-CC-PVTZ AUX)
    Blend: AUG-CC-PVTZ-RI
    Molecular point group: c1

    Geometry (in Angstrom), charge = -1, multiplicity = 1:

       Center              X                  Y                   Z               Mass
    ------------   -----------------  -----------------  -----------------  -----------------
         O            1.201264041976     1.275013458930     0.145520942352    15.994914619570
         O           -1.377771958024    -1.204896541070     0.185383942352    15.994914619570
         O           -1.292817958024     1.004457458930    -0.355081057648    15.994914619570
         C            0.716183741976    -0.052429541070     0.366039542352    12.000000000000
         C            1.511115041976    -1.071983541070    -0.356428057648    12.000000000000
         C           -0.796254958024    -0.096896541070     0.049552942352    12.000000000000
         H            0.781222041976    -0.258516541070     1.492295942352     1.007825032230
         H            1.403543041976    -0.890826541070    -1.430638057648     1.007825032230
         H            2.571750041976    -1.005905541070    -0.095696057648     1.007825032230
         H            1.151970041976    -2.077811541070    -0.131073057648     1.007825032230
         H            0.371589041976     1.720709458930    -0.155656057648     1.007825032230

  Basis Set: AUG-CC-PVTZ
    Blend: AUG-CC-PVTZ
  Basis Set: (AUG-CC-PVTZ AUX)
    Blend: AUG-CC-PVTZ-JKFIT
	 Reference Energy          =    -341.2767286531485524 [Eh]
	 Singles Energy            =      -0.0000000000000000 [Eh]
	 Same-Spin Energy          =      -0.3367654445102711 [Eh]
	 Opposite-Spin Energy      =      -1.0193488901024379 [Eh]
	 Correlation Energy        =      -1.3561143346127089 [Eh]
	 Total Energy              =    -342.6328429877612507 [Eh]

	 ================> DF-SCS-MP2 Energies <==================
	-----------------------------------------------------------
	 SCS Same-Spin Scale       =       0.3333333333333333 [-]
	 SCS Opposite-Spin Scale   =       1.2000000000000000 [-]
	 SCS Same-Spin Energy      =      -0.1122551481700904 [Eh]
	 SCS Opposite-Spin Energy  =      -1.2232186681229253 [Eh]
	 SCS Correlation Energy    =      -1.3354738162930158 [Eh]
	 SCS Total Energy          =    -342.6122024694415700 [Eh]
	-----------------------------------------------------------

  Dipole Moment: [D]
     X:     3.8275      Y:    -0.5146      Z:     0.2475     Total:     3.8699

*** Psi4 exiting successfully. Buy a developer a beer!
