                               Psi4 1.4a2.dev612

  ==> Input File <==

--------------------------------------------------------------------------
#psi4
#
memory 32 gb

molecule  {
-1 1
  O        1.1365690     1.2999450     0.1428980
  O       -1.4424670    -1.1799650     0.1827610
  O       -1.3575130     1.0293890    -0.3577040
  C        0.6988677    -0.0753862     0.1751032
  C        1.4464200    -1.0470520    -0.3590510
  C       -0.8609500    -0.0719650     0.0469300
  H        0.7165270    -0.2335850     1.4896730
  H        1.3388480    -0.8658950    -1.4332610
  H        2.5070550    -0.9809740    -0.0983190
  H        1.0872750    -2.0528800    -0.1336960
  H        0.3068940     1.7456410    -0.1582790
units angstrom
no_reorient  #important for SAPT in psi4, default
symmetry c1  #important for SAPT in psi4, default
}

set PROPERTIES_ORIGIN ["COM"]
properties('MP2/aug-cc-pvtz', properties = ['dipole'])
--------------------------------------------------------------------------

    Molecular point group: c1
  Charge       = -1
  Multiplicity = 1
  Basis Set: AUG-CC-PVTZ
    Blend: AUG-CC-PVTZ
  Basis Set: (AUG-CC-PVTZ AUX)
    Blend: AUG-CC-PVTZ-JKFIT

    Orbital Energies [Eh]
    ---------------------

    Doubly Occupied:

       1A    -20.386344     2A    -20.320162     3A    -20.311135
       4A    -11.159585     5A    -11.130118     6A    -11.071262
       7A     -1.205501     8A     -1.164855     9A     -1.085105
      10A     -0.916142    11A     -0.684908    12A     -0.566526
      13A     -0.497646    14A     -0.492667    15A     -0.457964
      16A     -0.420489    17A     -0.407808    18A     -0.376261
      19A     -0.364693    20A     -0.343477    21A     -0.253814
      22A     -0.230872    23A     -0.214853    24A     -0.204800

  @DF-RHF Final Energy:  -341.21621900799619

   => Energetics <=

    Nuclear Repulsion Energy =            240.1065162068267398
    One-Electron Energy =                -954.1114974065458227
    Two-Electron Energy =                 372.7887621917228671
    Total Energy =                       -341.2162190079961874
  Basis Set: (AUG-CC-PVTZ AUX)
    Blend: AUG-CC-PVTZ-RI
    Molecular point group: c1

    Geometry (in Angstrom), charge = -1, multiplicity = 1:

       Center              X                  Y                   Z               Mass
    ------------   -----------------  -----------------  -----------------  -----------------
         O            1.194877574995     1.281468563682     0.170904705436    15.994914619570
         O           -1.384158425005    -1.198441436318     0.210767705436    15.994914619570
         O           -1.299204425005     1.010912563682    -0.329697294564    15.994914619570
         C            0.757176274995    -0.093862636318     0.203109905436    12.000000000000
         C            1.504728574995    -1.065528436318    -0.331044294564    12.000000000000
         C           -0.802641425005    -0.090441436318     0.074936705436    12.000000000000
         H            0.774835574995    -0.252061436318     1.517679705436     1.007825032230
         H            1.397156574995    -0.884371436318    -1.405254294564     1.007825032230
         H            2.565363574995    -0.999450436318    -0.070312294564     1.007825032230
         H            1.145583574995    -2.071356436318    -0.105689294564     1.007825032230
         H            0.365202574995     1.727164563682    -0.130272294564     1.007825032230

  Basis Set: AUG-CC-PVTZ
    Blend: AUG-CC-PVTZ
  Basis Set: (AUG-CC-PVTZ AUX)
    Blend: AUG-CC-PVTZ-JKFIT
	 Reference Energy          =    -341.2162190079961874 [Eh]
	 Singles Energy            =      -0.0000000000000000 [Eh]
	 Same-Spin Energy          =      -0.3392805095219152 [Eh]
	 Opposite-Spin Energy      =      -1.0236394009275296 [Eh]
	 Correlation Energy        =      -1.3629199104494449 [Eh]
	 Total Energy              =    -342.5791389184456079 [Eh]

	 ================> DF-SCS-MP2 Energies <==================
	-----------------------------------------------------------
	 SCS Same-Spin Scale       =       0.3333333333333333 [-]
	 SCS Opposite-Spin Scale   =       1.2000000000000000 [-]
	 SCS Same-Spin Energy      =      -0.1130935031739717 [Eh]
	 SCS Opposite-Spin Energy  =      -1.2283672811130355 [Eh]
	 SCS Correlation Energy    =      -1.3414607842870072 [Eh]
	 SCS Total Energy          =    -342.5576797922831815 [Eh]
	-----------------------------------------------------------

  Dipole Moment: [D]
     X:     3.9322      Y:    -0.6544      Z:    -0.3462     Total:     4.0012

*** Psi4 exiting successfully. Buy a developer a beer!
