                               Psi4 1.4a2.dev612

  ==> Input File <==

--------------------------------------------------------------------------
#psi4
#
memory 32 gb

molecule  {
-1 1
  O        1.1365690     1.2999450     0.1428980
  O       -1.4424670    -1.1799650     0.1827610
  O       -1.3575130     1.0293890    -0.3577040
  C        0.7107124    -0.0873582     0.1280248
  C        1.4464200    -1.0470520    -0.3590510
  C       -0.8609500    -0.0719650     0.0469300
  H        0.7165270    -0.2335850     1.4896730
  H        1.3388480    -0.8658950    -1.4332610
  H        2.5070550    -0.9809740    -0.0983190
  H        1.0872750    -2.0528800    -0.1336960
  H        0.3068940     1.7456410    -0.1582790
units angstrom
no_reorient  #important for SAPT in psi4, default
symmetry c1  #important for SAPT in psi4, default
}

set PROPERTIES_ORIGIN ["COM"]
properties('MP2/aug-cc-pvtz', properties = ['dipole'])
--------------------------------------------------------------------------

    Molecular point group: c1
  Charge       = -1
  Multiplicity = 1
  Basis Set: AUG-CC-PVTZ
    Blend: AUG-CC-PVTZ
  Basis Set: (AUG-CC-PVTZ AUX)
    Blend: AUG-CC-PVTZ-JKFIT

    Orbital Energies [Eh]
    ---------------------

    Doubly Occupied:

       1A    -20.387966     2A    -20.320947     3A    -20.311564
       4A    -11.162371     5A    -11.134322     6A    -11.071711
       7A     -1.205299     8A     -1.164809     9A     -1.085789
      10A     -0.930038    11A     -0.681815    12A     -0.567365
      13A     -0.502259    14A     -0.495080    15A     -0.462093
      16A     -0.424326    17A     -0.409055    18A     -0.377776
      19A     -0.363700    20A     -0.342894    21A     -0.248579
      22A     -0.229849    23A     -0.215154    24A     -0.198219

  @DF-RHF Final Energy:  -341.18946641522069

   => Energetics <=

    Nuclear Repulsion Energy =            240.2550231030029408
    One-Electron Energy =                -954.3030188921223953
    Two-Electron Energy =                 372.8585293738987616
    Total Energy =                       -341.1894664152206929
  Basis Set: (AUG-CC-PVTZ AUX)
    Blend: AUG-CC-PVTZ-RI
    Molecular point group: c1

    Geometry (in Angstrom), charge = -1, multiplicity = 1:

       Center              X                  Y                   Z               Mass
    ------------   -----------------  -----------------  -----------------  -----------------
         O            1.193280964990     1.283082333131     0.177250652947    15.994914619570
         O           -1.385755035010    -1.196827666869     0.217113652947    15.994914619570
         O           -1.300801035010     1.012526333131    -0.323351347053    15.994914619570
         C            0.767424364990    -0.104220866869     0.162377452947    12.000000000000
         C            1.503131964990    -1.063914666869    -0.324698347053    12.000000000000
         C           -0.804238035010    -0.088827666869     0.081282652947    12.000000000000
         H            0.773238964990    -0.250447666869     1.524025652947     1.007825032230
         H            1.395559964990    -0.882757666869    -1.398908347053     1.007825032230
         H            2.563766964990    -0.997836666869    -0.063966347053     1.007825032230
         H            1.143986964990    -2.069742666869    -0.099343347053     1.007825032230
         H            0.363605964990     1.728778333131    -0.123926347053     1.007825032230

  Basis Set: AUG-CC-PVTZ
    Blend: AUG-CC-PVTZ
  Basis Set: (AUG-CC-PVTZ AUX)
    Blend: AUG-CC-PVTZ-JKFIT
	 Reference Energy          =    -341.1894664152206929 [Eh]
	 Singles Energy            =      -0.0000000000000000 [Eh]
	 Same-Spin Energy          =      -0.3402475932427562 [Eh]
	 Opposite-Spin Energy      =      -1.0253781893499492 [Eh]
	 Correlation Energy        =      -1.3656257825927054 [Eh]
	 Total Energy              =    -342.5550921978133943 [Eh]

	 ================> DF-SCS-MP2 Energies <==================
	-----------------------------------------------------------
	 SCS Same-Spin Scale       =       0.3333333333333333 [-]
	 SCS Opposite-Spin Scale   =       1.2000000000000000 [-]
	 SCS Same-Spin Energy      =      -0.1134158644142521 [Eh]
	 SCS Opposite-Spin Energy  =      -1.2304538272199390 [Eh]
	 SCS Correlation Energy    =      -1.3438696916341910 [Eh]
	 SCS Total Energy          =    -342.5333361068549038 [Eh]
	-----------------------------------------------------------

  Dipole Moment: [D]
     X:     3.9508      Y:    -0.6904      Z:    -0.5193     Total:     4.0441

*** Psi4 exiting successfully. Buy a developer a beer!
