                               Psi4 1.3.2 release

  ==> Input File <==

--------------------------------------------------------------------------
#psi4
#
memory 32 gb

molecule  {
0 1
  C       -2.1511020    -0.0065270     0.0000480
  C       -0.6578330     0.0187880    -0.0000310
  C        0.1863670     1.1106040    -0.0000190
  C        1.3448400    -0.7705710    -0.0000450
  N        0.0761003    -1.1507870    -0.2000380
  N        1.4605000     0.5893150     0.0000860
  H       -2.5302630    -0.5301450    -0.8821160
  H       -2.5568780     1.0090980    -0.0003890
  H        0.0003360     2.1751570    -0.0003990
  H        2.2046270    -1.4277370     0.0000190
  H        2.3225060     1.1195640     0.0001590
  H       -2.5302120    -0.5293840     0.8826800
units angstrom
no_reorient  #important for SAPT in psi4, default
symmetry c1  #important for SAPT in psi4, default
}

set PROPERTIES_ORIGIN ["COM"]
properties('MP2/aug-cc-pvtz', properties = ['dipole'])
--------------------------------------------------------------------------

    Molecular point group: c1
  Charge       = 0
  Multiplicity = 1
  Basis Set: AUG-CC-PVTZ
    Blend: AUG-CC-PVTZ
  Basis Set: (AUG-CC-PVTZ AUX)
    Blend: AUG-CC-PVTZ-JKFIT

    Orbital Energies [Eh]
    ---------------------

    Doubly Occupied:

       1A    -15.620759     2A    -15.545347     3A    -11.300402
       4A    -11.254220     5A    -11.250226     6A    -11.215996
       7A     -1.332040     8A     -1.160105     9A     -1.028471
      10A     -0.937062    11A     -0.823383    12A     -0.766256
      13A     -0.735645    14A     -0.615441    15A     -0.603870
      16A     -0.594553    17A     -0.549423    18A     -0.539734
      19A     -0.522447    20A     -0.438642    21A     -0.385195
      22A     -0.308022

  @DF-RHF Final Energy:  -263.93999934923454

   => Energetics <=

    Nuclear Repulsion Energy =            223.2972065615142014
    One-Electron Energy =                -799.4199338313209182
    Two-Electron Energy =                 312.1827279205722334
    Total Energy =                       -263.9399993492345402
  Basis Set: (AUG-CC-PVTZ AUX)
    Blend: AUG-CC-PVTZ-RI
    Molecular point group: c1

    Geometry (in Angstrom), charge = 0, multiplicity = 1:

       Center              X                  Y                   Z               Mass
    ------------   -----------------  -----------------  -----------------  -----------------
         C           -2.188520809789     0.015459231126     0.034178984383    12.000000000000
         C           -0.695251809789     0.040774231126     0.034099984383    12.000000000000
         C            0.148948190211     1.132590231126     0.034111984383    12.000000000000
         C            1.307421190211    -0.748584768874     0.034085984383    12.000000000000
         N            0.038681490211    -1.128800768874    -0.165907015617    14.003074004430
         N            1.423081190211     0.611301231126     0.034216984383    14.003074004430
         H           -2.567681809789    -0.508158768874    -0.847985015617     1.007825032230
         H           -2.594296809789     1.031084231126     0.033741984383     1.007825032230
         H           -0.037082809789     2.197143231126     0.033731984383     1.007825032230
         H            2.167208190211    -1.405750768874     0.034149984383     1.007825032230
         H            2.285087190211     1.141550231126     0.034289984383     1.007825032230
         H           -2.567630809789    -0.507397768874     0.916810984383     1.007825032230

  Basis Set: AUG-CC-PVTZ
    Blend: AUG-CC-PVTZ
  Basis Set: (AUG-CC-PVTZ AUX)
    Blend: AUG-CC-PVTZ-JKFIT
	 Reference Energy          =    -263.9399993492345402 [Eh]
	 Singles Energy            =      -0.0000000000000000 [Eh]
	 Same-Spin Energy          =      -0.2872538700515597 [Eh]
	 Opposite-Spin Energy      =      -0.8983056066558004 [Eh]
	 Correlation Energy        =      -1.1855594767073601 [Eh]
	 Total Energy              =    -265.1255588259418801 [Eh]

	 ================> DF-SCS-MP2 Energies <==================
	-----------------------------------------------------------
	 SCS Same-Spin Scale       =       0.3333333333333333 [-]
	 SCS Opposite-Spin Scale   =       1.2000000000000000 [-]
	 SCS Same-Spin Energy      =      -0.0957512900171865 [Eh]
	 SCS Opposite-Spin Energy  =      -1.0779667279869605 [Eh]
	 SCS Correlation Energy    =      -1.1737180180041471 [Eh]
	 SCS Total Energy          =    -265.1137173672386780 [Eh]
	-----------------------------------------------------------

  Dipole Moment: [D]
     X:     2.0619      Y:     2.8587      Z:     0.2668     Total:     3.5348

*** Psi4 exiting successfully. Buy a developer a beer!
