                               Psi4 1.3.2 release

  ==> Input File <==

--------------------------------------------------------------------------
#psi4
#
memory 32 gb

molecule  {
0 1
  C       -2.1511020    -0.0065270     0.0000480
  C       -0.6578330     0.0187880    -0.0000310
  C        0.1863670     1.1106040    -0.0000190
  C        1.3448400    -0.7705710    -0.0000450
  N        0.0760986    -1.1507865    -0.2500380
  N        1.4605000     0.5893150     0.0000860
  H       -2.5302630    -0.5301450    -0.8821160
  H       -2.5568780     1.0090980    -0.0003890
  H        0.0003360     2.1751570    -0.0003990
  H        2.2046270    -1.4277370     0.0000190
  H        2.3225060     1.1195640     0.0001590
  H       -2.5302120    -0.5293840     0.8826800
units angstrom
no_reorient  #important for SAPT in psi4, default
symmetry c1  #important for SAPT in psi4, default
}

set PROPERTIES_ORIGIN ["COM"]
properties('MP2/aug-cc-pvtz', properties = ['dipole'])
--------------------------------------------------------------------------

    Molecular point group: c1
  Charge       = 0
  Multiplicity = 1
  Basis Set: AUG-CC-PVTZ
    Blend: AUG-CC-PVTZ
  Basis Set: (AUG-CC-PVTZ AUX)
    Blend: AUG-CC-PVTZ-JKFIT

    Orbital Energies [Eh]
    ---------------------

    Doubly Occupied:

       1A    -15.621075     2A    -15.547149     3A    -11.301945
       4A    -11.254475     5A    -11.251192     6A    -11.216107
       7A     -1.330762     8A     -1.157821     9A     -1.027955
      10A     -0.937157    11A     -0.823204    12A     -0.764801
      13A     -0.735612    14A     -0.614420    15A     -0.603966
      16A     -0.593526    17A     -0.549673    18A     -0.539416
      19A     -0.520959    20A     -0.441050    21A     -0.382289
      22A     -0.307384

  @DF-RHF Final Energy:  -263.93439086401372

   => Energetics <=

    Nuclear Repulsion Energy =            223.0295575045076646
    One-Electron Energy =                -798.8840232634410086
    Two-Electron Energy =                 311.9200748949195940
    Total Energy =                       -263.9343908640137215
  Basis Set: (AUG-CC-PVTZ AUX)
    Blend: AUG-CC-PVTZ-RI
    Molecular point group: c1

    Geometry (in Angstrom), charge = 0, multiplicity = 1:

       Center              X                  Y                   Z               Mass
    ------------   -----------------  -----------------  -----------------  -----------------
         C           -2.188520519669     0.015459145796     0.042711918733    12.000000000000
         C           -0.695251519669     0.040774145796     0.042632918733    12.000000000000
         C            0.148948480331     1.132590145796     0.042644918733    12.000000000000
         C            1.307421480331    -0.748584854204     0.042618918733    12.000000000000
         N            0.038680080331    -1.128800354204    -0.207374081267    14.003074004430
         N            1.423081480331     0.611301145796     0.042749918733    14.003074004430
         H           -2.567681519669    -0.508158854204    -0.839452081267     1.007825032230
         H           -2.594296519669     1.031084145796     0.042274918733     1.007825032230
         H           -0.037082519669     2.197143145796     0.042264918733     1.007825032230
         H            2.167208480331    -1.405750854204     0.042682918733     1.007825032230
         H            2.285087480331     1.141550145796     0.042822918733     1.007825032230
         H           -2.567630519669    -0.507397854204     0.925343918733     1.007825032230

  Basis Set: AUG-CC-PVTZ
    Blend: AUG-CC-PVTZ
  Basis Set: (AUG-CC-PVTZ AUX)
    Blend: AUG-CC-PVTZ-JKFIT
	 Reference Energy          =    -263.9343908640137215 [Eh]
	 Singles Energy            =      -0.0000000000000000 [Eh]
	 Same-Spin Energy          =      -0.2875022926812114 [Eh]
	 Opposite-Spin Energy      =      -0.8991803851378634 [Eh]
	 Correlation Energy        =      -1.1866826778190749 [Eh]
	 Total Energy              =    -265.1210735418327999 [Eh]

	 ================> DF-SCS-MP2 Energies <==================
	-----------------------------------------------------------
	 SCS Same-Spin Scale       =       0.3333333333333333 [-]
	 SCS Opposite-Spin Scale   =       1.2000000000000000 [-]
	 SCS Same-Spin Energy      =      -0.0958340975604038 [Eh]
	 SCS Opposite-Spin Energy  =      -1.0790164621654359 [Eh]
	 SCS Correlation Energy    =      -1.1748505597258396 [Eh]
	 SCS Total Energy          =    -265.1092414237395474 [Eh]
	-----------------------------------------------------------

  Dipole Moment: [D]
     X:     2.0561      Y:     2.8677      Z:     0.3319     Total:     3.5442

*** Psi4 exiting successfully. Buy a developer a beer!
