                               Psi4 1.3.2 release

  ==> Input File <==

--------------------------------------------------------------------------
#psi4
#
memory 32 gb

molecule  {
0 1
  C       -2.1511020    -0.0065270     0.0000480
  C       -0.6578330     0.0187880    -0.0000310
  C        0.1863670     1.1106040    -0.0000190
  C        1.3448400    -0.7705710    -0.0000450
  N        0.0761070    -1.1507890    -0.0000380
  N        1.4605000     0.5893150     0.0000860
  H       -2.5302630    -0.5301450    -0.8821160
  H       -2.5568780     1.0090980    -0.0003890
  H        0.0003360     2.1751570    -0.0003990
  H        2.2046335    -1.4277279    -0.1999810
  H        2.3225060     1.1195640     0.0001590
  H       -2.5302120    -0.5293840     0.8826800
units angstrom
no_reorient  #important for SAPT in psi4, default
symmetry c1  #important for SAPT in psi4, default
}

set PROPERTIES_ORIGIN ["COM"]
properties('MP2/aug-cc-pvtz', properties = ['dipole'])
--------------------------------------------------------------------------

    Molecular point group: c1
  Charge       = 0
  Multiplicity = 1
  Basis Set: AUG-CC-PVTZ
    Blend: AUG-CC-PVTZ
  Basis Set: (AUG-CC-PVTZ AUX)
    Blend: AUG-CC-PVTZ-JKFIT

    Orbital Energies [Eh]
    ---------------------

    Doubly Occupied:

       1A    -15.620290     2A    -15.542506     3A    -11.298831
       4A    -11.254376     5A    -11.248777     6A    -11.216003
       7A     -1.334649     8A     -1.164347     9A     -1.029306
      10A     -0.936651    11A     -0.822846    12A     -0.768769
      13A     -0.733709    14A     -0.617613    15A     -0.605219
      16A     -0.592235    17A     -0.549062    18A     -0.540202
      19A     -0.524494    20A     -0.433616    21A     -0.391440
      22A     -0.309336

  @DF-RHF Final Energy:  -263.94733943338701

   => Energetics <=

    Nuclear Repulsion Energy =            223.7139028033200532
    One-Electron Energy =                -800.2539286001134542
    Two-Electron Energy =                 312.5926863634064148
    Total Energy =                       -263.9473394333870147
  Basis Set: (AUG-CC-PVTZ AUX)
    Blend: AUG-CC-PVTZ-RI
    Molecular point group: c1

    Geometry (in Angstrom), charge = 0, multiplicity = 1:

       Center              X                  Y                   Z               Mass
    ------------   -----------------  -----------------  -----------------  -----------------
         C           -2.188522033039     0.015459460671     0.002503766123    12.000000000000
         C           -0.695253033039     0.040774460671     0.002424766123    12.000000000000
         C            0.148946966961     1.132590460671     0.002436766123    12.000000000000
         C            1.307419966961    -0.748584539329     0.002410766123    12.000000000000
         N            0.038686966961    -1.128802539329     0.002417766123    14.003074004430
         N            1.423079966961     0.611301460671     0.002541766123    14.003074004430
         H           -2.567683033039    -0.508158539329    -0.879660233877     1.007825032230
         H           -2.594298033039     1.031084460671     0.002066766123     1.007825032230
         H           -0.037084033039     2.197143460671     0.002056766123     1.007825032230
         H            2.167213466961    -1.405741439329    -0.197525233877     1.007825032230
         H            2.285085966961     1.141550460671     0.002614766123     1.007825032230
         H           -2.567632033039    -0.507397539329     0.885135766123     1.007825032230

  Basis Set: AUG-CC-PVTZ
    Blend: AUG-CC-PVTZ
  Basis Set: (AUG-CC-PVTZ AUX)
    Blend: AUG-CC-PVTZ-JKFIT
	 Reference Energy          =    -263.9473394333870147 [Eh]
	 Singles Energy            =      -0.0000000000000000 [Eh]
	 Same-Spin Energy          =      -0.2870297767357446 [Eh]
	 Opposite-Spin Energy      =      -0.8972086715714701 [Eh]
	 Correlation Energy        =      -1.1842384483072146 [Eh]
	 Total Energy              =    -265.1315778816942270 [Eh]

	 ================> DF-SCS-MP2 Energies <==================
	-----------------------------------------------------------
	 SCS Same-Spin Scale       =       0.3333333333333333 [-]
	 SCS Opposite-Spin Scale   =       1.2000000000000000 [-]
	 SCS Same-Spin Energy      =      -0.0956765922452482 [Eh]
	 SCS Opposite-Spin Energy  =      -1.0766504058857640 [Eh]
	 SCS Correlation Energy    =      -1.1723269981310123 [Eh]
	 SCS Total Energy          =    -265.1196664315179987 [Eh]
	-----------------------------------------------------------

  Dipole Moment: [D]
     X:     2.0322      Y:     2.8652      Z:    -0.1559     Total:     3.5162

*** Psi4 exiting successfully. Buy a developer a beer!
