                               Psi4 1.3.2 release

  ==> Input File <==

--------------------------------------------------------------------------
#psi4
#
memory 32 gb

molecule  {
0 1
  C       -2.1511020    -0.0065270     0.0000480
  C       -0.6578330     0.0187880    -0.0000310
  C        0.1863670     1.1106040    -0.0000190
  C        1.3448400    -0.7705710    -0.0000450
  N        0.0761070    -1.1507890    -0.0000380
  N        1.4605000     0.5893150     0.0000860
  H       -2.5302630    -0.5301450    -0.8821160
  H       -2.5568780     1.0090980    -0.0003890
  H        0.0003360     2.1751570    -0.0003990
  H        2.2046286    -1.4277347    -0.0499810
  H        2.3225060     1.1195640     0.0001590
  H       -2.5302120    -0.5293840     0.8826800
units angstrom
no_reorient  #important for SAPT in psi4, default
symmetry c1  #important for SAPT in psi4, default
}

set PROPERTIES_ORIGIN ["COM"]
properties('MP2/aug-cc-pvtz', properties = ['dipole'])
--------------------------------------------------------------------------

    Molecular point group: c1
  Charge       = 0
  Multiplicity = 1
  Basis Set: AUG-CC-PVTZ
    Blend: AUG-CC-PVTZ
  Basis Set: (AUG-CC-PVTZ AUX)
    Blend: AUG-CC-PVTZ-JKFIT

    Orbital Energies [Eh]
    ---------------------

    Doubly Occupied:

       1A    -15.620200     2A    -15.542085     3A    -11.297659
       4A    -11.253825     5A    -11.248443     6A    -11.215797
       7A     -1.334486     8A     -1.164119     9A     -1.029421
      10A     -0.936871    11A     -0.823847    12A     -0.768920
      13A     -0.735577    14A     -0.617466    15A     -0.603574
      16A     -0.596288    17A     -0.548856    18A     -0.540494
      19A     -0.524901    20A     -0.433336    21A     -0.391361
      22A     -0.309201

  @DF-RHF Final Energy:  -263.94963160436339

   => Energetics <=

    Nuclear Repulsion Energy =            223.7786273103116628
    One-Electron Energy =                -800.3830640419488418
    Two-Electron Energy =                 312.6548051272737894
    Total Energy =                       -263.9496316043633897
  Basis Set: (AUG-CC-PVTZ AUX)
    Blend: AUG-CC-PVTZ-RI
    Molecular point group: c1

    Geometry (in Angstrom), charge = 0, multiplicity = 1:

       Center              X                  Y                   Z               Mass
    ------------   -----------------  -----------------  -----------------  -----------------
         C           -2.188521972855     0.015459544193     0.000661376766    12.000000000000
         C           -0.695252972855     0.040774544193     0.000582376766    12.000000000000
         C            0.148947027145     1.132590544193     0.000594376766    12.000000000000
         C            1.307420027145    -0.748584455807     0.000568376766    12.000000000000
         N            0.038687027145    -1.128802455807     0.000575376766    14.003074004430
         N            1.423080027145     0.611301544193     0.000699376766    14.003074004430
         H           -2.567682972855    -0.508158455807    -0.881502623234     1.007825032230
         H           -2.594297972855     1.031084544193     0.000224376766     1.007825032230
         H           -0.037083972855     2.197143544193     0.000214376766     1.007825032230
         H            2.167208627145    -1.405748155807    -0.049367623234     1.007825032230
         H            2.285086027145     1.141550544193     0.000772376766     1.007825032230
         H           -2.567631972855    -0.507397455807     0.883293376766     1.007825032230

  Basis Set: AUG-CC-PVTZ
    Blend: AUG-CC-PVTZ
  Basis Set: (AUG-CC-PVTZ AUX)
    Blend: AUG-CC-PVTZ-JKFIT
	 Reference Energy          =    -263.9496316043633897 [Eh]
	 Singles Energy            =      -0.0000000000000000 [Eh]
	 Same-Spin Energy          =      -0.2868399475499308 [Eh]
	 Opposite-Spin Energy      =      -0.8968442848481246 [Eh]
	 Correlation Energy        =      -1.1836842323980554 [Eh]
	 Total Energy              =    -265.1333158367614260 [Eh]

	 ================> DF-SCS-MP2 Energies <==================
	-----------------------------------------------------------
	 SCS Same-Spin Scale       =       0.3333333333333333 [-]
	 SCS Opposite-Spin Scale   =       1.2000000000000000 [-]
	 SCS Same-Spin Energy      =      -0.0956133158499769 [Eh]
	 SCS Opposite-Spin Energy  =      -1.0762131418177494 [Eh]
	 SCS Correlation Energy    =      -1.1718264576677264 [Eh]
	 SCS Total Energy          =    -265.1214580620311381 [Eh]
	-----------------------------------------------------------

  Dipole Moment: [D]
     X:     2.0693      Y:     2.8432      Z:    -0.0394     Total:     3.5167

*** Psi4 exiting successfully. Buy a developer a beer!
