                               Psi4 1.3.2 release

  ==> Input File <==

--------------------------------------------------------------------------
#psi4
#
memory 32 gb

molecule  {
0 1
  C       -2.1511020    -0.0065270     0.0000480
  C       -0.6578330     0.0187880    -0.0000310
  C        0.1863670     1.1106040    -0.0000190
  C        1.3448400    -0.7705710    -0.0000450
  N        0.0761070    -1.1507890    -0.0000380
  N        1.4605000     0.5893150     0.0000860
  H       -2.5302630    -0.5301450    -0.8821160
  H       -2.5568780     1.0090980    -0.0003890
  H        0.0003360     2.1751570    -0.0003990
  H        2.2046368    -1.4277234    -0.2999810
  H        2.3225060     1.1195640     0.0001590
  H       -2.5302120    -0.5293840     0.8826800
units angstrom
no_reorient  #important for SAPT in psi4, default
symmetry c1  #important for SAPT in psi4, default
}

set PROPERTIES_ORIGIN ["COM"]
properties('MP2/aug-cc-pvtz', properties = ['dipole'])
--------------------------------------------------------------------------

    Molecular point group: c1
  Charge       = 0
  Multiplicity = 1
  Basis Set: AUG-CC-PVTZ
    Blend: AUG-CC-PVTZ
  Basis Set: (AUG-CC-PVTZ AUX)
    Blend: AUG-CC-PVTZ-JKFIT

    Orbital Energies [Eh]
    ---------------------

    Doubly Occupied:

       1A    -15.620426     2A    -15.543055     3A    -11.300354
       4A    -11.255090     5A    -11.249213     6A    -11.216273
       7A     -1.334868     8A     -1.164651     9A     -1.029193
      10A     -0.936418    11A     -0.821697    12A     -0.768646
      13A     -0.731351    14A     -0.617695    15A     -0.606398
      16A     -0.588075    17A     -0.549334    18A     -0.539817
      19A     -0.523817    20A     -0.433963    21A     -0.391552
      22A     -0.309521

  @DF-RHF Final Energy:  -263.94390351775695

   => Energetics <=

    Nuclear Repulsion Energy =            223.6310878152611679
    One-Electron Energy =                -800.0871702718274037
    Two-Electron Energy =                 312.5121789388093134
    Total Energy =                       -263.9439035177569508
  Basis Set: (AUG-CC-PVTZ AUX)
    Blend: AUG-CC-PVTZ-RI
    Molecular point group: c1

    Geometry (in Angstrom), charge = 0, multiplicity = 1:

       Center              X                  Y                   Z               Mass
    ------------   -----------------  -----------------  -----------------  -----------------
         C           -2.188522073572     0.015459405400     0.003732025694    12.000000000000
         C           -0.695253073572     0.040774405400     0.003653025694    12.000000000000
         C            0.148946926428     1.132590405400     0.003665025694    12.000000000000
         C            1.307419926428    -0.748584594600     0.003639025694    12.000000000000
         N            0.038686926428    -1.128802594600     0.003646025694    14.003074004430
         N            1.423079926428     0.611301405400     0.003770025694    14.003074004430
         H           -2.567683073572    -0.508158594600    -0.878431974306     1.007825032230
         H           -2.594298073572     1.031084405400     0.003295025694     1.007825032230
         H           -0.037084073572     2.197143405400     0.003285025694     1.007825032230
         H            2.167216726428    -1.405736994600    -0.296296974306     1.007825032230
         H            2.285085926428     1.141550405400     0.003843025694     1.007825032230
         H           -2.567632073572    -0.507397594600     0.886364025694     1.007825032230

  Basis Set: AUG-CC-PVTZ
    Blend: AUG-CC-PVTZ
  Basis Set: (AUG-CC-PVTZ AUX)
    Blend: AUG-CC-PVTZ-JKFIT
	 Reference Energy          =    -263.9439035177569508 [Eh]
	 Singles Energy            =      -0.0000000000000000 [Eh]
	 Same-Spin Energy          =      -0.2872754566536683 [Eh]
	 Opposite-Spin Energy      =      -0.8977251931950767 [Eh]
	 Correlation Energy        =      -1.1850006498487451 [Eh]
	 Total Energy              =    -265.1289041676056968 [Eh]

	 ================> DF-SCS-MP2 Energies <==================
	-----------------------------------------------------------
	 SCS Same-Spin Scale       =       0.3333333333333333 [-]
	 SCS Opposite-Spin Scale   =       1.2000000000000000 [-]
	 SCS Same-Spin Energy      =      -0.0957584855512228 [Eh]
	 SCS Opposite-Spin Energy  =      -1.0772702318340921 [Eh]
	 SCS Correlation Energy    =      -1.1730287173853149 [Eh]
	 SCS Total Energy          =    -265.1169322351422579 [Eh]
	-----------------------------------------------------------

  Dipole Moment: [D]
     X:     1.9844      Y:     2.8937      Z:    -0.2307     Total:     3.5163

*** Psi4 exiting successfully. Buy a developer a beer!
