                               Psi4 1.3.2 release

  ==> Input File <==

--------------------------------------------------------------------------
#psi4
#
memory 32 gb

molecule  {
0 1
  C       -2.1511020    -0.0065270     0.0000480
  C       -0.6578330     0.0187880    -0.0000310
  C        0.1863670     1.1106040    -0.0000190
  C        1.3448400    -0.7705710    -0.0000450
  N        0.0761053    -1.1507885    -0.0500380
  N        1.4605000     0.5893150     0.0000860
  H       -2.5302630    -0.5301450    -0.8821160
  H       -2.5568780     1.0090980    -0.0003890
  H        0.0003360     2.1751570    -0.0003990
  H        2.2046270    -1.4277370     0.0000190
  H        2.3225060     1.1195640     0.0001590
  H       -2.5302120    -0.5293840     0.8826800
units angstrom
no_reorient  #important for SAPT in psi4, default
symmetry c1  #important for SAPT in psi4, default
}

set PROPERTIES_ORIGIN ["COM"]
properties('MP2/aug-cc-pvtz', properties = ['dipole'])
--------------------------------------------------------------------------

    Molecular point group: c1
  Charge       = 0
  Multiplicity = 1
  Basis Set: AUG-CC-PVTZ
    Blend: AUG-CC-PVTZ
  Basis Set: (AUG-CC-PVTZ AUX)
    Blend: AUG-CC-PVTZ-JKFIT

    Orbital Energies [Eh]
    ---------------------

    Doubly Occupied:

       1A    -15.620230     2A    -15.542266     3A    -11.297759
       4A    -11.253814     5A    -11.248537     6A    -11.215797
       7A     -1.334316     8A     -1.163857     9A     -1.029368
      10A     -0.936899    11A     -0.823876    12A     -0.768762
      13A     -0.735700    14A     -0.617319    15A     -0.603448
      16A     -0.596481    17A     -0.548886    18A     -0.540455
      19A     -0.524777    20A     -0.433703    21A     -0.390920
      22A     -0.309118

  @DF-RHF Final Energy:  -263.94917167561232

   => Energetics <=

    Nuclear Repulsion Energy =            223.7522576369414367
    One-Electron Energy =                -800.3302861133297483
    Two-Electron Energy =                 312.6288568007760205
    Total Energy =                       -263.9491716756123196
  Basis Set: (AUG-CC-PVTZ AUX)
    Blend: AUG-CC-PVTZ-RI
    Molecular point group: c1

    Geometry (in Angstrom), charge = 0, multiplicity = 1:

       Center              X                  Y                   Z               Mass
    ------------   -----------------  -----------------  -----------------  -----------------
         C           -2.188521663083     0.015459487114     0.008580181331    12.000000000000
         C           -0.695252663083     0.040774487114     0.008501181331    12.000000000000
         C            0.148947336917     1.132590487114     0.008513181331    12.000000000000
         C            1.307420336917    -0.748584512886     0.008487181331    12.000000000000
         N            0.038685636917    -1.128802012886    -0.041505818669    14.003074004430
         N            1.423080336917     0.611301487114     0.008618181331    14.003074004430
         H           -2.567682663083    -0.508158512886    -0.873583818669     1.007825032230
         H           -2.594297663083     1.031084487114     0.008143181331     1.007825032230
         H           -0.037083663083     2.197143487114     0.008133181331     1.007825032230
         H            2.167207336917    -1.405750512886     0.008551181331     1.007825032230
         H            2.285086336917     1.141550487114     0.008691181331     1.007825032230
         H           -2.567631663083    -0.507397512886     0.891212181331     1.007825032230

  Basis Set: AUG-CC-PVTZ
    Blend: AUG-CC-PVTZ
  Basis Set: (AUG-CC-PVTZ AUX)
    Blend: AUG-CC-PVTZ-JKFIT
	 Reference Energy          =    -263.9491716756123196 [Eh]
	 Singles Energy            =      -0.0000000000000000 [Eh]
	 Same-Spin Energy          =      -0.2868532049787852 [Eh]
	 Opposite-Spin Energy      =      -0.8969090078418486 [Eh]
	 Correlation Energy        =      -1.1837622128206338 [Eh]
	 Total Energy              =    -265.1329338884329445 [Eh]

	 ================> DF-SCS-MP2 Energies <==================
	-----------------------------------------------------------
	 SCS Same-Spin Scale       =       0.3333333333333333 [-]
	 SCS Opposite-Spin Scale   =       1.2000000000000000 [-]
	 SCS Same-Spin Energy      =      -0.0956177349929284 [Eh]
	 SCS Opposite-Spin Energy  =      -1.0762908094102182 [Eh]
	 SCS Correlation Energy    =      -1.1719085444031465 [Eh]
	 SCS Total Energy          =    -265.1210802200154717 [Eh]
	-----------------------------------------------------------

  Dipole Moment: [D]
     X:     2.0712      Y:     2.8428      Z:     0.0671     Total:     3.5179

*** Psi4 exiting successfully. Buy a developer a beer!
