                               Psi4 1.3.2 release

  ==> Input File <==

--------------------------------------------------------------------------
#psi4
#
memory 32 gb

molecule  {
0 1
  C       -2.1511020    -0.0065270     0.0000480
  C       -0.6578330     0.0187880    -0.0000310
  C        0.1863670     1.1106040    -0.0000190
  C        1.3448400    -0.7705710    -0.0000450
  N        0.0761070    -1.1507890    -0.0000380
  N        1.4605000     0.5893150     0.0000860
  H       -2.5302630    -0.5301450    -0.8821160
  H       -2.5568780     1.0090980    -0.0003890
  H        0.0003305     2.1751672     0.0496010
  H        2.2046270    -1.4277370     0.0000190
  H        2.3225060     1.1195640     0.0001590
  H       -2.5302120    -0.5293840     0.8826800
units angstrom
no_reorient  #important for SAPT in psi4, default
symmetry c1  #important for SAPT in psi4, default
}

set PROPERTIES_ORIGIN ["COM"]
properties('MP2/aug-cc-pvtz', properties = ['dipole'])
--------------------------------------------------------------------------

    Molecular point group: c1
  Charge       = 0
  Multiplicity = 1
  Basis Set: AUG-CC-PVTZ
    Blend: AUG-CC-PVTZ
  Basis Set: (AUG-CC-PVTZ AUX)
    Blend: AUG-CC-PVTZ-JKFIT

    Orbital Energies [Eh]
    ---------------------

    Doubly Occupied:

       1A    -15.620189     2A    -15.542077     3A    -11.297619
       4A    -11.253859     5A    -11.248467     6A    -11.215799
       7A     -1.334489     8A     -1.164118     9A     -1.029426
      10A     -0.936877    11A     -0.823925    12A     -0.768788
      13A     -0.735680    14A     -0.617458    15A     -0.603777
      16A     -0.595995    17A     -0.548847    18A     -0.540537
      19A     -0.524941    20A     -0.433328    21A     -0.391367
      22A     -0.309208

  @DF-RHF Final Energy:  -263.94965643384847

   => Energetics <=

    Nuclear Repulsion Energy =            223.7786092577040336
    One-Electron Energy =                -800.3829941598561390
    Two-Electron Energy =                 312.6547284683036310
    Total Energy =                       -263.9496564338484745
  Basis Set: (AUG-CC-PVTZ AUX)
    Blend: AUG-CC-PVTZ-RI
    Molecular point group: c1

    Geometry (in Angstrom), charge = 0, multiplicity = 1:

       Center              X                  Y                   Z               Mass
    ------------   -----------------  -----------------  -----------------  -----------------
         C           -2.188521885648     0.015459447160    -0.000566882805    12.000000000000
         C           -0.695252885648     0.040774447160    -0.000645882805    12.000000000000
         C            0.148947114352     1.132590447160    -0.000633882805    12.000000000000
         C            1.307420114352    -0.748584552840    -0.000659882805    12.000000000000
         N            0.038687114352    -1.128802552840    -0.000652882805    14.003074004430
         N            1.423080114352     0.611301447160    -0.000528882805    14.003074004430
         H           -2.567682885648    -0.508158552840    -0.882730882805     1.007825032230
         H           -2.594297885648     1.031084447160    -0.001003882805     1.007825032230
         H           -0.037089385648     2.197153647160     0.048986117195     1.007825032230
         H            2.167207114352    -1.405750552840    -0.000595882805     1.007825032230
         H            2.285086114352     1.141550447160    -0.000455882805     1.007825032230
         H           -2.567631885648    -0.507397552840     0.882065117195     1.007825032230

  Basis Set: AUG-CC-PVTZ
    Blend: AUG-CC-PVTZ
  Basis Set: (AUG-CC-PVTZ AUX)
    Blend: AUG-CC-PVTZ-JKFIT
	 Reference Energy          =    -263.9496564338484745 [Eh]
	 Singles Energy            =      -0.0000000000000000 [Eh]
	 Same-Spin Energy          =      -0.2868341822371207 [Eh]
	 Opposite-Spin Energy      =      -0.8968351882437022 [Eh]
	 Correlation Energy        =      -1.1836693704808230 [Eh]
	 Total Energy              =    -265.1333258043292744 [Eh]

	 ================> DF-SCS-MP2 Energies <==================
	-----------------------------------------------------------
	 SCS Same-Spin Scale       =       0.3333333333333333 [-]
	 SCS Opposite-Spin Scale   =       1.2000000000000000 [-]
	 SCS Same-Spin Energy      =      -0.0956113940790402 [Eh]
	 SCS Opposite-Spin Energy  =      -1.0762022258924426 [Eh]
	 SCS Correlation Energy    =      -1.1718136199714828 [Eh]
	 SCS Total Energy          =    -265.1214700538199622 [Eh]
	-----------------------------------------------------------

  Dipole Moment: [D]
     X:     2.0717      Y:     2.8392      Z:     0.0459     Total:     3.5150

*** Psi4 exiting successfully. Buy a developer a beer!
