                               Psi4 1.3.2 release

  ==> Input File <==

--------------------------------------------------------------------------
#psi4
#
memory 32 gb

molecule  {
0 1
  C       -2.1511020    -0.0065270     0.0000480
  C       -0.6578330     0.0187880    -0.0000310
  C        0.1863670     1.1106040    -0.0000190
  C        1.3448400    -0.7705710    -0.0000450
  N        0.0761070    -1.1507890    -0.0000380
  N        1.4605000     0.5893150     0.0000860
  H       -2.5302630    -0.5301450    -0.8821160
  H       -2.5568780     1.0090980    -0.0003890
  H        0.0003029     2.1752183     0.2996010
  H        2.2046270    -1.4277370     0.0000190
  H        2.3225060     1.1195640     0.0001590
  H       -2.5302120    -0.5293840     0.8826800
units angstrom
no_reorient  #important for SAPT in psi4, default
symmetry c1  #important for SAPT in psi4, default
}

set PROPERTIES_ORIGIN ["COM"]
properties('MP2/aug-cc-pvtz', properties = ['dipole'])
--------------------------------------------------------------------------

    Molecular point group: c1
  Charge       = 0
  Multiplicity = 1
  Basis Set: AUG-CC-PVTZ
    Blend: AUG-CC-PVTZ
  Basis Set: (AUG-CC-PVTZ AUX)
    Blend: AUG-CC-PVTZ-JKFIT

    Orbital Energies [Eh]
    ---------------------

    Doubly Occupied:

       1A    -15.620075     2A    -15.542773     3A    -11.298945
       4A    -11.256306     5A    -11.250069     6A    -11.216331
       7A     -1.334978     8A     -1.164617     9A     -1.029330
      10A     -0.936562    11A     -0.824185    12A     -0.764421
      13A     -0.734789    14A     -0.617654    15A     -0.608184
      16A     -0.582683    17A     -0.548924    18A     -0.541334
      19A     -0.525467    20A     -0.433723    21A     -0.391754
      22A     -0.309747

  @DF-RHF Final Energy:  -263.94471195518037

   => Energetics <=

    Nuclear Repulsion Energy =            223.6302105131518658
    One-Electron Energy =                -800.0841460116272401
    Two-Electron Energy =                 312.5092235432950361
    Total Energy =                       -263.9447119551803667
  Basis Set: (AUG-CC-PVTZ AUX)
    Blend: AUG-CC-PVTZ-RI
    Molecular point group: c1

    Geometry (in Angstrom), charge = 0, multiplicity = 1:

       Center              X                  Y                   Z               Mass
    ------------   -----------------  -----------------  -----------------  -----------------
         C           -2.188521546648     0.015458819520    -0.003637531734    12.000000000000
         C           -0.695252546648     0.040773819520    -0.003716531734    12.000000000000
         C            0.148947453352     1.132589819520    -0.003704531734    12.000000000000
         C            1.307420453352    -0.748585180480    -0.003730531734    12.000000000000
         N            0.038687453352    -1.128803180480    -0.003723531734    14.003074004430
         N            1.423080453352     0.611300819520    -0.003599531734    14.003074004430
         H           -2.567682546648    -0.508159180480    -0.885801531734     1.007825032230
         H           -2.594297546648     1.031083819520    -0.004074531734     1.007825032230
         H           -0.037116646648     2.197204119520     0.295915468266     1.007825032230
         H            2.167207453352    -1.405751180480    -0.003666531734     1.007825032230
         H            2.285086453352     1.141549819520    -0.003526531734     1.007825032230
         H           -2.567631546648    -0.507398180480     0.878994468266     1.007825032230

  Basis Set: AUG-CC-PVTZ
    Blend: AUG-CC-PVTZ
  Basis Set: (AUG-CC-PVTZ AUX)
    Blend: AUG-CC-PVTZ-JKFIT
	 Reference Energy          =    -263.9447119551803667 [Eh]
	 Singles Energy            =      -0.0000000000000000 [Eh]
	 Same-Spin Energy          =      -0.2870724155751011 [Eh]
	 Opposite-Spin Energy      =      -0.8973935258599488 [Eh]
	 Correlation Energy        =      -1.1844659414350498 [Eh]
	 Total Energy              =    -265.1291778966154311 [Eh]

	 ================> DF-SCS-MP2 Energies <==================
	-----------------------------------------------------------
	 SCS Same-Spin Scale       =       0.3333333333333333 [-]
	 SCS Opposite-Spin Scale   =       1.2000000000000000 [-]
	 SCS Same-Spin Energy      =      -0.0956908051917004 [Eh]
	 SCS Opposite-Spin Energy  =      -1.0768722310319385 [Eh]
	 SCS Correlation Energy    =      -1.1725630362236390 [Eh]
	 SCS Total Energy          =    -265.1172749914040310 [Eh]
	-----------------------------------------------------------

  Dipole Moment: [D]
     X:     2.0714      Y:     2.7537      Z:     0.2680     Total:     3.4562

*** Psi4 exiting successfully. Buy a developer a beer!
