                               Psi4 1.3.2 release

  ==> Input File <==

--------------------------------------------------------------------------
#psi4
#
memory 32 gb

molecule  {
0 1
  C       -2.1511020    -0.0065270     0.0000480
  C       -0.6578330     0.0187880    -0.0000310
  C        0.1863670     1.1106040    -0.0000190
  C        1.3448400    -0.7705710    -0.0000450
  N        0.0761070    -1.1507890    -0.0000380
  N        1.4605000     0.5893150     0.0000860
  H       -2.5302630    -0.5301450    -0.8821160
  H       -2.5568780     1.0090980    -0.0003890
  H        0.0003360     2.1751570    -0.0003990
  H        2.2046319    -1.4277302    -0.1499810
  H        2.3225060     1.1195640     0.0001590
  H       -2.5302120    -0.5293840     0.8826800
units angstrom
no_reorient  #important for SAPT in psi4, default
symmetry c1  #important for SAPT in psi4, default
}

set PROPERTIES_ORIGIN ["COM"]
properties('MP2/aug-cc-pvtz', properties = ['dipole'])
--------------------------------------------------------------------------

    Molecular point group: c1
  Charge       = 0
  Multiplicity = 1
  Basis Set: AUG-CC-PVTZ
    Blend: AUG-CC-PVTZ
  Basis Set: (AUG-CC-PVTZ AUX)
    Blend: AUG-CC-PVTZ-JKFIT

    Orbital Energies [Eh]
    ---------------------

    Doubly Occupied:

       1A    -15.620246     2A    -15.542310     3A    -11.298287
       4A    -11.254121     5A    -11.248622     6A    -11.215907
       7A     -1.334572     8A     -1.164241     9A     -1.029356
      10A     -0.936749    11A     -0.823297    12A     -0.768833
      13A     -0.734571    14A     -0.617556    15A     -0.604605
      16A     -0.593953    17A     -0.548967    18A     -0.540338
      19A     -0.524694    20A     -0.433487    21A     -0.391403
      22A     -0.309273

  @DF-RHF Final Energy:  -263.94844279457885

   => Energetics <=

    Nuclear Repulsion Energy =            223.7438183972663239
    One-Electron Energy =                -800.3137469990405179
    Two-Electron Energy =                 312.6214858071953699
    Total Energy =                       -263.9484427945788525
  Basis Set: (AUG-CC-PVTZ AUX)
    Blend: AUG-CC-PVTZ-RI
    Molecular point group: c1

    Geometry (in Angstrom), charge = 0, multiplicity = 1:

       Center              X                  Y                   Z               Mass
    ------------   -----------------  -----------------  -----------------  -----------------
         C           -2.188522013387     0.015459488921     0.001889636337    12.000000000000
         C           -0.695253013387     0.040774488921     0.001810636337    12.000000000000
         C            0.148946986613     1.132590488921     0.001822636337    12.000000000000
         C            1.307419986613    -0.748584511079     0.001796636337    12.000000000000
         N            0.038686986613    -1.128802511079     0.001803636337    14.003074004430
         N            1.423079986613     0.611301488921     0.001927636337    14.003074004430
         H           -2.567683013387    -0.508158511079    -0.880274363663     1.007825032230
         H           -2.594298013387     1.031084488921     0.001452636337     1.007825032230
         H           -0.037084013387     2.197143488921     0.001442636337     1.007825032230
         H            2.167211886613    -1.405743711079    -0.148139363663     1.007825032230
         H            2.285085986613     1.141550488921     0.002000636337     1.007825032230
         H           -2.567632013387    -0.507397511079     0.884521636337     1.007825032230

  Basis Set: AUG-CC-PVTZ
    Blend: AUG-CC-PVTZ
  Basis Set: (AUG-CC-PVTZ AUX)
    Blend: AUG-CC-PVTZ-JKFIT
	 Reference Energy          =    -263.9484427945788525 [Eh]
	 Singles Energy            =      -0.0000000000000000 [Eh]
	 Same-Spin Energy          =      -0.2869417234379033 [Eh]
	 Opposite-Spin Energy      =      -0.8970348631834775 [Eh]
	 Correlation Energy        =      -1.1839765866213807 [Eh]
	 Total Energy              =    -265.1324193812002363 [Eh]

	 ================> DF-SCS-MP2 Energies <==================
	-----------------------------------------------------------
	 SCS Same-Spin Scale       =       0.3333333333333333 [-]
	 SCS Opposite-Spin Scale   =       1.2000000000000000 [-]
	 SCS Same-Spin Energy      =      -0.0956472411459677 [Eh]
	 SCS Opposite-Spin Energy  =      -1.0764418358201728 [Eh]
	 SCS Correlation Energy    =      -1.1720890769661405 [Eh]
	 SCS Total Energy          =    -265.1205318715449835 [Eh]
	-----------------------------------------------------------

  Dipole Moment: [D]
     X:     2.0493      Y:     2.8550      Z:    -0.1175     Total:     3.5164

*** Psi4 exiting successfully. Buy a developer a beer!
