                               Psi4 1.3.2 release

  ==> Input File <==

--------------------------------------------------------------------------
#psi4
#
memory 32 gb

molecule  {
0 1
  C       -2.1511020    -0.0065270     0.0000480
  C       -0.6578330     0.0187880    -0.0000310
  C        0.1863670     1.1106040    -0.0000190
  C        1.3448400    -0.7705710    -0.0000450
  N        0.0761070    -1.1507890    -0.0000380
  N        1.4605000     0.5893150     0.0000860
  H       -2.5302630    -0.5301450    -0.8821160
  H       -2.5568780     1.0090980    -0.0003890
  H        0.0003360     2.1751570    -0.0003990
  H        2.2046352    -1.4277257    -0.2499810
  H        2.3225060     1.1195640     0.0001590
  H       -2.5302120    -0.5293840     0.8826800
units angstrom
no_reorient  #important for SAPT in psi4, default
symmetry c1  #important for SAPT in psi4, default
}

set PROPERTIES_ORIGIN ["COM"]
properties('MP2/aug-cc-pvtz', properties = ['dipole'])
--------------------------------------------------------------------------

    Molecular point group: c1
  Charge       = 0
  Multiplicity = 1
  Basis Set: AUG-CC-PVTZ
    Blend: AUG-CC-PVTZ
  Basis Set: (AUG-CC-PVTZ AUX)
    Blend: AUG-CC-PVTZ-JKFIT

    Orbital Energies [Eh]
    ---------------------

    Doubly Occupied:

       1A    -15.620349     2A    -15.542755     3A    -11.299523
       4A    -11.254700     5A    -11.248974     6A    -11.216125
       7A     -1.334747     8A     -1.164484     9A     -1.029250
      10A     -0.936538    11A     -0.822305    12A     -0.768704
      13A     -0.732628    14A     -0.617663    15A     -0.605821
      16A     -0.590259    17A     -0.549185    18A     -0.540028
      19A     -0.524210    20A     -0.433776    21A     -0.391489
      22A     -0.309419

  @DF-RHF Final Energy:  -263.94584201398112

   => Energetics <=

    Nuclear Repulsion Energy =            223.6761600668144752
    One-Electron Energy =                -800.1781394039770703
    Two-Electron Energy =                 312.5561373231814173
    Total Energy =                       -263.9458420139811210
  Basis Set: (AUG-CC-PVTZ AUX)
    Blend: AUG-CC-PVTZ-RI
    Molecular point group: c1

    Geometry (in Angstrom), charge = 0, multiplicity = 1:

       Center              X                  Y                   Z               Mass
    ------------   -----------------  -----------------  -----------------  -----------------
         C           -2.188522053920     0.015459433650     0.003117895909    12.000000000000
         C           -0.695253053920     0.040774433650     0.003038895909    12.000000000000
         C            0.148946946080     1.132590433650     0.003050895909    12.000000000000
         C            1.307419946080    -0.748584566350     0.003024895909    12.000000000000
         N            0.038686946080    -1.128802566350     0.003031895909    14.003074004430
         N            1.423079946080     0.611301433650     0.003155895909    14.003074004430
         H           -2.567683053920    -0.508158566350    -0.879046104091     1.007825032230
         H           -2.594298053920     1.031084433650     0.002680895909     1.007825032230
         H           -0.037084053920     2.197143433650     0.002670895909     1.007825032230
         H            2.167215146080    -1.405739266350    -0.246911104091     1.007825032230
         H            2.285085946080     1.141550433650     0.003228895909     1.007825032230
         H           -2.567632053920    -0.507397566350     0.885749895909     1.007825032230

  Basis Set: AUG-CC-PVTZ
    Blend: AUG-CC-PVTZ
  Basis Set: (AUG-CC-PVTZ AUX)
    Blend: AUG-CC-PVTZ-JKFIT
	 Reference Energy          =    -263.9458420139811210 [Eh]
	 Singles Energy            =      -0.0000000000000000 [Eh]
	 Same-Spin Energy          =      -0.2871414387134355 [Eh]
	 Opposite-Spin Energy      =      -0.8974383783790012 [Eh]
	 Correlation Energy        =      -1.1845798170924366 [Eh]
	 Total Energy              =    -265.1304218310735337 [Eh]

	 ================> DF-SCS-MP2 Energies <==================
	-----------------------------------------------------------
	 SCS Same-Spin Scale       =       0.3333333333333333 [-]
	 SCS Opposite-Spin Scale   =       1.2000000000000000 [-]
	 SCS Same-Spin Energy      =      -0.0957138129044785 [Eh]
	 SCS Opposite-Spin Energy  =      -1.0769260540548014 [Eh]
	 SCS Correlation Energy    =      -1.1726398669592799 [Eh]
	 SCS Total Energy          =    -265.1184818809404078 [Eh]
	-----------------------------------------------------------

  Dipole Moment: [D]
     X:     2.0104      Y:     2.8782      Z:    -0.1937     Total:     3.5161

*** Psi4 exiting successfully. Buy a developer a beer!
