                               Psi4 1.3.2 release

  ==> Input File <==

--------------------------------------------------------------------------
#psi4
#
memory 32 gb

molecule  {
0 1
  C       -2.1511020    -0.0065270     0.0000480
  C       -0.6578330     0.0187880    -0.0000310
  C        0.1863670     1.1106040    -0.0000190
  C        1.3448400    -0.7705710    -0.0000450
  N        0.0761070    -1.1507890    -0.0000380
  N        1.4605000     0.5893150     0.0000860
  H       -2.5302630    -0.5301450    -0.8821160
  H       -2.5568780     1.0090980    -0.0003890
  H        0.0003195     2.1751876     0.1496010
  H        2.2046270    -1.4277370     0.0000190
  H        2.3225060     1.1195640     0.0001590
  H       -2.5302120    -0.5293840     0.8826800
units angstrom
no_reorient  #important for SAPT in psi4, default
symmetry c1  #important for SAPT in psi4, default
}

set PROPERTIES_ORIGIN ["COM"]
properties('MP2/aug-cc-pvtz', properties = ['dipole'])
--------------------------------------------------------------------------

    Molecular point group: c1
  Charge       = 0
  Multiplicity = 1
  Basis Set: AUG-CC-PVTZ
    Blend: AUG-CC-PVTZ
  Basis Set: (AUG-CC-PVTZ AUX)
    Blend: AUG-CC-PVTZ-JKFIT

    Orbital Energies [Eh]
    ---------------------

    Doubly Occupied:

       1A    -15.620155     2A    -15.542237     3A    -11.297928
       4A    -11.254426     5A    -11.248841     6A    -11.215924
       7A     -1.334599     8A     -1.164231     9A     -1.029394
      10A     -0.936793    11A     -0.823980    12A     -0.767672
      13A     -0.735487    14A     -0.617505    15A     -0.605628
      16A     -0.592079    17A     -0.548882    18A     -0.540723
      19A     -0.525066    20A     -0.433422    21A     -0.391455
      22A     -0.309331

  @DF-RHF Final Energy:  -263.94865497886684

   => Energetics <=

    Nuclear Repulsion Energy =            223.7436117772341788
    One-Electron Energy =                -800.3130155081501016
    Two-Electron Energy =                 312.6207487520491100
    Total Energy =                       -263.9486549788668412
  Basis Set: (AUG-CC-PVTZ AUX)
    Blend: AUG-CC-PVTZ-RI
    Molecular point group: c1

    Geometry (in Angstrom), charge = 0, multiplicity = 1:

       Center              X                  Y                   Z               Mass
    ------------   -----------------  -----------------  -----------------  -----------------
         C           -2.188521750540     0.015459196596    -0.001795142377    12.000000000000
         C           -0.695252750540     0.040774196596    -0.001874142377    12.000000000000
         C            0.148947249460     1.132590196596    -0.001862142377    12.000000000000
         C            1.307420249460    -0.748584803404    -0.001888142377    12.000000000000
         N            0.038687249460    -1.128802803404    -0.001881142377    14.003074004430
         N            1.423080249460     0.611301196596    -0.001757142377    14.003074004430
         H           -2.567682750540    -0.508158803404    -0.883959142377     1.007825032230
         H           -2.594297750540     1.031084196596    -0.002232142377     1.007825032230
         H           -0.037100250540     2.197173796596     0.147757857623     1.007825032230
         H            2.167207249460    -1.405750803404    -0.001824142377     1.007825032230
         H            2.285086249460     1.141550196596    -0.001684142377     1.007825032230
         H           -2.567631750540    -0.507397803404     0.880836857623     1.007825032230

  Basis Set: AUG-CC-PVTZ
    Blend: AUG-CC-PVTZ
  Basis Set: (AUG-CC-PVTZ AUX)
    Blend: AUG-CC-PVTZ-JKFIT
	 Reference Energy          =    -263.9486549788668412 [Eh]
	 Singles Energy            =      -0.0000000000000000 [Eh]
	 Same-Spin Energy          =      -0.2868901072326807 [Eh]
	 Opposite-Spin Energy      =      -0.8969526265376325 [Eh]
	 Correlation Energy        =      -1.1838427337703132 [Eh]
	 Total Energy              =    -265.1324977126371323 [Eh]

	 ================> DF-SCS-MP2 Energies <==================
	-----------------------------------------------------------
	 SCS Same-Spin Scale       =       0.3333333333333333 [-]
	 SCS Opposite-Spin Scale   =       1.2000000000000000 [-]
	 SCS Same-Spin Energy      =      -0.0956300357442269 [Eh]
	 SCS Opposite-Spin Energy  =      -1.0763431518451589 [Eh]
	 SCS Correlation Energy    =      -1.1719731875893857 [Eh]
	 SCS Total Energy          =    -265.1206281664562425 [Eh]
	-----------------------------------------------------------

  Dipole Moment: [D]
     X:     2.0715      Y:     2.8191      Z:     0.1369     Total:     3.5010

*** Psi4 exiting successfully. Buy a developer a beer!
