                               Psi4 1.3.2 release

  ==> Input File <==

--------------------------------------------------------------------------
#psi4
#
memory 32 gb

molecule  {
0 1
  C       -2.1511020    -0.0065270     0.0000480
  C       -0.6578330     0.0187880    -0.0000310
  C        0.1863670     1.1106040    -0.0000190
  C        1.3448400    -0.7705710    -0.0000450
  N        0.0761070    -1.1507890    -0.0000380
  N        1.4605000     0.5893150     0.0000860
  H       -2.5302630    -0.5301450    -0.8821160
  H       -2.5568780     1.0090980    -0.0003890
  H        0.0003360     2.1751570    -0.0003990
  H        2.2046270    -1.4277370     0.0000190
  H        2.3224977     1.1195575     0.1001590
  H       -2.5302120    -0.5293840     0.8826800
units angstrom
no_reorient  #important for SAPT in psi4, default
symmetry c1  #important for SAPT in psi4, default
}

set PROPERTIES_ORIGIN ["COM"]
properties('MP2/aug-cc-pvtz', properties = ['dipole'])
--------------------------------------------------------------------------

    Molecular point group: c1
  Charge       = 0
  Multiplicity = 1
  Basis Set: AUG-CC-PVTZ
    Blend: AUG-CC-PVTZ
  Basis Set: (AUG-CC-PVTZ AUX)
    Blend: AUG-CC-PVTZ-JKFIT

    Orbital Energies [Eh]
    ---------------------

    Doubly Occupied:

       1A    -15.620367     2A    -15.542170     3A    -11.297597
       4A    -11.253719     5A    -11.248500     6A    -11.215823
       7A     -1.334310     8A     -1.163697     9A     -1.029450
      10A     -0.936731    11A     -0.822832    12A     -0.768859
      13A     -0.735217    14A     -0.617972    15A     -0.602641
      16A     -0.596529    17A     -0.548979    18A     -0.540235
      19A     -0.524929    20A     -0.433373    21A     -0.391450
      22A     -0.309241

  @DF-RHF Final Energy:  -263.94936055884352

   => Energetics <=

    Nuclear Repulsion Energy =            223.7604255150537824
    One-Electron Energy =                -800.3503300121163875
    Two-Electron Energy =                 312.6405439382191389
    Total Energy =                       -263.9493605588435230
  Basis Set: (AUG-CC-PVTZ AUX)
    Blend: AUG-CC-PVTZ-RI
    Molecular point group: c1

    Geometry (in Angstrom), charge = 0, multiplicity = 1:

       Center              X                  Y                   Z               Mass
    ------------   -----------------  -----------------  -----------------  -----------------
         C           -2.188521851257     0.015459652280    -0.001181012591    12.000000000000
         C           -0.695252851257     0.040774652280    -0.001260012591    12.000000000000
         C            0.148947148743     1.132590652280    -0.001248012591    12.000000000000
         C            1.307420148743    -0.748584347720    -0.001274012591    12.000000000000
         N            0.038687148743    -1.128802347720    -0.001267012591    14.003074004430
         N            1.423080148743     0.611301652280    -0.001143012591    14.003074004430
         H           -2.567682851257    -0.508158347720    -0.883345012591     1.007825032230
         H           -2.594297851257     1.031084652280    -0.001618012591     1.007825032230
         H           -0.037083851257     2.197143652280    -0.001628012591     1.007825032230
         H            2.167207148743    -1.405750347720    -0.001210012591     1.007825032230
         H            2.285077848743     1.141544152280     0.098929987409     1.007825032230
         H           -2.567631851257    -0.507397347720     0.881450987409     1.007825032230

  Basis Set: AUG-CC-PVTZ
    Blend: AUG-CC-PVTZ
  Basis Set: (AUG-CC-PVTZ AUX)
    Blend: AUG-CC-PVTZ-JKFIT
	 Reference Energy          =    -263.9493605588435230 [Eh]
	 Singles Energy            =      -0.0000000000000000 [Eh]
	 Same-Spin Energy          =      -0.2868522658841250 [Eh]
	 Opposite-Spin Energy      =      -0.8968940265010413 [Eh]
	 Correlation Energy        =      -1.1837462923851665 [Eh]
	 Total Energy              =    -265.1331068512287175 [Eh]

	 ================> DF-SCS-MP2 Energies <==================
	-----------------------------------------------------------
	 SCS Same-Spin Scale       =       0.3333333333333333 [-]
	 SCS Opposite-Spin Scale   =       1.2000000000000000 [-]
	 SCS Same-Spin Energy      =      -0.0956174219613750 [Eh]
	 SCS Opposite-Spin Energy  =      -1.0762728318012496 [Eh]
	 SCS Correlation Energy    =      -1.1718902537626246 [Eh]
	 SCS Total Energy          =    -265.1212508126061493 [Eh]
	-----------------------------------------------------------

  Dipole Moment: [D]
     X:     2.0646      Y:     2.8367      Z:     0.1483     Total:     3.5116

*** Psi4 exiting successfully. Buy a developer a beer!
