                               Psi4 1.3.2 release

  ==> Input File <==

--------------------------------------------------------------------------
#psi4
#
memory 32 gb

molecule  {
0 1
  C       -2.1511020    -0.0065270     0.0000480
  C       -0.6578330     0.0187880    -0.0000310
  C        0.1863670     1.1106040    -0.0000190
  C        1.3448400    -0.7705710    -0.0000450
  N        0.0761037    -1.1507880    -0.1000380
  N        1.4605000     0.5893150     0.0000860
  H       -2.5302630    -0.5301450    -0.8821160
  H       -2.5568780     1.0090980    -0.0003890
  H        0.0003360     2.1751570    -0.0003990
  H        2.2046270    -1.4277370     0.0000190
  H        2.3225060     1.1195640     0.0001590
  H       -2.5302120    -0.5293840     0.8826800
units angstrom
no_reorient  #important for SAPT in psi4, default
symmetry c1  #important for SAPT in psi4, default
}

set PROPERTIES_ORIGIN ["COM"]
properties('MP2/aug-cc-pvtz', properties = ['dipole'])
--------------------------------------------------------------------------

    Molecular point group: c1
  Charge       = 0
  Multiplicity = 1
  Basis Set: AUG-CC-PVTZ
    Blend: AUG-CC-PVTZ
  Basis Set: (AUG-CC-PVTZ AUX)
    Blend: AUG-CC-PVTZ-JKFIT

    Orbital Energies [Eh]
    ---------------------

    Doubly Occupied:

       1A    -15.620336     2A    -15.542889     3A    -11.298295
       4A    -11.253894     5A    -11.248882     6A    -11.215838
       7A     -1.333846     8A     -1.163112     9A     -1.029185
      10A     -0.936932    11A     -0.823756    12A     -0.768254
      13A     -0.735689    14A     -0.616928    15A     -0.603565
      16A     -0.596065    17A     -0.549008    18A     -0.540286
      19A     -0.524328    20A     -0.434811    21A     -0.389659
      22A     -0.308895

  @DF-RHF Final Energy:  -263.94735652989385

   => Energetics <=

    Nuclear Repulsion Energy =            223.6603252356139535
    One-Electron Energy =                -800.1464572473473709
    Two-Electron Energy =                 312.5387754818395365
    Total Energy =                       -263.9473565298938524
  Basis Set: (AUG-CC-PVTZ AUX)
    Blend: AUG-CC-PVTZ-RI
    Molecular point group: c1

    Geometry (in Angstrom), charge = 0, multiplicity = 1:

       Center              X                  Y                   Z               Mass
    ------------   -----------------  -----------------  -----------------  -----------------
         C           -2.188521390029     0.015459401784     0.017113115681    12.000000000000
         C           -0.695252390029     0.040774401784     0.017034115681    12.000000000000
         C            0.148947609971     1.132590401784     0.017046115681    12.000000000000
         C            1.307420609971    -0.748584598216     0.017020115681    12.000000000000
         N            0.038684309971    -1.128801598216    -0.082972884319    14.003074004430
         N            1.423080609971     0.611301401784     0.017151115681    14.003074004430
         H           -2.567682390029    -0.508158598216    -0.865050884319     1.007825032230
         H           -2.594297390029     1.031084401784     0.016676115681     1.007825032230
         H           -0.037083390029     2.197143401784     0.016666115681     1.007825032230
         H            2.167207609971    -1.405750598216     0.017084115681     1.007825032230
         H            2.285086609971     1.141550401784     0.017224115681     1.007825032230
         H           -2.567631390029    -0.507397598216     0.899745115681     1.007825032230

  Basis Set: AUG-CC-PVTZ
    Blend: AUG-CC-PVTZ
  Basis Set: (AUG-CC-PVTZ AUX)
    Blend: AUG-CC-PVTZ-JKFIT
	 Reference Energy          =    -263.9473565298938524 [Eh]
	 Singles Energy            =      -0.0000000000000000 [Eh]
	 Same-Spin Energy          =      -0.2869317751092368 [Eh]
	 Opposite-Spin Energy      =      -0.8971778006414362 [Eh]
	 Correlation Energy        =      -1.1841095757506730 [Eh]
	 Total Energy              =    -265.1314661056445061 [Eh]

	 ================> DF-SCS-MP2 Energies <==================
	-----------------------------------------------------------
	 SCS Same-Spin Scale       =       0.3333333333333333 [-]
	 SCS Opposite-Spin Scale   =       1.2000000000000000 [-]
	 SCS Same-Spin Energy      =      -0.0956439250364123 [Eh]
	 SCS Opposite-Spin Energy  =      -1.0766133607697232 [Eh]
	 SCS Correlation Energy    =      -1.1722572858061355 [Eh]
	 SCS Total Energy          =    -265.1196138157000064 [Eh]
	-----------------------------------------------------------

  Dipole Moment: [D]
     X:     2.0694      Y:     2.8461      Z:     0.1341     Total:     3.5214

*** Psi4 exiting successfully. Buy a developer a beer!
