                               Psi4 1.3.2 release

  ==> Input File <==

--------------------------------------------------------------------------
#psi4
#
memory 32 gb

molecule  {
0 1
  C       -2.1511020    -0.0065270     0.0000480
  C       -0.6578330     0.0187880    -0.0000310
  C        0.1863670     1.1106040    -0.0000190
  C        1.3448400    -0.7705710    -0.0000450
  N        0.0761070    -1.1507890    -0.0000380
  N        1.4605000     0.5893150     0.0000860
  H       -2.5302630    -0.5301450    -0.8821160
  H       -2.5568780     1.0090980    -0.0003890
  H        0.0003360     2.1751570    -0.0003990
  H        2.2046270    -1.4277370     0.0000190
  H        2.3225018     1.1195608     0.0501590
  H       -2.5302120    -0.5293840     0.8826800
units angstrom
no_reorient  #important for SAPT in psi4, default
symmetry c1  #important for SAPT in psi4, default
}

set PROPERTIES_ORIGIN ["COM"]
properties('MP2/aug-cc-pvtz', properties = ['dipole'])
--------------------------------------------------------------------------

    Molecular point group: c1
  Charge       = 0
  Multiplicity = 1
  Basis Set: AUG-CC-PVTZ
    Blend: AUG-CC-PVTZ
  Basis Set: (AUG-CC-PVTZ AUX)
    Blend: AUG-CC-PVTZ-JKFIT

    Orbital Energies [Eh]
    ---------------------

    Doubly Occupied:

       1A    -15.620237     2A    -15.542085     3A    -11.297585
       4A    -11.253771     5A    -11.248441     6A    -11.215793
       7A     -1.334433     8A     -1.164001     9A     -1.029435
      10A     -0.936848    11A     -0.823644    12A     -0.768914
      13A     -0.735582    14A     -0.617590    15A     -0.603203
      16A     -0.596603    17A     -0.548877    18A     -0.540443
      19A     -0.524926    20A     -0.433331    21A     -0.391379
      22A     -0.309205

  @DF-RHF Final Energy:  -263.94967389440012

   => Energetics <=

    Nuclear Repulsion Energy =            223.7773496251063534
    One-Electron Energy =                -800.3813930174814004
    Two-Electron Energy =                 312.6543694979749262
    Total Energy =                       -263.9496738944001208
  Basis Set: (AUG-CC-PVTZ AUX)
    Blend: AUG-CC-PVTZ-RI
    Molecular point group: c1

    Geometry (in Angstrom), charge = 0, multiplicity = 1:

       Center              X                  Y                   Z               Mass
    ------------   -----------------  -----------------  -----------------  -----------------
         C           -2.188521901615     0.015459611747    -0.000566882805    12.000000000000
         C           -0.695252901615     0.040774611747    -0.000645882805    12.000000000000
         C            0.148947098385     1.132590611747    -0.000633882805    12.000000000000
         C            1.307420098385    -0.748584388253    -0.000659882805    12.000000000000
         N            0.038687098385    -1.128802388253    -0.000652882805    14.003074004430
         N            1.423080098385     0.611301611747    -0.000528882805    14.003074004430
         H           -2.567682901615    -0.508158388253    -0.882730882805     1.007825032230
         H           -2.594297901615     1.031084611747    -0.001003882805     1.007825032230
         H           -0.037083901615     2.197143611747    -0.001013882805     1.007825032230
         H            2.167207098385    -1.405750388253    -0.000595882805     1.007825032230
         H            2.285081898385     1.141547411747     0.049544117195     1.007825032230
         H           -2.567631901615    -0.507397388253     0.882065117195     1.007825032230

  Basis Set: AUG-CC-PVTZ
    Blend: AUG-CC-PVTZ
  Basis Set: (AUG-CC-PVTZ AUX)
    Blend: AUG-CC-PVTZ-JKFIT
	 Reference Energy          =    -263.9496738944001208 [Eh]
	 Singles Energy            =      -0.0000000000000000 [Eh]
	 Same-Spin Energy          =      -0.2868334461743156 [Eh]
	 Opposite-Spin Energy      =      -0.8968392956968544 [Eh]
	 Correlation Energy        =      -1.1836727418711699 [Eh]
	 Total Energy              =    -265.1333466362713125 [Eh]

	 ================> DF-SCS-MP2 Energies <==================
	-----------------------------------------------------------
	 SCS Same-Spin Scale       =       0.3333333333333333 [-]
	 SCS Opposite-Spin Scale   =       1.2000000000000000 [-]
	 SCS Same-Spin Energy      =      -0.0956111487247719 [Eh]
	 SCS Opposite-Spin Energy  =      -1.0762071548362253 [Eh]
	 SCS Correlation Energy    =      -1.1718183035609973 [Eh]
	 SCS Total Energy          =    -265.1214921979611177 [Eh]
	-----------------------------------------------------------

  Dipole Moment: [D]
     X:     2.0700      Y:     2.8405      Z:     0.0742     Total:     3.5155

*** Psi4 exiting successfully. Buy a developer a beer!
