                               Psi4 1.3.2 release

  ==> Input File <==

--------------------------------------------------------------------------
#psi4
#
memory 32 gb

molecule  {
0 1
  C       -2.1511020    -0.0065270     0.0000480
  C       -0.6578330     0.0187880    -0.0000310
  C        0.1863670     1.1106040    -0.0000190
  C        1.3448400    -0.7705710    -0.0000450
  N        0.0761070    -1.1507890    -0.0000380
  N        1.4605000     0.5893150     0.0000860
  H       -2.5302630    -0.5301450    -0.8821160
  H       -2.5568780     1.0090980    -0.0003890
  H        0.0003084     2.1752081     0.2496010
  H        2.2046270    -1.4277370     0.0000190
  H        2.3225060     1.1195640     0.0001590
  H       -2.5302120    -0.5293840     0.8826800
units angstrom
no_reorient  #important for SAPT in psi4, default
symmetry c1  #important for SAPT in psi4, default
}

set PROPERTIES_ORIGIN ["COM"]
properties('MP2/aug-cc-pvtz', properties = ['dipole'])
--------------------------------------------------------------------------

    Molecular point group: c1
  Charge       = 0
  Multiplicity = 1
  Basis Set: AUG-CC-PVTZ
    Blend: AUG-CC-PVTZ
  Basis Set: (AUG-CC-PVTZ AUX)
    Blend: AUG-CC-PVTZ-JKFIT

    Orbital Energies [Eh]
    ---------------------

    Doubly Occupied:

       1A    -15.620101     2A    -15.542556     3A    -11.298536
       4A    -11.255547     5A    -11.249575     6A    -11.216168
       7A     -1.334823     8A     -1.164459     9A     -1.029348
      10A     -0.936648    11A     -0.824098    12A     -0.765653
      13A     -0.735081    14A     -0.617595    15A     -0.607433
      16A     -0.586194    17A     -0.548923    18A     -0.541088
      19A     -0.525308    20A     -0.433603    21A     -0.391632
      22A     -0.309577

  @DF-RHF Final Energy:  -263.94641329440776

   => Energetics <=

    Nuclear Repulsion Energy =            223.6755585453312278
    One-Electron Energy =                -800.1760515319599563
    Two-Electron Energy =                 312.5540796922209665
    Total Energy =                       -263.9464132944077619
  Basis Set: (AUG-CC-PVTZ AUX)
    Blend: AUG-CC-PVTZ-RI
    Molecular point group: c1

    Geometry (in Angstrom), charge = 0, multiplicity = 1:

       Center              X                  Y                   Z               Mass
    ------------   -----------------  -----------------  -----------------  -----------------
         C           -2.188521614203     0.015458944802    -0.003023401948    12.000000000000
         C           -0.695252614203     0.040773944802    -0.003102401948    12.000000000000
         C            0.148947385797     1.132589944802    -0.003090401948    12.000000000000
         C            1.307420385797    -0.748585055198    -0.003116401948    12.000000000000
         N            0.038687385797    -1.128803055198    -0.003109401948    14.003074004430
         N            1.423080385797     0.611300944802    -0.002985401948    14.003074004430
         H           -2.567682614203    -0.508159055198    -0.885187401948     1.007825032230
         H           -2.594297614203     1.031083944802    -0.003460401948     1.007825032230
         H           -0.037111214203     2.197194044802     0.246529598052     1.007825032230
         H            2.167207385797    -1.405751055198    -0.003052401948     1.007825032230
         H            2.285086385797     1.141549944802    -0.002912401948     1.007825032230
         H           -2.567631614203    -0.507398055198     0.879608598052     1.007825032230

  Basis Set: AUG-CC-PVTZ
    Blend: AUG-CC-PVTZ
  Basis Set: (AUG-CC-PVTZ AUX)
    Blend: AUG-CC-PVTZ-JKFIT
	 Reference Energy          =    -263.9464132944077619 [Eh]
	 Singles Energy            =      -0.0000000000000000 [Eh]
	 Same-Spin Energy          =      -0.2869993939764504 [Eh]
	 Opposite-Spin Energy      =      -0.8972082914987598 [Eh]
	 Correlation Energy        =      -1.1842076854752102 [Eh]
	 Total Energy              =    -265.1306209798829627 [Eh]

	 ================> DF-SCS-MP2 Energies <==================
	-----------------------------------------------------------
	 SCS Same-Spin Scale       =       0.3333333333333333 [-]
	 SCS Opposite-Spin Scale   =       1.2000000000000000 [-]
	 SCS Same-Spin Energy      =      -0.0956664646588168 [Eh]
	 SCS Opposite-Spin Energy  =      -1.0766499497985118 [Eh]
	 SCS Correlation Energy    =      -1.1723164144573286 [Eh]
	 SCS Total Energy          =    -265.1187297088650894 [Eh]
	-----------------------------------------------------------

  Dipole Moment: [D]
     X:     2.0713      Y:     2.7799      Z:     0.2253     Total:     3.4740

*** Psi4 exiting successfully. Buy a developer a beer!
