                               Psi4 1.3.2 release

  ==> Input File <==

--------------------------------------------------------------------------
#psi4
#
memory 32 gb

molecule  {
0 1
  C       -2.1511020    -0.0065270     0.0000480
  C       -0.6578330     0.0187880    -0.0000310
  C        0.1863670     1.1106040    -0.0000190
  C        1.3448400    -0.7705710    -0.0000450
  N        0.0761020    -1.1507875    -0.1500380
  N        1.4605000     0.5893150     0.0000860
  H       -2.5302630    -0.5301450    -0.8821160
  H       -2.5568780     1.0090980    -0.0003890
  H        0.0003360     2.1751570    -0.0003990
  H        2.2046270    -1.4277370     0.0000190
  H        2.3225060     1.1195640     0.0001590
  H       -2.5302120    -0.5293840     0.8826800
units angstrom
no_reorient  #important for SAPT in psi4, default
symmetry c1  #important for SAPT in psi4, default
}

set PROPERTIES_ORIGIN ["COM"]
properties('MP2/aug-cc-pvtz', properties = ['dipole'])
--------------------------------------------------------------------------

    Molecular point group: c1
  Charge       = 0
  Multiplicity = 1
  Basis Set: AUG-CC-PVTZ
    Blend: AUG-CC-PVTZ
  Basis Set: (AUG-CC-PVTZ AUX)
    Blend: AUG-CC-PVTZ-JKFIT

    Orbital Energies [Eh]
    ---------------------

    Doubly Occupied:

       1A    -15.620512     2A    -15.543921     3A    -11.299180
       4A    -11.254028     5A    -11.249450     6A    -11.215905
       7A     -1.333079     8A     -1.161865     9A     -1.028884
      10A     -0.936986    11A     -0.823581    12A     -0.767414
      13A     -0.735670    14A     -0.616293    15A     -0.603720
      16A     -0.595410    17A     -0.549194    18A     -0.540035
      19A     -0.523560    20A     -0.436511    21A     -0.387700
      22A     -0.308528

  @DF-RHF Final Energy:  -263.94430910791692

   => Energetics <=

    Nuclear Repulsion Energy =            223.5081411099279762
    One-Electron Energy =                -799.8420494826971208
    Two-Electron Energy =                 312.3895992648522792
    Total Energy =                       -263.9443091079169221
  Basis Set: (AUG-CC-PVTZ AUX)
    Blend: AUG-CC-PVTZ-RI
    Molecular point group: c1

    Geometry (in Angstrom), charge = 0, multiplicity = 1:

       Center              X                  Y                   Z               Mass
    ------------   -----------------  -----------------  -----------------  -----------------
         C           -2.188521099909     0.015459316455     0.025646050032    12.000000000000
         C           -0.695252099909     0.040774316455     0.025567050032    12.000000000000
         C            0.148947900091     1.132590316455     0.025579050032    12.000000000000
         C            1.307420900091    -0.748584683545     0.025553050032    12.000000000000
         N            0.038682900091    -1.128801183545    -0.124439949968    14.003074004430
         N            1.423080900091     0.611301316455     0.025684050032    14.003074004430
         H           -2.567682099909    -0.508158683545    -0.856517949968     1.007825032230
         H           -2.594297099909     1.031084316455     0.025209050032     1.007825032230
         H           -0.037083099909     2.197143316455     0.025199050032     1.007825032230
         H            2.167207900091    -1.405750683545     0.025617050032     1.007825032230
         H            2.285086900091     1.141550316455     0.025757050032     1.007825032230
         H           -2.567631099909    -0.507397683545     0.908278050032     1.007825032230

  Basis Set: AUG-CC-PVTZ
    Blend: AUG-CC-PVTZ
  Basis Set: (AUG-CC-PVTZ AUX)
    Blend: AUG-CC-PVTZ-JKFIT
	 Reference Energy          =    -263.9443091079169221 [Eh]
	 Singles Energy            =      -0.0000000000000000 [Eh]
	 Same-Spin Energy          =      -0.2870645706942225 [Eh]
	 Opposite-Spin Energy      =      -0.8976399038870727 [Eh]
	 Correlation Energy        =      -1.1847044745812951 [Eh]
	 Total Energy              =    -265.1290135824982030 [Eh]

	 ================> DF-SCS-MP2 Energies <==================
	-----------------------------------------------------------
	 SCS Same-Spin Scale       =       0.3333333333333333 [-]
	 SCS Opposite-Spin Scale   =       1.2000000000000000 [-]
	 SCS Same-Spin Energy      =      -0.0956881902314075 [Eh]
	 SCS Opposite-Spin Energy  =      -1.0771678846644872 [Eh]
	 SCS Correlation Energy    =      -1.1728560748958947 [Eh]
	 SCS Total Energy          =    -265.1171651828128120 [Eh]
	-----------------------------------------------------------

  Dipole Moment: [D]
     X:     2.0663      Y:     2.8514      Z:     0.2007     Total:     3.5271

*** Psi4 exiting successfully. Buy a developer a beer!
