                               Psi4 1.3.2 release

  ==> Input File <==

--------------------------------------------------------------------------
#psi4
#
memory 32 gb

molecule  {
0 1
  C       -2.1511020    -0.0065270     0.0000480
  C       -0.6578330     0.0187880    -0.0000310
  C        0.1863670     1.1106040    -0.0000190
  C        1.3448400    -0.7705710    -0.0000450
  N        0.0761070    -1.1507890    -0.0000380
  N        1.4605000     0.5893150     0.0000860
  H       -2.5302630    -0.5301450    -0.8821160
  H       -2.5568780     1.0090980    -0.0003890
  H        0.0003360     2.1751570    -0.0003990
  H        2.2046270    -1.4277370     0.0000190
  H        2.3224894     1.1195510     0.2001590
  H       -2.5302120    -0.5293840     0.8826800
units angstrom
no_reorient  #important for SAPT in psi4, default
symmetry c1  #important for SAPT in psi4, default
}

set PROPERTIES_ORIGIN ["COM"]
properties('MP2/aug-cc-pvtz', properties = ['dipole'])
--------------------------------------------------------------------------

    Molecular point group: c1
  Charge       = 0
  Multiplicity = 1
  Basis Set: AUG-CC-PVTZ
    Blend: AUG-CC-PVTZ
  Basis Set: (AUG-CC-PVTZ AUX)
    Blend: AUG-CC-PVTZ-JKFIT

    Orbital Energies [Eh]
    ---------------------

    Doubly Occupied:

       1A    -15.620879     2A    -15.542500     3A    -11.297648
       4A    -11.253523     5A    -11.248733     6A    -11.215943
       7A     -1.333841     8A     -1.162528     9A     -1.029510
      10A     -0.936294    11A     -0.819727    12A     -0.768639
      13A     -0.733725    14A     -0.619164    15A     -0.600768
      16A     -0.596190    17A     -0.549348    18A     -0.539447
      19A     -0.524925    20A     -0.433535    21A     -0.391724
      22A     -0.309381

  @DF-RHF Final Energy:  -263.94792767064774

   => Energetics <=

    Nuclear Repulsion Energy =            223.6941992587944981
    One-Electron Energy =                -800.2283081385037349
    Two-Electron Energy =                 312.5861812090615217
    Total Energy =                       -263.9479276706477435
  Basis Set: (AUG-CC-PVTZ AUX)
    Blend: AUG-CC-PVTZ-RI
    Molecular point group: c1

    Geometry (in Angstrom), charge = 0, multiplicity = 1:

       Center              X                  Y                   Z               Mass
    ------------   -----------------  -----------------  -----------------  -----------------
         C           -2.188521749311     0.015459732117    -0.002409272162    12.000000000000
         C           -0.695252749311     0.040774732117    -0.002488272162    12.000000000000
         C            0.148947250689     1.132590732117    -0.002476272162    12.000000000000
         C            1.307420250689    -0.748584267883    -0.002502272162    12.000000000000
         N            0.038687250689    -1.128802267883    -0.002495272162    14.003074004430
         N            1.423080250689     0.611301732117    -0.002371272162    14.003074004430
         H           -2.567682749311    -0.508158267883    -0.884573272162     1.007825032230
         H           -2.594297749311     1.031084732117    -0.002846272162     1.007825032230
         H           -0.037083749311     2.197143732117    -0.002856272162     1.007825032230
         H            2.167207250689    -1.405750267883    -0.002438272162     1.007825032230
         H            2.285069650689     1.141537732117     0.197701727838     1.007825032230
         H           -2.567631749311    -0.507397267883     0.880222727838     1.007825032230

  Basis Set: AUG-CC-PVTZ
    Blend: AUG-CC-PVTZ
  Basis Set: (AUG-CC-PVTZ AUX)
    Blend: AUG-CC-PVTZ-JKFIT
	 Reference Energy          =    -263.9479276706477435 [Eh]
	 Singles Energy            =      -0.0000000000000000 [Eh]
	 Same-Spin Energy          =      -0.2869277745409652 [Eh]
	 Opposite-Spin Energy      =      -0.8971227748399628 [Eh]
	 Correlation Energy        =      -1.1840505493809279 [Eh]
	 Total Energy              =    -265.1319782200286568 [Eh]

	 ================> DF-SCS-MP2 Energies <==================
	-----------------------------------------------------------
	 SCS Same-Spin Scale       =       0.3333333333333333 [-]
	 SCS Opposite-Spin Scale   =       1.2000000000000000 [-]
	 SCS Same-Spin Energy      =      -0.0956425915136551 [Eh]
	 SCS Opposite-Spin Energy  =      -1.0765473298079553 [Eh]
	 SCS Correlation Energy    =      -1.1721899213216105 [Eh]
	 SCS Total Energy          =    -265.1201175919693469 [Eh]
	-----------------------------------------------------------

  Dipole Moment: [D]
     X:     2.0435      Y:     2.8218      Z:     0.2951     Total:     3.4965

*** Psi4 exiting successfully. Buy a developer a beer!
