                               Psi4 1.3.2 release

  ==> Input File <==

--------------------------------------------------------------------------
#psi4
#
memory 32 gb

molecule  {
0 1
  C       -2.1511020    -0.0065270     0.0000480
  C       -0.6578330     0.0187880    -0.0000310
  C        0.1863670     1.1106040    -0.0000190
  C        1.3448400    -0.7705710    -0.0000450
  N        0.0760970    -1.1507860    -0.3000380
  N        1.4605000     0.5893150     0.0000860
  H       -2.5302630    -0.5301450    -0.8821160
  H       -2.5568780     1.0090980    -0.0003890
  H        0.0003360     2.1751570    -0.0003990
  H        2.2046270    -1.4277370     0.0000190
  H        2.3225060     1.1195640     0.0001590
  H       -2.5302120    -0.5293840     0.8826800
units angstrom
no_reorient  #important for SAPT in psi4, default
symmetry c1  #important for SAPT in psi4, default
}

set PROPERTIES_ORIGIN ["COM"]
properties('MP2/aug-cc-pvtz', properties = ['dipole'])
--------------------------------------------------------------------------

    Molecular point group: c1
  Charge       = 0
  Multiplicity = 1
  Basis Set: AUG-CC-PVTZ
    Blend: AUG-CC-PVTZ
  Basis Set: (AUG-CC-PVTZ AUX)
    Blend: AUG-CC-PVTZ-JKFIT

    Orbital Energies [Eh]
    ---------------------

    Doubly Occupied:

       1A    -15.621459     2A    -15.549303     3A    -11.303790
       4A    -11.254805     5A    -11.252314     6A    -11.216235
       7A     -1.329284     8A     -1.155001     9A     -1.027343
      10A     -0.937269    11A     -0.823085    12A     -0.763083
      13A     -0.735569    14A     -0.613310    15A     -0.603943
      16A     -0.592353    17A     -0.549928    18A     -0.539106
      19A     -0.519067    20A     -0.443594    21A     -0.379103
      22A     -0.306623

  @DF-RHF Final Energy:  -263.92744603175402

   => Energetics <=

    Nuclear Repulsion Energy =            222.7077055635112970
    One-Electron Energy =                -798.2391677763207554
    Two-Electron Energy =                 311.6040161810553855
    Total Energy =                       -263.9274460317540161
  Basis Set: (AUG-CC-PVTZ AUX)
    Blend: AUG-CC-PVTZ-RI
    Molecular point group: c1

    Geometry (in Angstrom), charge = 0, multiplicity = 1:

       Center              X                  Y                   Z               Mass
    ------------   -----------------  -----------------  -----------------  -----------------
         C           -2.188520246616     0.015459060467     0.051244853084    12.000000000000
         C           -0.695251246616     0.040774060467     0.051165853084    12.000000000000
         C            0.148948753384     1.132590060467     0.051177853084    12.000000000000
         C            1.307421753384    -0.748584939533     0.051151853084    12.000000000000
         N            0.038678753384    -1.128799939533    -0.248841146916    14.003074004430
         N            1.423081753384     0.611301060467     0.051282853084    14.003074004430
         H           -2.567681246616    -0.508158939533    -0.830919146916     1.007825032230
         H           -2.594296246616     1.031084060467     0.050807853084     1.007825032230
         H           -0.037082246616     2.197143060467     0.050797853084     1.007825032230
         H            2.167208753384    -1.405750939533     0.051215853084     1.007825032230
         H            2.285087753384     1.141550060467     0.051355853084     1.007825032230
         H           -2.567630246616    -0.507397939533     0.933876853084     1.007825032230

  Basis Set: AUG-CC-PVTZ
    Blend: AUG-CC-PVTZ
  Basis Set: (AUG-CC-PVTZ AUX)
    Blend: AUG-CC-PVTZ-JKFIT
	 Reference Energy          =    -263.9274460317540161 [Eh]
	 Singles Energy            =      -0.0000000000000000 [Eh]
	 Same-Spin Energy          =      -0.2878126088515930 [Eh]
	 Opposite-Spin Energy      =      -0.9002659513036875 [Eh]
	 Correlation Energy        =      -1.1880785601552806 [Eh]
	 Total Energy              =    -265.1155245919093204 [Eh]

	 ================> DF-SCS-MP2 Energies <==================
	-----------------------------------------------------------
	 SCS Same-Spin Scale       =       0.3333333333333333 [-]
	 SCS Opposite-Spin Scale   =       1.2000000000000000 [-]
	 SCS Same-Spin Energy      =      -0.0959375362838643 [Eh]
	 SCS Opposite-Spin Energy  =      -1.0803191415644249 [Eh]
	 SCS Correlation Energy    =      -1.1762566778482892 [Eh]
	 SCS Total Energy          =    -265.1037027096023166 [Eh]
	-----------------------------------------------------------

  Dipole Moment: [D]
     X:     2.0488      Y:     2.8781      Z:     0.3958     Total:     3.5550

*** Psi4 exiting successfully. Buy a developer a beer!
