                               Psi4 1.3.2 release

  ==> Input File <==

--------------------------------------------------------------------------
#psi4
#
memory 32 gb

molecule  {
0 1
  C       -2.1511020    -0.0065270     0.0000480
  C       -0.6578330     0.0187880    -0.0000310
  C        0.1863670     1.1106040    -0.0000190
  C        1.3448400    -0.7705710    -0.0000450
  N        0.0761070    -1.1507890    -0.0000380
  N        1.4605000     0.5893150     0.0000860
  H       -2.5302630    -0.5301450    -0.8821160
  H       -2.5568780     1.0090980    -0.0003890
  H        0.0003360     2.1751570    -0.0003990
  H        2.2046270    -1.4277370     0.0000190
  H        2.3225060     1.1195640     0.0001590
  H       -2.5302120    -0.5293840     0.8826800
units angstrom
no_reorient  #important for SAPT in psi4, default
symmetry c1  #important for SAPT in psi4, default
}

set PROPERTIES_ORIGIN ["COM"]
properties('MP2/aug-cc-pvtz', properties = ['dipole'])
--------------------------------------------------------------------------

    Molecular point group: c1
  Charge       = 0
  Multiplicity = 1
  Basis Set: AUG-CC-PVTZ
    Blend: AUG-CC-PVTZ
  Basis Set: (AUG-CC-PVTZ AUX)
    Blend: AUG-CC-PVTZ-JKFIT

    Orbital Energies [Eh]
    ---------------------

    Doubly Occupied:

       1A    -15.620194     2A    -15.542057     3A    -11.297580
       4A    -11.253788     5A    -11.248421     6A    -11.215783
       7A     -1.334475     8A     -1.164104     9A     -1.029430
      10A     -0.936888    11A     -0.823918    12A     -0.768933
      13A     -0.735703    14A     -0.617452    15A     -0.603401
      16A     -0.596628    17A     -0.548842    18A     -0.540513
      19A     -0.524925    20A     -0.433317    21A     -0.391356
      22A     -0.309193

  @DF-RHF Final Energy:  -263.94977429059492

   => Energetics <=

    Nuclear Repulsion Energy =            223.7830199062856593
    One-Electron Energy =                -800.3917887710924788
    Two-Electron Energy =                 312.6589945742119312
    Total Energy =                       -263.9497742905949167
  Basis Set: (AUG-CC-PVTZ AUX)
    Blend: AUG-CC-PVTZ-RI
    Molecular point group: c1

    Geometry (in Angstrom), charge = 0, multiplicity = 1:

       Center              X                  Y                   Z               Mass
    ------------   -----------------  -----------------  -----------------  -----------------
         C           -2.188521953202     0.015459572443     0.000047246980    12.000000000000
         C           -0.695252953202     0.040774572443    -0.000031753020    12.000000000000
         C            0.148947046798     1.132590572443    -0.000019753020    12.000000000000
         C            1.307420046798    -0.748584427557    -0.000045753020    12.000000000000
         N            0.038687046798    -1.128802427557    -0.000038753020    14.003074004430
         N            1.423080046798     0.611301572443     0.000085246980    14.003074004430
         H           -2.567682953202    -0.508158427557    -0.882116753020     1.007825032230
         H           -2.594297953202     1.031084572443    -0.000389753020     1.007825032230
         H           -0.037083953202     2.197143572443    -0.000399753020     1.007825032230
         H            2.167207046798    -1.405750427557     0.000018246980     1.007825032230
         H            2.285086046798     1.141550572443     0.000158246980     1.007825032230
         H           -2.567631953202    -0.507397427557     0.882679246980     1.007825032230

  Basis Set: AUG-CC-PVTZ
    Blend: AUG-CC-PVTZ
  Basis Set: (AUG-CC-PVTZ AUX)
    Blend: AUG-CC-PVTZ-JKFIT
	 Reference Energy          =    -263.9497742905949167 [Eh]
	 Singles Energy            =      -0.0000000000000000 [Eh]
	 Same-Spin Energy          =      -0.2868271913686808 [Eh]
	 Opposite-Spin Energy      =      -0.8968213318823354 [Eh]
	 Correlation Energy        =      -1.1836485232510161 [Eh]
	 Total Energy              =    -265.1334228138459252 [Eh]

	 ================> DF-SCS-MP2 Energies <==================
	-----------------------------------------------------------
	 SCS Same-Spin Scale       =       0.3333333333333333 [-]
	 SCS Opposite-Spin Scale   =       1.2000000000000000 [-]
	 SCS Same-Spin Energy      =      -0.0956090637895603 [Eh]
	 SCS Opposite-Spin Energy  =      -1.0761855982588024 [Eh]
	 SCS Correlation Energy    =      -1.1717946620483628 [Eh]
	 SCS Total Energy          =    -265.1215689526432584 [Eh]
	-----------------------------------------------------------

  Dipole Moment: [D]
     X:     2.0718      Y:     2.8417      Z:    -0.0001     Total:     3.5168

*** Psi4 exiting successfully. Buy a developer a beer!
