                               Psi4 1.3.2 release

  ==> Input File <==

--------------------------------------------------------------------------
#psi4
#
memory 32 gb

molecule  {
0 1
  C       -2.1511020    -0.0065270     0.0000480
  C       -0.6578330     0.0187880    -0.0000310
  C        0.1863670     1.1106040    -0.0000190
  C        1.3448400    -0.7705710    -0.0000450
  N        0.0761070    -1.1507890    -0.0000380
  N        1.4605000     0.5893150     0.0000860
  H       -2.5302630    -0.5301450    -0.8821160
  H       -2.5568780     1.0090980    -0.0003890
  H        0.0003360     2.1751570    -0.0003990
  H        2.2046270    -1.4277370     0.0000190
  H        2.3224811     1.1195445     0.3001590
  H       -2.5302120    -0.5293840     0.8826800
units angstrom
no_reorient  #important for SAPT in psi4, default
symmetry c1  #important for SAPT in psi4, default
}

set PROPERTIES_ORIGIN ["COM"]
properties('MP2/aug-cc-pvtz', properties = ['dipole'])
--------------------------------------------------------------------------

    Molecular point group: c1
  Charge       = 0
  Multiplicity = 1
  Basis Set: AUG-CC-PVTZ
    Blend: AUG-CC-PVTZ
  Basis Set: (AUG-CC-PVTZ AUX)
    Blend: AUG-CC-PVTZ-JKFIT

    Orbital Energies [Eh]
    ---------------------

    Doubly Occupied:

       1A    -15.621708     2A    -15.543024     3A    -11.297734
       4A    -11.253224     5A    -11.249102     6A    -11.216134
       7A     -1.333133     8A     -1.160738     9A     -1.029612
      10A     -0.935664    11A     -0.815063    12A     -0.768267
      13A     -0.731142    14A     -0.620415    15A     -0.598642
      16A     -0.595350    17A     -0.549858    18A     -0.538259
      19A     -0.524861    20A     -0.433788    21A     -0.392161
      22A     -0.309605

  @DF-RHF Final Energy:  -263.94498539698662

   => Energetics <=

    Nuclear Repulsion Energy =            223.5887572546292859
    One-Electron Energy =                -800.0325182714764196
    Two-Electron Energy =                 312.4987756198605098
    Total Energy =                       -263.9449853969866240
  Basis Set: (AUG-CC-PVTZ AUX)
    Blend: AUG-CC-PVTZ-RI
    Molecular point group: c1

    Geometry (in Angstrom), charge = 0, multiplicity = 1:

       Center              X                  Y                   Z               Mass
    ------------   -----------------  -----------------  -----------------  -----------------
         C           -2.188521647366     0.015459811954    -0.003637531734    12.000000000000
         C           -0.695252647366     0.040774811954    -0.003716531734    12.000000000000
         C            0.148947352634     1.132590811954    -0.003704531734    12.000000000000
         C            1.307420352634    -0.748584188046    -0.003730531734    12.000000000000
         N            0.038687352634    -1.128802188046    -0.003723531734    14.003074004430
         N            1.423080352634     0.611301811954    -0.003599531734    14.003074004430
         H           -2.567682647366    -0.508158188046    -0.885801531734     1.007825032230
         H           -2.594297647366     1.031084811954    -0.004074531734     1.007825032230
         H           -0.037083647366     2.197143811954    -0.004084531734     1.007825032230
         H            2.167207352634    -1.405750188046    -0.003666531734     1.007825032230
         H            2.285061452634     1.141531311954     0.296473468266     1.007825032230
         H           -2.567631647366    -0.507397188046     0.878994468266     1.007825032230

  Basis Set: AUG-CC-PVTZ
    Blend: AUG-CC-PVTZ
  Basis Set: (AUG-CC-PVTZ AUX)
    Blend: AUG-CC-PVTZ-JKFIT
	 Reference Energy          =    -263.9449853969866240 [Eh]
	 Singles Energy            =      -0.0000000000000000 [Eh]
	 Same-Spin Energy          =      -0.2870536185158503 [Eh]
	 Opposite-Spin Energy      =      -0.8975266612055089 [Eh]
	 Correlation Energy        =      -1.1845802797213594 [Eh]
	 Total Energy              =    -265.1295656767080118 [Eh]

	 ================> DF-SCS-MP2 Energies <==================
	-----------------------------------------------------------
	 SCS Same-Spin Scale       =       0.3333333333333333 [-]
	 SCS Opposite-Spin Scale   =       1.2000000000000000 [-]
	 SCS Same-Spin Energy      =      -0.0956845395052834 [Eh]
	 SCS Opposite-Spin Energy  =      -1.0770319934466106 [Eh]
	 SCS Correlation Energy    =      -1.1727165329518940 [Eh]
	 SCS Total Energy          =    -265.1177019299385051 [Eh]
	-----------------------------------------------------------

  Dipole Moment: [D]
     X:     2.0098      Y:     2.7982      Z:     0.4388     Total:     3.4730

*** Psi4 exiting successfully. Buy a developer a beer!
