                               Psi4 1.3.2 release

  ==> Input File <==

--------------------------------------------------------------------------
#psi4
#
memory 32 gb

molecule  {
0 1
  C       -2.1511020    -0.0065270     0.0000480
  C       -0.6578330     0.0187880    -0.0000310
  C        0.1863670     1.1106040    -0.0000190
  C        1.3448400    -0.7705710    -0.0000450
  N        0.0761070    -1.1507890    -0.0000380
  N        1.4605000     0.5893150     0.0000860
  H       -2.5302630    -0.5301450    -0.8821160
  H       -2.5568780     1.0090980    -0.0003890
  H        0.0003360     2.1751570    -0.0003990
  H        2.2046270    -1.4277370     0.0000190
  H        2.3224852     1.1195478     0.2501590
  H       -2.5302120    -0.5293840     0.8826800
units angstrom
no_reorient  #important for SAPT in psi4, default
symmetry c1  #important for SAPT in psi4, default
}

set PROPERTIES_ORIGIN ["COM"]
properties('MP2/aug-cc-pvtz', properties = ['dipole'])
--------------------------------------------------------------------------

    Molecular point group: c1
  Charge       = 0
  Multiplicity = 1
  Basis Set: AUG-CC-PVTZ
    Blend: AUG-CC-PVTZ
  Basis Set: (AUG-CC-PVTZ AUX)
    Blend: AUG-CC-PVTZ-JKFIT

    Orbital Energies [Eh]
    ---------------------

    Doubly Occupied:

       1A    -15.621256     2A    -15.542740     3A    -11.297686
       4A    -11.253385     5A    -11.248902     6A    -11.216030
       7A     -1.333512     8A     -1.161700     9A     -1.029556
      10A     -0.935996    11A     -0.817551    12A     -0.768472
      13A     -0.732576    14A     -0.619814    15A     -0.599672
      16A     -0.595867    17A     -0.549591    18A     -0.538895
      19A     -0.524905    20A     -0.433651    21A     -0.391924
      22A     -0.309483

  @DF-RHF Final Energy:  -263.94668194871980

   => Energetics <=

    Nuclear Repulsion Energy =            223.6460158066819019
    One-Electron Energy =                -800.1390674250468464
    Two-Electron Energy =                 312.5463696696451166
    Total Energy =                       -263.9466819487197995
  Basis Set: (AUG-CC-PVTZ AUX)
    Blend: AUG-CC-PVTZ-RI
    Molecular point group: c1

    Geometry (in Angstrom), charge = 0, multiplicity = 1:

       Center              X                  Y                   Z               Mass
    ------------   -----------------  -----------------  -----------------  -----------------
         C           -2.188521697724     0.015459771421    -0.003023401948    12.000000000000
         C           -0.695252697724     0.040774771421    -0.003102401948    12.000000000000
         C            0.148947302276     1.132590771421    -0.003090401948    12.000000000000
         C            1.307420302276    -0.748584228579    -0.003116401948    12.000000000000
         N            0.038687302276    -1.128802228579    -0.003109401948    14.003074004430
         N            1.423080302276     0.611301771421    -0.002985401948    14.003074004430
         H           -2.567682697724    -0.508158228579    -0.885187401948     1.007825032230
         H           -2.594297697724     1.031084771421    -0.003460401948     1.007825032230
         H           -0.037083697724     2.197143771421    -0.003470401948     1.007825032230
         H            2.167207302276    -1.405750228579    -0.003052401948     1.007825032230
         H            2.285065502276     1.141534571421     0.247087598052     1.007825032230
         H           -2.567631697724    -0.507397228579     0.879608598052     1.007825032230

  Basis Set: AUG-CC-PVTZ
    Blend: AUG-CC-PVTZ
  Basis Set: (AUG-CC-PVTZ AUX)
    Blend: AUG-CC-PVTZ-JKFIT
	 Reference Energy          =    -263.9466819487197995 [Eh]
	 Singles Energy            =      -0.0000000000000000 [Eh]
	 Same-Spin Energy          =      -0.2869844618018523 [Eh]
	 Opposite-Spin Energy      =      -0.8973019046804497 [Eh]
	 Correlation Energy        =      -1.1842863664823020 [Eh]
	 Total Energy              =    -265.1309683152020966 [Eh]

	 ================> DF-SCS-MP2 Energies <==================
	-----------------------------------------------------------
	 SCS Same-Spin Scale       =       0.3333333333333333 [-]
	 SCS Opposite-Spin Scale   =       1.2000000000000000 [-]
	 SCS Same-Spin Energy      =      -0.0956614872672841 [Eh]
	 SCS Opposite-Spin Energy  =      -1.0767622856165395 [Eh]
	 SCS Correlation Energy    =      -1.1724237728838236 [Eh]
	 SCS Total Energy          =    -265.1191057216036029 [Eh]
	-----------------------------------------------------------

  Dipole Moment: [D]
     X:     2.0281      Y:     2.8110      Z:     0.3674     Total:     3.4857

*** Psi4 exiting successfully. Buy a developer a beer!
