                               Psi4 1.3.2 release

  ==> Input File <==

--------------------------------------------------------------------------
#psi4
#
memory 32 gb

molecule  {
0 1
  C       -2.1511020    -0.0065270     0.0000480
  C       -0.6578330     0.0187880    -0.0000310
  C        0.1863670     1.1106040    -0.0000190
  C        1.3448400    -0.7705710    -0.0000450
  N        0.0761070    -1.1507890    -0.0000380
  N        1.4605000     0.5893150     0.0000860
  H       -2.5302630    -0.5301450    -0.8821160
  H       -2.5568780     1.0090980    -0.0003890
  H        0.0003360     2.1751570    -0.0003990
  H        2.2046270    -1.4277370     0.0000190
  H        2.3224935     1.1195543     0.1501590
  H       -2.5302120    -0.5293840     0.8826800
units angstrom
no_reorient  #important for SAPT in psi4, default
symmetry c1  #important for SAPT in psi4, default
}

set PROPERTIES_ORIGIN ["COM"]
properties('MP2/aug-cc-pvtz', properties = ['dipole'])
--------------------------------------------------------------------------

    Molecular point group: c1
  Charge       = 0
  Multiplicity = 1
  Basis Set: AUG-CC-PVTZ
    Blend: AUG-CC-PVTZ
  Basis Set: (AUG-CC-PVTZ AUX)
    Blend: AUG-CC-PVTZ-JKFIT

    Orbital Energies [Eh]
    ---------------------

    Doubly Occupied:

       1A    -15.620581     2A    -15.542309     3A    -11.297618
       4A    -11.253636     5A    -11.248598     6A    -11.215873
       7A     -1.334111     8A     -1.163201     9A     -1.029475
      10A     -0.936543    11A     -0.821510    12A     -0.768768
      13A     -0.734601    14A     -0.618525    15A     -0.601796
      16A     -0.596397    17A     -0.549140    18A     -0.539899
      19A     -0.524930    20A     -0.433441    21A     -0.391565
      22A     -0.309300

  @DF-RHF Final Energy:  -263.94879734532140

   => Energetics <=

    Nuclear Repulsion Energy =            223.7325482815383282
    One-Electron Energy =                -800.2990565776747189
    Two-Electron Energy =                 312.6177109508149670
    Total Energy =                       -263.9487973453213954
  Basis Set: (AUG-CC-PVTZ AUX)
    Blend: AUG-CC-PVTZ-RI
    Molecular point group: c1

    Geometry (in Angstrom), charge = 0, multiplicity = 1:

       Center              X                  Y                   Z               Mass
    ------------   -----------------  -----------------  -----------------  -----------------
         C           -2.188521799670     0.015459691584    -0.001795142377    12.000000000000
         C           -0.695252799670     0.040774691584    -0.001874142377    12.000000000000
         C            0.148947200330     1.132590691584    -0.001862142377    12.000000000000
         C            1.307420200330    -0.748584308416    -0.001888142377    12.000000000000
         N            0.038687200330    -1.128802308416    -0.001881142377    14.003074004430
         N            1.423080200330     0.611301691584    -0.001757142377    14.003074004430
         H           -2.567682799670    -0.508158308416    -0.883959142377     1.007825032230
         H           -2.594297799670     1.031084691584    -0.002232142377     1.007825032230
         H           -0.037083799670     2.197143691584    -0.002242142377     1.007825032230
         H            2.167207200330    -1.405750308416    -0.001824142377     1.007825032230
         H            2.285073700330     1.141540991584     0.148315857623     1.007825032230
         H           -2.567631799670    -0.507397308416     0.880836857623     1.007825032230

  Basis Set: AUG-CC-PVTZ
    Blend: AUG-CC-PVTZ
  Basis Set: (AUG-CC-PVTZ AUX)
    Blend: AUG-CC-PVTZ-JKFIT
	 Reference Energy          =    -263.9487973453213954 [Eh]
	 Singles Energy            =      -0.0000000000000000 [Eh]
	 Same-Spin Energy          =      -0.2868836981289593 [Eh]
	 Opposite-Spin Energy      =      -0.8969876276936601 [Eh]
	 Correlation Energy        =      -1.1838713258226194 [Eh]
	 Total Energy              =    -265.1326686711440175 [Eh]

	 ================> DF-SCS-MP2 Energies <==================
	-----------------------------------------------------------
	 SCS Same-Spin Scale       =       0.3333333333333333 [-]
	 SCS Opposite-Spin Scale   =       1.2000000000000000 [-]
	 SCS Same-Spin Energy      =      -0.0956278993763198 [Eh]
	 SCS Opposite-Spin Energy  =      -1.0763851532323920 [Eh]
	 SCS Correlation Energy    =      -1.1720130526087118 [Eh]
	 SCS Total Energy          =    -265.1208103979300859 [Eh]
	-----------------------------------------------------------

  Dipole Moment: [D]
     X:     2.0557      Y:     2.8304      Z:     0.2220     Total:     3.5052

*** Psi4 exiting successfully. Buy a developer a beer!
