                               Psi4 1.3.2 release

  ==> Input File <==

--------------------------------------------------------------------------
#psi4
#
memory 32 gb

molecule  {
0 1
  C       -2.1511020    -0.0065270     0.0000480
  C       -0.6578330     0.0187880    -0.0000310
  C        0.1863670     1.1106040    -0.0000190
  C        1.3448400    -0.7705710    -0.0000450
  N        0.0761070    -1.1507890    -0.0000380
  N        1.4605000     0.5893150     0.0000860
  H       -2.5302630    -0.5301450    -0.8821160
  H       -2.5568780     1.0090980    -0.0003890
  H        0.0003360     2.1751570    -0.0003990
  H        2.2046303    -1.4277325    -0.0999810
  H        2.3225060     1.1195640     0.0001590
  H       -2.5302120    -0.5293840     0.8826800
units angstrom
no_reorient  #important for SAPT in psi4, default
symmetry c1  #important for SAPT in psi4, default
}

set PROPERTIES_ORIGIN ["COM"]
properties('MP2/aug-cc-pvtz', properties = ['dipole'])
--------------------------------------------------------------------------

    Molecular point group: c1
  Charge       = 0
  Multiplicity = 1
  Basis Set: AUG-CC-PVTZ
    Blend: AUG-CC-PVTZ
  Basis Set: (AUG-CC-PVTZ AUX)
    Blend: AUG-CC-PVTZ-JKFIT

    Orbital Energies [Eh]
    ---------------------

    Doubly Occupied:

       1A    -15.620217     2A    -15.542170     3A    -11.297896
       4A    -11.253936     5A    -11.248510     6A    -11.215838
       7A     -1.334518     8A     -1.164165     9A     -1.029396
      10A     -0.936824    11A     -0.823636    12A     -0.768886
      13A     -0.735197    14A     -0.617503    15A     -0.604024
      16A     -0.595343    17A     -0.548898    18A     -0.540435
      19A     -0.524826    20A     -0.433393    21A     -0.391377
      22A     -0.309228

  @DF-RHF Final Energy:  -263.94919527563741

   => Energetics <=

    Nuclear Repulsion Energy =            223.7654958980073729
    One-Electron Energy =                -800.3569511384500856
    Two-Electron Energy =                 312.6422599648052483
    Total Energy =                       -263.9491952756374076
  Basis Set: (AUG-CC-PVTZ AUX)
    Blend: AUG-CC-PVTZ-RI
    Molecular point group: c1

    Geometry (in Angstrom), charge = 0, multiplicity = 1:

       Center              X                  Y                   Z               Mass
    ------------   -----------------  -----------------  -----------------  -----------------
         C           -2.188521993735     0.015459517171     0.001275506552    12.000000000000
         C           -0.695252993735     0.040774517171     0.001196506552    12.000000000000
         C            0.148947006265     1.132590517171     0.001208506552    12.000000000000
         C            1.307420006265    -0.748584482829     0.001182506552    12.000000000000
         N            0.038687006265    -1.128802482829     0.001189506552    14.003074004430
         N            1.423080006265     0.611301517171     0.001313506552    14.003074004430
         H           -2.567682993735    -0.508158482829    -0.880888493448     1.007825032230
         H           -2.594297993735     1.031084517171     0.000838506552     1.007825032230
         H           -0.037083993735     2.197143517171     0.000828506552     1.007825032230
         H            2.167210306265    -1.405745982829    -0.098753493448     1.007825032230
         H            2.285086006265     1.141550517171     0.001386506552     1.007825032230
         H           -2.567631993735    -0.507397482829     0.883907506552     1.007825032230

  Basis Set: AUG-CC-PVTZ
    Blend: AUG-CC-PVTZ
  Basis Set: (AUG-CC-PVTZ AUX)
    Blend: AUG-CC-PVTZ-JKFIT
	 Reference Energy          =    -263.9491952756374076 [Eh]
	 Singles Energy            =      -0.0000000000000000 [Eh]
	 Same-Spin Energy          =      -0.2868782361741512 [Eh]
	 Opposite-Spin Energy      =      -0.8969144872579170 [Eh]
	 Correlation Energy        =      -1.1837927234320682 [Eh]
	 Total Energy              =    -265.1329879990694849 [Eh]

	 ================> DF-SCS-MP2 Energies <==================
	-----------------------------------------------------------
	 SCS Same-Spin Scale       =       0.3333333333333333 [-]
	 SCS Opposite-Spin Scale   =       1.2000000000000000 [-]
	 SCS Same-Spin Energy      =      -0.0956260787247171 [Eh]
	 SCS Opposite-Spin Energy  =      -1.0762973847095003 [Eh]
	 SCS Correlation Energy    =      -1.1719234634342173 [Eh]
	 SCS Total Energy          =    -265.1211187390716191 [Eh]
	-----------------------------------------------------------

  Dipole Moment: [D]
     X:     2.0618      Y:     2.8477      Z:    -0.0786     Total:     3.5166

*** Psi4 exiting successfully. Buy a developer a beer!
