                               Psi4 1.3.2 release

  ==> Input File <==

--------------------------------------------------------------------------
#psi4
#
memory 32 gb

molecule  {
0 1
  C       -2.1511020    -0.0065270     0.0000480
  C       -0.6578330     0.0187880    -0.0000310
  C        0.1863670     1.1106040    -0.0000190
  C        1.3448400    -0.7705710    -0.0000450
  N        0.0761070    -1.1507890    -0.0000380
  N        1.4605000     0.5893150     0.0000860
  H       -2.5302630    -0.5301450    -0.8821160
  H       -2.5568780     1.0090980    -0.0003890
  H        0.0003139     2.1751979     0.1996010
  H        2.2046270    -1.4277370     0.0000190
  H        2.3225060     1.1195640     0.0001590
  H       -2.5302120    -0.5293840     0.8826800
units angstrom
no_reorient  #important for SAPT in psi4, default
symmetry c1  #important for SAPT in psi4, default
}

set PROPERTIES_ORIGIN ["COM"]
properties('MP2/aug-cc-pvtz', properties = ['dipole'])
--------------------------------------------------------------------------

    Molecular point group: c1
  Charge       = 0
  Multiplicity = 1
  Basis Set: AUG-CC-PVTZ
    Blend: AUG-CC-PVTZ
  Basis Set: (AUG-CC-PVTZ AUX)
    Blend: AUG-CC-PVTZ-JKFIT

    Orbital Energies [Eh]
    ---------------------

    Doubly Occupied:

       1A    -15.620129     2A    -15.542377     3A    -11.298196
       4A    -11.254919     5A    -11.249165     6A    -11.216032
       7A     -1.334697     8A     -1.164331     9A     -1.029371
      10A     -0.936726    11A     -0.824030    12A     -0.766754
      13A     -0.735312    14A     -0.617545    15A     -0.606577
      16A     -0.589336    17A     -0.548905    18A     -0.540884
      19A     -0.525173    20A     -0.433502    21A     -0.391532
      22A     -0.309438

  @DF-RHF Final Energy:  -263.94771091911934

   => Energetics <=

    Nuclear Repulsion Energy =            223.7135240178837137
    One-Electron Energy =                -800.2526039638715929
    Two-Electron Energy =                 312.5913690268685059
    Total Energy =                       -263.9477109191193449
  Basis Set: (AUG-CC-PVTZ AUX)
    Blend: AUG-CC-PVTZ-RI
    Molecular point group: c1

    Geometry (in Angstrom), charge = 0, multiplicity = 1:

       Center              X                  Y                   Z               Mass
    ------------   -----------------  -----------------  -----------------  -----------------
         C           -2.188521681757     0.015459070085    -0.002409272162    12.000000000000
         C           -0.695252681757     0.040774070085    -0.002488272162    12.000000000000
         C            0.148947318243     1.132590070085    -0.002476272162    12.000000000000
         C            1.307420318243    -0.748584929915    -0.002502272162    12.000000000000
         N            0.038687318243    -1.128802929915    -0.002495272162    14.003074004430
         N            1.423080318243     0.611301070085    -0.002371272162    14.003074004430
         H           -2.567682681757    -0.508158929915    -0.884573272162     1.007825032230
         H           -2.594297681757     1.031084070085    -0.002846272162     1.007825032230
         H           -0.037105781757     2.197183970085     0.197143727838     1.007825032230
         H            2.167207318243    -1.405750929915    -0.002438272162     1.007825032230
         H            2.285086318243     1.141550070085    -0.002298272162     1.007825032230
         H           -2.567631681757    -0.507397929915     0.880222727838     1.007825032230

  Basis Set: AUG-CC-PVTZ
    Blend: AUG-CC-PVTZ
  Basis Set: (AUG-CC-PVTZ AUX)
    Blend: AUG-CC-PVTZ-JKFIT
	 Reference Energy          =    -263.9477109191193449 [Eh]
	 Singles Energy            =      -0.0000000000000000 [Eh]
	 Same-Spin Energy          =      -0.2869383647947503 [Eh]
	 Opposite-Spin Energy      =      -0.8970618576643206 [Eh]
	 Correlation Energy        =      -1.1840002224590709 [Eh]
	 Total Energy              =    -265.1317111415784211 [Eh]

	 ================> DF-SCS-MP2 Energies <==================
	-----------------------------------------------------------
	 SCS Same-Spin Scale       =       0.3333333333333333 [-]
	 SCS Opposite-Spin Scale   =       1.2000000000000000 [-]
	 SCS Same-Spin Energy      =      -0.0956461215982501 [Eh]
	 SCS Opposite-Spin Energy  =      -1.0764742291971847 [Eh]
	 SCS Correlation Energy    =      -1.1721203507954348 [Eh]
	 SCS Total Energy          =    -265.1198312699147550 [Eh]
	-----------------------------------------------------------

  Dipole Moment: [D]
     X:     2.0713      Y:     2.8018      Z:     0.1816     Total:     3.4890

*** Psi4 exiting successfully. Buy a developer a beer!
