                               Psi4 1.3.2 release

  ==> Input File <==

--------------------------------------------------------------------------
#psi4
#
memory 32 gb

molecule  {
0 1
  C       -2.1511020    -0.0065270     0.0000480
  C       -0.6578330     0.0187880    -0.0000310
  C        0.1863670     1.1106040    -0.0000190
  C        1.3448400    -0.7705710    -0.0000450
  N        0.0761070    -1.1507890    -0.0000380
  N        1.4605000     0.5893150     0.0000860
  H       -2.5302630    -0.5301450    -0.8821160
  H       -2.5568780     1.0090980    -0.0003890
  H        0.0003250     2.1751774     0.0996010
  H        2.2046270    -1.4277370     0.0000190
  H        2.3225060     1.1195640     0.0001590
  H       -2.5302120    -0.5293840     0.8826800
units angstrom
no_reorient  #important for SAPT in psi4, default
symmetry c1  #important for SAPT in psi4, default
}

set PROPERTIES_ORIGIN ["COM"]
properties('MP2/aug-cc-pvtz', properties = ['dipole'])
--------------------------------------------------------------------------

    Molecular point group: c1
  Charge       = 0
  Multiplicity = 1
  Basis Set: AUG-CC-PVTZ
    Blend: AUG-CC-PVTZ
  Basis Set: (AUG-CC-PVTZ AUX)
    Blend: AUG-CC-PVTZ-JKFIT

    Orbital Energies [Eh]
    ---------------------

    Doubly Occupied:

       1A    -15.620176     2A    -15.542137     3A    -11.297735
       4A    -11.254072     5A    -11.248608     6A    -11.215846
       7A     -1.334530     8A     -1.164160     9A     -1.029413
      10A     -0.936844    11A     -0.823945    12A     -0.768361
      13A     -0.735608    14A     -0.617476    15A     -0.604641
      16A     -0.594355    17A     -0.548861    18A     -0.540607
      19A     -0.524988    20A     -0.433364    21A     -0.391400
      22A     -0.309254

  @DF-RHF Final Energy:  -263.94929124536912

   => Energetics <=

    Nuclear Repulsion Energy =            223.7654094952104913
    One-Electron Energy =                -800.3566382513627104
    Two-Electron Energy =                 312.6419375107830660
    Total Energy =                       -263.9492912453691247
  Basis Set: (AUG-CC-PVTZ AUX)
    Blend: AUG-CC-PVTZ-RI
    Molecular point group: c1

    Geometry (in Angstrom), charge = 0, multiplicity = 1:

       Center              X                  Y                   Z               Mass
    ------------   -----------------  -----------------  -----------------  -----------------
         C           -2.188521818094     0.015459321878    -0.001181012591    12.000000000000
         C           -0.695252818094     0.040774321878    -0.001260012591    12.000000000000
         C            0.148947181906     1.132590321878    -0.001248012591    12.000000000000
         C            1.307420181906    -0.748584678122    -0.001274012591    12.000000000000
         N            0.038687181906    -1.128802678122    -0.001267012591    14.003074004430
         N            1.423080181906     0.611301321878    -0.001143012591    14.003074004430
         H           -2.567682818094    -0.508158678122    -0.883345012591     1.007825032230
         H           -2.594297818094     1.031084321878    -0.001618012591     1.007825032230
         H           -0.037094818094     2.197163721878     0.098371987409     1.007825032230
         H            2.167207181906    -1.405750678122    -0.001210012591     1.007825032230
         H            2.285086181906     1.141550321878    -0.001070012591     1.007825032230
         H           -2.567631818094    -0.507397678122     0.881450987409     1.007825032230

  Basis Set: AUG-CC-PVTZ
    Blend: AUG-CC-PVTZ
  Basis Set: (AUG-CC-PVTZ AUX)
    Blend: AUG-CC-PVTZ-JKFIT
	 Reference Energy          =    -263.9492912453691247 [Eh]
	 Singles Energy            =      -0.0000000000000000 [Eh]
	 Same-Spin Energy          =      -0.2868552361716487 [Eh]
	 Opposite-Spin Energy      =      -0.8968780817368374 [Eh]
	 Correlation Energy        =      -1.1837333179084859 [Eh]
	 Total Energy              =    -265.1330245632776155 [Eh]

	 ================> DF-SCS-MP2 Energies <==================
	-----------------------------------------------------------
	 SCS Same-Spin Scale       =       0.3333333333333333 [-]
	 SCS Opposite-Spin Scale   =       1.2000000000000000 [-]
	 SCS Same-Spin Energy      =      -0.0956184120572162 [Eh]
	 SCS Opposite-Spin Energy  =      -1.0762536980842048 [Eh]
	 SCS Correlation Energy    =      -1.1718721101414209 [Eh]
	 SCS Total Energy          =    -265.1211633555105323 [Eh]
	-----------------------------------------------------------

  Dipole Moment: [D]
     X:     2.0716      Y:     2.8317      Z:     0.0917     Total:     3.5097

*** Psi4 exiting successfully. Buy a developer a beer!
