                               Psi4 1.3.2 release

  ==> Input File <==

--------------------------------------------------------------------------
#psi4
#
memory 32 gb

molecule  {
0 1
  O        2.1793270    -1.1884030     0.0070830
  O        2.0242499     1.0655645     0.0037745
  C       -2.3333640     0.6373300    -0.0064140
  C       -2.8929490    -0.7786760    -0.0059160
  C       -0.8407100     0.7390270    -0.0031060
  C        0.0245704    -0.2993058     0.0001627
  C        1.4732850    -0.0238670     0.0030520
  H       -2.7101490     1.1874440    -0.8789970
  H       -2.7141290     1.1896330     0.8630350
  H       -3.9853730    -0.7577330    -0.0084480
  H       -2.5694230    -1.3301270     0.8805270
  H       -2.5653610    -1.3323610    -0.8894680
  H       -0.4156920     1.7426300    -0.0033930
  H       -0.2913660    -1.3244520     0.0007550
  H        3.1211320    -0.9203150     0.0096400
units angstrom
no_reorient  #important for SAPT in psi4, default
symmetry c1  #important for SAPT in psi4, default
}

set PROPERTIES_ORIGIN ["COM"]
properties('MP2/aug-cc-pvtz', properties = ['dipole'])
--------------------------------------------------------------------------

    Molecular point group: c1
  Charge       = 0
  Multiplicity = 1
  Basis Set: AUG-CC-PVTZ
    Blend: AUG-CC-PVTZ
  Basis Set: (AUG-CC-PVTZ AUX)
    Blend: AUG-CC-PVTZ-JKFIT

    Orbital Energies [Eh]
    ---------------------

    Doubly Occupied:

       1A    -20.608792     2A    -20.539699     3A    -11.385212
       4A    -11.270541     5A    -11.247885     6A    -11.241257
       7A    -11.229012     8A     -1.452470     9A     -1.346813
      10A     -1.110620    11A     -1.024093    12A     -0.916867
      13A     -0.841441    14A     -0.740961    15A     -0.704938
      16A     -0.693648    17A     -0.632087    18A     -0.620223
      19A     -0.615568    20A     -0.600851    21A     -0.570586
      22A     -0.515305    23A     -0.512412    24A     -0.506512
      25A     -0.481675    26A     -0.450757    27A     -0.378903

  @DF-RHF Final Energy:  -343.85963118462337

   => Energetics <=

    Nuclear Repulsion Energy =            285.3029983268737624
    One-Electron Energy =               -1033.8470048599997426
    Two-Electron Energy =                 404.6843753485026127
    Total Energy =                       -343.8596311846233675
  Basis Set: (AUG-CC-PVTZ AUX)
    Blend: AUG-CC-PVTZ-RI
    Molecular point group: c1

    Geometry (in Angstrom), charge = 0, multiplicity = 1:

       Center              X                  Y                   Z               Mass
    ------------   -----------------  -----------------  -----------------  -----------------
         O            2.177522336711    -1.186123537180     0.007078462342    15.994914619570
         O            2.022445236711     1.067843962820     0.003769962342    15.994914619570
         C           -2.335168663289     0.639609462820    -0.006418537658    12.000000000000
         C           -2.894753663289    -0.776396537180    -0.005920537658    12.000000000000
         C           -0.842514663289     0.741306462820    -0.003110537658    12.000000000000
         C            0.022765736711    -0.297026337180     0.000158162342    12.000000000000
         C            1.471480336711    -0.021587537180     0.003047462342    12.000000000000
         H           -2.711953663289     1.189723462820    -0.879001537658     1.007825032230
         H           -2.715933663289     1.191912462820     0.863030462342     1.007825032230
         H           -3.987177663289    -0.755453537180    -0.008452537658     1.007825032230
         H           -2.571227663289    -1.327847537180     0.880522462342     1.007825032230
         H           -2.567165663289    -1.330081537180    -0.889472537658     1.007825032230
         H           -0.417496663289     1.744909462820    -0.003397537658     1.007825032230
         H           -0.293170663289    -1.322172537180     0.000750462342     1.007825032230
         H            3.119327336711    -0.918035537180     0.009635462342     1.007825032230

  Basis Set: AUG-CC-PVTZ
    Blend: AUG-CC-PVTZ
  Basis Set: (AUG-CC-PVTZ AUX)
    Blend: AUG-CC-PVTZ-JKFIT
	 Reference Energy          =    -343.8596311846233675 [Eh]
	 Singles Energy            =      -0.0000000000000000 [Eh]
	 Same-Spin Energy          =      -0.3407072358097478 [Eh]
	 Opposite-Spin Energy      =      -1.0995623826239647 [Eh]
	 Correlation Energy        =      -1.4402696184337125 [Eh]
	 Total Energy              =    -345.2999008030570849 [Eh]

	 ================> DF-SCS-MP2 Energies <==================
	-----------------------------------------------------------
	 SCS Same-Spin Scale       =       0.3333333333333333 [-]
	 SCS Opposite-Spin Scale   =       1.2000000000000000 [-]
	 SCS Same-Spin Energy      =      -0.1135690786032493 [Eh]
	 SCS Opposite-Spin Energy  =      -1.3194748591487575 [Eh]
	 SCS Correlation Energy    =      -1.4330439377520068 [Eh]
	 SCS Total Energy          =    -345.2926751223753854 [Eh]
	-----------------------------------------------------------

  Dipole Moment: [D]
     X:    -1.8759      Y:    -0.9100      Z:    -0.0034     Total:     2.0849

*** Psi4 exiting successfully. Buy a developer a beer!
