                               Psi4 1.3.2 release

  ==> Input File <==

--------------------------------------------------------------------------
#psi4
#
memory 32 gb

molecule  {
0 1
  O        2.1793270    -1.1884030     0.0070830
  O        2.0147220     1.0703310     0.0037530
  C       -2.3333640     0.6373300    -0.0064140
  C       -2.8929490    -0.7786760    -0.0059160
  C       -0.8759801     0.7082861    -0.0031448
  C        0.0222220    -0.2866530     0.0001530
  C        1.4815720    -0.0746685     0.0031365
  H       -2.7101490     1.1874440    -0.8789970
  H       -2.7141290     1.1896330     0.8630350
  H       -3.9853730    -0.7577330    -0.0084480
  H       -2.5694230    -1.3301270     0.8805270
  H       -2.5653610    -1.3323610    -0.8894680
  H       -0.4156920     1.7426300    -0.0033930
  H       -0.2913660    -1.3244520     0.0007550
  H        3.1211320    -0.9203150     0.0096400
units angstrom
no_reorient  #important for SAPT in psi4, default
symmetry c1  #important for SAPT in psi4, default
}

set PROPERTIES_ORIGIN ["COM"]
properties('MP2/aug-cc-pvtz', properties = ['dipole'])
--------------------------------------------------------------------------

    Molecular point group: c1
  Charge       = 0
  Multiplicity = 1
  Basis Set: AUG-CC-PVTZ
    Blend: AUG-CC-PVTZ
  Basis Set: (AUG-CC-PVTZ AUX)
    Blend: AUG-CC-PVTZ-JKFIT

    Orbital Energies [Eh]
    ---------------------

    Doubly Occupied:

       1A    -20.624510     2A    -20.530656     3A    -11.388788
       4A    -11.269372     5A    -11.246180     6A    -11.239697
       7A    -11.228206     8A     -1.471379     9A     -1.326885
      10A     -1.115017    11A     -1.024319    12A     -0.921657
      13A     -0.854368    14A     -0.741337    15A     -0.706249
      16A     -0.697307    17A     -0.637681    18A     -0.628390
      19A     -0.618707    20A     -0.598482    21A     -0.559707
      22A     -0.518267    23A     -0.516561    24A     -0.493270
      25A     -0.471374    26A     -0.444639    27A     -0.377219

  @DF-RHF Final Energy:  -343.85115239595331

   => Energetics <=

    Nuclear Repulsion Energy =            285.5815400933818751
    One-Electron Energy =               -1034.3649387736199969
    Two-Electron Energy =                 404.9322462842848722
    Total Energy =                       -343.8511523959533065
  Basis Set: (AUG-CC-PVTZ AUX)
    Blend: AUG-CC-PVTZ-RI
    Molecular point group: c1

    Geometry (in Angstrom), charge = 0, multiplicity = 1:

       Center              X                  Y                   Z               Mass
    ------------   -----------------  -----------------  -----------------  -----------------
         O            2.182563453149    -1.178623115218     0.007077581710    15.994914619570
         O            2.017958453149     1.080110884782     0.003747581710    15.994914619570
         C           -2.330127546851     0.647109884782    -0.006419418290    12.000000000000
         C           -2.889712546851    -0.768896115218    -0.005921418290    12.000000000000
         C           -0.872743646851     0.718065984782    -0.003150218290    12.000000000000
         C            0.025458453149    -0.276873115218     0.000147581710    12.000000000000
         C            1.484808453149    -0.064888615218     0.003131081710    12.000000000000
         H           -2.706912546851     1.197223884782    -0.879002418290     1.007825032230
         H           -2.710892546851     1.199412884782     0.863029581710     1.007825032230
         H           -3.982136546851    -0.747953115218    -0.008453418290     1.007825032230
         H           -2.566186546851    -1.320347115218     0.880521581710     1.007825032230
         H           -2.562124546851    -1.322581115218    -0.889473418290     1.007825032230
         H           -0.412455546851     1.752409884782    -0.003398418290     1.007825032230
         H           -0.288129546851    -1.314672115218     0.000749581710     1.007825032230
         H            3.124368453149    -0.910535115218     0.009634581710     1.007825032230

  Basis Set: AUG-CC-PVTZ
    Blend: AUG-CC-PVTZ
  Basis Set: (AUG-CC-PVTZ AUX)
    Blend: AUG-CC-PVTZ-JKFIT
	 Reference Energy          =    -343.8511523959533065 [Eh]
	 Singles Energy            =      -0.0000000000000000 [Eh]
	 Same-Spin Energy          =      -0.3416546435017492 [Eh]
	 Opposite-Spin Energy      =      -1.1007821552337460 [Eh]
	 Correlation Energy        =      -1.4424367987354954 [Eh]
	 Total Energy              =    -345.2935891946888205 [Eh]

	 ================> DF-SCS-MP2 Energies <==================
	-----------------------------------------------------------
	 SCS Same-Spin Scale       =       0.3333333333333333 [-]
	 SCS Opposite-Spin Scale   =       1.2000000000000000 [-]
	 SCS Same-Spin Energy      =      -0.1138848811672497 [Eh]
	 SCS Opposite-Spin Energy  =      -1.3209385862804952 [Eh]
	 SCS Correlation Energy    =      -1.4348234674477449 [Eh]
	 SCS Total Energy          =    -345.2859758634010632 [Eh]
	-----------------------------------------------------------

  Dipole Moment: [D]
     X:    -1.7408      Y:    -1.3211      Z:    -0.0025     Total:     2.1854

*** Psi4 exiting successfully. Buy a developer a beer!
