                               Psi4 1.3.2 release

  ==> Input File <==

--------------------------------------------------------------------------
#psi4
#
memory 32 gb

molecule  {
0 1
  O        2.1793270    -1.1884030     0.0070830
  O        2.0147220     1.0703310     0.0037530
  C       -2.3333640     0.6373300    -0.0064140
  C       -2.8929490    -0.7786760    -0.0059160
  C       -0.8407100     0.7390270    -0.0031060
  C        0.0222220    -0.2866530     0.0001530
  C        1.4575434     0.0517157     0.0029223
  H       -2.7101490     1.1874440    -0.8789970
  H       -2.7141290     1.1896330     0.8630350
  H       -3.9853730    -0.7577330    -0.0084480
  H       -2.5694230    -1.3301270     0.8805270
  H       -2.5653610    -1.3323610    -0.8894680
  H       -0.4156920     1.7426300    -0.0033930
  H       -0.3452503    -1.3066179     0.0006128
  H        3.1211320    -0.9203150     0.0096400
units angstrom
no_reorient  #important for SAPT in psi4, default
symmetry c1  #important for SAPT in psi4, default
}

set PROPERTIES_ORIGIN ["COM"]
properties('MP2/aug-cc-pvtz', properties = ['dipole'])
--------------------------------------------------------------------------

    Molecular point group: c1
  Charge       = 0
  Multiplicity = 1
  Basis Set: AUG-CC-PVTZ
    Blend: AUG-CC-PVTZ
  Basis Set: (AUG-CC-PVTZ AUX)
    Blend: AUG-CC-PVTZ-JKFIT

    Orbital Energies [Eh]
    ---------------------

    Doubly Occupied:

       1A    -20.588372     2A    -20.555209     3A    -11.383673
       4A    -11.267380     5A    -11.247927     6A    -11.241834
       7A    -11.229593     8A     -1.458807     9A     -1.351734
      10A     -1.114167    11A     -1.025729    12A     -0.912490
      13A     -0.830575    14A     -0.737639    15A     -0.703424
      16A     -0.693456    17A     -0.632400    18A     -0.620682
      19A     -0.617411    20A     -0.594144    21A     -0.579699
      22A     -0.515736    23A     -0.513356    24A     -0.506899
      25A     -0.491302    26A     -0.454779    27A     -0.384249

  @DF-RHF Final Energy:  -343.85374708039205

   => Energetics <=

    Nuclear Repulsion Energy =            285.7235111257955964
    One-Electron Energy =               -1034.6491800153683016
    Two-Electron Energy =                 405.0719218091807079
    Total Energy =                       -343.8537470803920542
  Basis Set: (AUG-CC-PVTZ AUX)
    Blend: AUG-CC-PVTZ-RI
    Molecular point group: c1

    Geometry (in Angstrom), charge = 0, multiplicity = 1:

       Center              X                  Y                   Z               Mass
    ------------   -----------------  -----------------  -----------------  -----------------
         O            2.181757954931    -1.197647889149     0.007100051057    15.994914619570
         O            2.017152954931     1.061086110851     0.003770051057    15.994914619570
         C           -2.330933045069     0.628085110851    -0.006396948943    12.000000000000
         C           -2.890518045069    -0.787920889149    -0.005898948943    12.000000000000
         C           -0.838279045069     0.729782110851    -0.003088948943    12.000000000000
         C            0.024652954931    -0.295897889149     0.000170051057    12.000000000000
         C            1.459974354931     0.042470810851     0.002939351057    12.000000000000
         H           -2.707718045069     1.178199110851    -0.878979948943     1.007825032230
         H           -2.711698045069     1.180388110851     0.863052051057     1.007825032230
         H           -3.982942045069    -0.766977889149    -0.008430948943     1.007825032230
         H           -2.566992045069    -1.339371889149     0.880544051057     1.007825032230
         H           -2.562930045069    -1.341605889149    -0.889450948943     1.007825032230
         H           -0.413261045069     1.733385110851    -0.003375948943     1.007825032230
         H           -0.342819345069    -1.315862789149     0.000629851057     1.007825032230
         H            3.123562954931    -0.929559889149     0.009657051057     1.007825032230

  Basis Set: AUG-CC-PVTZ
    Blend: AUG-CC-PVTZ
  Basis Set: (AUG-CC-PVTZ AUX)
    Blend: AUG-CC-PVTZ-JKFIT
	 Reference Energy          =    -343.8537470803920542 [Eh]
	 Singles Energy            =      -0.0000000000000000 [Eh]
	 Same-Spin Energy          =      -0.3402528270028955 [Eh]
	 Opposite-Spin Energy      =      -1.0989269844758809 [Eh]
	 Correlation Energy        =      -1.4391798114787764 [Eh]
	 Total Energy              =    -345.2929268918708203 [Eh]

	 ================> DF-SCS-MP2 Energies <==================
	-----------------------------------------------------------
	 SCS Same-Spin Scale       =       0.3333333333333333 [-]
	 SCS Opposite-Spin Scale   =       1.2000000000000000 [-]
	 SCS Same-Spin Energy      =      -0.1134176090009652 [Eh]
	 SCS Opposite-Spin Energy  =      -1.3187123813710571 [Eh]
	 SCS Correlation Energy    =      -1.4321299903720222 [Eh]
	 SCS Total Energy          =    -345.2858770707640588 [Eh]
	-----------------------------------------------------------

  Dipole Moment: [D]
     X:    -2.0531      Y:    -0.2867      Z:    -0.0048     Total:     2.0730

*** Psi4 exiting successfully. Buy a developer a beer!
