                               Psi4 1.3.2 release

  ==> Input File <==

--------------------------------------------------------------------------
#psi4
#
memory 32 gb

molecule  {
0 1
  O        2.1793270    -1.1884030     0.0070830
  O        2.0147220     1.0703310     0.0037530
  C       -2.3333640     0.6373300    -0.0064140
  C       -2.8929490    -0.7786760    -0.0059160
  C       -0.8407100     0.7390270    -0.0031060
  C        0.0222220    -0.2866530     0.0001530
  C        1.2764865    -0.0595070     0.0026588
  H       -2.7101490     1.1874440    -0.8789970
  H       -2.7141290     1.1896330     0.8630350
  H       -3.9853730    -0.7577330    -0.0084480
  H       -2.5694230    -1.3301270     0.8805270
  H       -2.5653610    -1.3323610    -0.8894680
  H       -0.4156920     1.7426300    -0.0033930
  H       -0.2913660    -1.3244520     0.0007550
  H        3.1211320    -0.9203150     0.0096400
units angstrom
no_reorient  #important for SAPT in psi4, default
symmetry c1  #important for SAPT in psi4, default
}

set PROPERTIES_ORIGIN ["COM"]
properties('MP2/aug-cc-pvtz', properties = ['dipole'])
--------------------------------------------------------------------------

    Molecular point group: c1
  Charge       = 0
  Multiplicity = 1
  Basis Set: AUG-CC-PVTZ
    Blend: AUG-CC-PVTZ
  Basis Set: (AUG-CC-PVTZ AUX)
    Blend: AUG-CC-PVTZ-JKFIT

    Orbital Energies [Eh]
    ---------------------

    Doubly Occupied:

       1A    -20.581557     2A    -20.513152     3A    -11.382504
       4A    -11.307706     5A    -11.267313     6A    -11.242866
       7A    -11.238155     8A     -1.387897     9A     -1.262599
      10A     -1.150559    11A     -1.067733    12A     -0.947631
      13A     -0.855325    14A     -0.747983    15A     -0.718768
      16A     -0.656279    17A     -0.648035    18A     -0.620420
      19A     -0.604378    20A     -0.584611    21A     -0.540287
      22A     -0.531792    23A     -0.530358    24A     -0.521735
      25A     -0.457548    26A     -0.418872    27A     -0.384642

  @DF-RHF Final Energy:  -343.78346687502352

   => Energetics <=

    Nuclear Repulsion Energy =            285.6674669703637619
    One-Electron Energy =               -1034.5604577701828930
    Two-Electron Energy =                 405.1095239247956101
    Total Energy =                       -343.7834668750235210
  Basis Set: (AUG-CC-PVTZ AUX)
    Blend: AUG-CC-PVTZ-RI
    Molecular point group: c1

    Geometry (in Angstrom), charge = 0, multiplicity = 1:

       Center              X                  Y                   Z               Mass
    ------------   -----------------  -----------------  -----------------  -----------------
         O            2.202930622744    -1.184128516764     0.007130222111    15.994914619570
         O            2.038325622744     1.074605483236     0.003800222111    15.994914619570
         C           -2.309760377256     0.641604483236    -0.006366777889    12.000000000000
         C           -2.869345377256    -0.774401516764    -0.005868777889    12.000000000000
         C           -0.817106377256     0.743301483236    -0.003058777889    12.000000000000
         C            0.045825622744    -0.282378516764     0.000200222111    12.000000000000
         C            1.300090122744    -0.055232516764     0.002706022111    12.000000000000
         H           -2.686545377256     1.191718483236    -0.878949777889     1.007825032230
         H           -2.690525377256     1.193907483236     0.863082222111     1.007825032230
         H           -3.961769377256    -0.753458516764    -0.008400777889     1.007825032230
         H           -2.545819377256    -1.325852516764     0.880574222111     1.007825032230
         H           -2.541757377256    -1.328086516764    -0.889420777889     1.007825032230
         H           -0.392088377256     1.746904483236    -0.003345777889     1.007825032230
         H           -0.267762377256    -1.320177516764     0.000802222111     1.007825032230
         H            3.144735622744    -0.916040516764     0.009687222111     1.007825032230

  Basis Set: AUG-CC-PVTZ
    Blend: AUG-CC-PVTZ
  Basis Set: (AUG-CC-PVTZ AUX)
    Blend: AUG-CC-PVTZ-JKFIT
	 Reference Energy          =    -343.7834668750235210 [Eh]
	 Singles Energy            =      -0.0000000000000000 [Eh]
	 Same-Spin Energy          =      -0.3457635195865384 [Eh]
	 Opposite-Spin Energy      =      -1.1085367068397598 [Eh]
	 Correlation Energy        =      -1.4543002264262981 [Eh]
	 Total Energy              =    -345.2377671014498333 [Eh]

	 ================> DF-SCS-MP2 Energies <==================
	-----------------------------------------------------------
	 SCS Same-Spin Scale       =       0.3333333333333333 [-]
	 SCS Opposite-Spin Scale   =       1.2000000000000000 [-]
	 SCS Same-Spin Energy      =      -0.1152545065288461 [Eh]
	 SCS Opposite-Spin Energy  =      -1.3302440482077118 [Eh]
	 SCS Correlation Energy    =      -1.4454985547365580 [Eh]
	 SCS Total Energy          =    -345.2289654297600805 [Eh]
	-----------------------------------------------------------

  Dipole Moment: [D]
     X:    -3.6198      Y:    -0.7954      Z:    -0.0078     Total:     3.7062

*** Psi4 exiting successfully. Buy a developer a beer!
