                               Psi4 1.3.2 release

  ==> Input File <==

--------------------------------------------------------------------------
#psi4
#
memory 32 gb

molecule  {
0 1
  O        2.1793270    -1.1884030     0.0070830
  O        2.0147220     1.0703310     0.0037530
  C       -2.3333640     0.6373300    -0.0064140
  C       -2.8431904    -0.7973425    -0.0057779
  C       -0.8380703     0.6868721    -0.0030341
  C        0.0222220    -0.2866530     0.0001530
  C        1.4732850    -0.0238670     0.0030520
  H       -2.7101490     1.1874440    -0.8789970
  H       -2.7141290     1.1896330     0.8630350
  H       -3.9853730    -0.7577330    -0.0084480
  H       -2.5694230    -1.3301270     0.8805270
  H       -2.5653610    -1.3323610    -0.8894680
  H       -0.4156920     1.7426300    -0.0033930
  H       -0.2913660    -1.3244520     0.0007550
  H        3.1211320    -0.9203150     0.0096400
units angstrom
no_reorient  #important for SAPT in psi4, default
symmetry c1  #important for SAPT in psi4, default
}

set PROPERTIES_ORIGIN ["COM"]
properties('MP2/aug-cc-pvtz', properties = ['dipole'])
--------------------------------------------------------------------------

    Molecular point group: c1
  Charge       = 0
  Multiplicity = 1
  Basis Set: AUG-CC-PVTZ
    Blend: AUG-CC-PVTZ
  Basis Set: (AUG-CC-PVTZ AUX)
    Blend: AUG-CC-PVTZ-JKFIT

    Orbital Energies [Eh]
    ---------------------

    Doubly Occupied:

       1A    -20.611763     2A    -20.541764     3A    -11.387191
       4A    -11.262413     5A    -11.247259     6A    -11.235654
       7A    -11.227595     8A     -1.454247     9A     -1.349268
      10A     -1.117199    11A     -1.027441    12A     -0.912767
      13A     -0.847510    14A     -0.732165    15A     -0.708116
      16A     -0.693207    17A     -0.636701    18A     -0.622774
      19A     -0.616596    20A     -0.601377    21A     -0.564070
      22A     -0.524273    23A     -0.514336    24A     -0.483837
      25A     -0.482956    26A     -0.452008    27A     -0.390254

  @DF-RHF Final Energy:  -343.85380833450398

   => Energetics <=

    Nuclear Repulsion Energy =            286.3640757348476313
    One-Electron Energy =               -1035.9462884075535385
    Two-Electron Energy =                 405.7284043382019831
    Total Energy =                       -343.8538083345039809
  Basis Set: (AUG-CC-PVTZ AUX)
    Blend: AUG-CC-PVTZ-RI
    Molecular point group: c1

    Geometry (in Angstrom), charge = 0, multiplicity = 1:

       Center              X                  Y                   Z               Mass
    ------------   -----------------  -----------------  -----------------  -----------------
         O            2.173042676844    -1.179908961056     0.007057876042    15.994914619570
         O            2.008437676844     1.078825038944     0.003727876042    15.994914619570
         C           -2.339648323156     0.645824038944    -0.006439123958    12.000000000000
         C           -2.849474723156    -0.788848461056    -0.005803023958    12.000000000000
         C           -0.844354623156     0.695366138944    -0.003059223958    12.000000000000
         C            0.015937676844    -0.278158961056     0.000127876042    12.000000000000
         C            1.467000676844    -0.015372961056     0.003026876042    12.000000000000
         H           -2.716433323156     1.195938038944    -0.879022123958     1.007825032230
         H           -2.720413323156     1.198127038944     0.863009876042     1.007825032230
         H           -3.991657323156    -0.749238961056    -0.008473123958     1.007825032230
         H           -2.575707323156    -1.321632961056     0.880501876042     1.007825032230
         H           -2.571645323156    -1.323866961056    -0.889493123958     1.007825032230
         H           -0.421976323156     1.751124038944    -0.003418123958     1.007825032230
         H           -0.297650323156    -1.315957961056     0.000729876042     1.007825032230
         H            3.114847676844    -0.911820961056     0.009614876042     1.007825032230

  Basis Set: AUG-CC-PVTZ
    Blend: AUG-CC-PVTZ
  Basis Set: (AUG-CC-PVTZ AUX)
    Blend: AUG-CC-PVTZ-JKFIT
	 Reference Energy          =    -343.8538083345039809 [Eh]
	 Singles Energy            =      -0.0000000000000000 [Eh]
	 Same-Spin Energy          =      -0.3406435037711281 [Eh]
	 Opposite-Spin Energy      =      -1.0993577634786182 [Eh]
	 Correlation Energy        =      -1.4400012672497464 [Eh]
	 Total Energy              =    -345.2938096017537077 [Eh]

	 ================> DF-SCS-MP2 Energies <==================
	-----------------------------------------------------------
	 SCS Same-Spin Scale       =       0.3333333333333333 [-]
	 SCS Opposite-Spin Scale   =       1.2000000000000000 [-]
	 SCS Same-Spin Energy      =      -0.1135478345903760 [Eh]
	 SCS Opposite-Spin Energy  =      -1.3192293161743418 [Eh]
	 SCS Correlation Energy    =      -1.4327771507647178 [Eh]
	 SCS Total Energy          =    -345.2865854852686880 [Eh]
	-----------------------------------------------------------

  Dipole Moment: [D]
     X:    -1.7568      Y:    -0.9449      Z:    -0.0031     Total:     1.9948

*** Psi4 exiting successfully. Buy a developer a beer!
