                               Psi4 1.3.2 release

  ==> Input File <==

--------------------------------------------------------------------------
#psi4
#
memory 32 gb

molecule  {
0 1
  O        2.1793270    -1.1884030     0.0070830
  O        2.0147220     1.0703310     0.0037530
  C       -2.3324197     0.6243082    -0.0063954
  C       -2.8929490    -0.7786760    -0.0059160
  C       -0.8407100     0.7390270    -0.0031060
  C        0.0222220    -0.2866530     0.0001530
  C        1.4732850    -0.0238670     0.0030520
  H       -2.7101490     1.1874440    -0.8789970
  H       -2.7141290     1.1896330     0.8630350
  H       -3.9853730    -0.7577330    -0.0084480
  H       -2.5694230    -1.3301270     0.8805270
  H       -2.5653610    -1.3323610    -0.8894680
  H       -0.4069502     1.7388829    -0.0033682
  H       -0.2913660    -1.3244520     0.0007550
  H        3.1211320    -0.9203150     0.0096400
units angstrom
no_reorient  #important for SAPT in psi4, default
symmetry c1  #important for SAPT in psi4, default
}

set PROPERTIES_ORIGIN ["COM"]
properties('MP2/aug-cc-pvtz', properties = ['dipole'])
--------------------------------------------------------------------------

    Molecular point group: c1
  Charge       = 0
  Multiplicity = 1
  Basis Set: AUG-CC-PVTZ
    Blend: AUG-CC-PVTZ
  Basis Set: (AUG-CC-PVTZ AUX)
    Blend: AUG-CC-PVTZ-JKFIT

    Orbital Energies [Eh]
    ---------------------

    Doubly Occupied:

       1A    -20.610373     2A    -20.540056     3A    -11.385462
       4A    -11.267720     5A    -11.248178     6A    -11.239967
       7A    -11.228343     8A     -1.452920     9A     -1.348019
      10A     -1.112138    11A     -1.025409    12A     -0.916467
      13A     -0.841662    14A     -0.738716    15A     -0.705696
      16A     -0.694249    17A     -0.631391    18A     -0.620465
      19A     -0.616373    20A     -0.600752    21A     -0.570211
      22A     -0.512882    23A     -0.511150    24A     -0.508514
      25A     -0.482499    26A     -0.450652    27A     -0.380078

  @DF-RHF Final Energy:  -343.85986528477019

   => Energetics <=

    Nuclear Repulsion Energy =            285.5717817027170327
    One-Electron Energy =               -1034.3826103687247269
    Two-Electron Energy =                 404.9509633812374432
    Total Energy =                       -343.8598652847701942
  Basis Set: (AUG-CC-PVTZ AUX)
    Blend: AUG-CC-PVTZ-RI
    Molecular point group: c1

    Geometry (in Angstrom), charge = 0, multiplicity = 1:

       Center              X                  Y                   Z               Mass
    ------------   -----------------  -----------------  -----------------  -----------------
         O            2.179125865410    -1.186803534054     0.007080582197    15.994914619570
         O            2.014520865410     1.071930465946     0.003750582197    15.994914619570
         C           -2.332620834590     0.625907665946    -0.006397817803    12.000000000000
         C           -2.893150134590    -0.777076534054    -0.005918417803    12.000000000000
         C           -0.840911134590     0.740626465946    -0.003108417803    12.000000000000
         C            0.022020865410    -0.285053534054     0.000150582197    12.000000000000
         C            1.473083865410    -0.022267534054     0.003049582197    12.000000000000
         H           -2.710350134590     1.189043465946    -0.878999417803     1.007825032230
         H           -2.714330134590     1.191232465946     0.863032582197     1.007825032230
         H           -3.985574134590    -0.756133534054    -0.008450417803     1.007825032230
         H           -2.569624134590    -1.328527534054     0.880524582197     1.007825032230
         H           -2.565562134590    -1.330761534054    -0.889470417803     1.007825032230
         H           -0.407151334590     1.740482365946    -0.003370617803     1.007825032230
         H           -0.291567134590    -1.322852534054     0.000752582197     1.007825032230
         H            3.120930865410    -0.918715534054     0.009637582197     1.007825032230

  Basis Set: AUG-CC-PVTZ
    Blend: AUG-CC-PVTZ
  Basis Set: (AUG-CC-PVTZ AUX)
    Blend: AUG-CC-PVTZ-JKFIT
	 Reference Energy          =    -343.8598652847701942 [Eh]
	 Singles Energy            =      -0.0000000000000000 [Eh]
	 Same-Spin Energy          =      -0.3407604977708535 [Eh]
	 Opposite-Spin Energy      =      -1.0994855855900059 [Eh]
	 Correlation Energy        =      -1.4402460833608592 [Eh]
	 Total Energy              =    -345.3001113681310699 [Eh]

	 ================> DF-SCS-MP2 Energies <==================
	-----------------------------------------------------------
	 SCS Same-Spin Scale       =       0.3333333333333333 [-]
	 SCS Opposite-Spin Scale   =       1.2000000000000000 [-]
	 SCS Same-Spin Energy      =      -0.1135868325902845 [Eh]
	 SCS Opposite-Spin Energy  =      -1.3193827027080069 [Eh]
	 SCS Correlation Energy    =      -1.4329695352982914 [Eh]
	 SCS Total Energy          =    -345.2928348200684923 [Eh]
	-----------------------------------------------------------

  Dipole Moment: [D]
     X:    -1.8275      Y:    -0.9305      Z:    -0.0033     Total:     2.0508

*** Psi4 exiting successfully. Buy a developer a beer!
