                               Psi4 1.4a3.dev225

  ==> Input File <==

--------------------------------------------------------------------------
#psi4
#
memory 32 gb

molecule  {
0 1
  O       -2.3109350    -1.1403470    -0.0000450
  O       -2.1116090     1.1175510    -0.0000760
  C        2.2339710     0.6185460     0.0000510
  C        2.7736950    -0.8069580     0.0000920
  C        0.7414440     0.7423990     0.0000070
  C       -0.1051896    -0.2335501     0.0000012
  C       -1.5863340     0.0145930    -0.0000450
  H        2.6208160     1.1641270     0.8715420
  H        2.6208650     1.1640950    -0.8714390
  H        3.8667590    -0.8011940     0.0001220
  H        2.4401730    -1.3549900    -0.8853120
  H        2.4401230    -1.3549580     0.8854960
  H        0.3318170     1.7528370    -0.0000240
  H        0.1592700    -1.3142900     0.0000290
  H       -3.2484020    -0.8568190    -0.0000760
units angstrom
no_reorient  #important for SAPT in psi4, default
symmetry c1  #important for SAPT in psi4, default
}

set PROPERTIES_ORIGIN ["COM"]
properties('MP2/aug-cc-pvtz', properties = ['dipole'])
--------------------------------------------------------------------------

    Molecular point group: c1
  Charge       = 0
  Multiplicity = 1
  Basis Set: AUG-CC-PVTZ
    Blend: AUG-CC-PVTZ
  Basis Set: (AUG-CC-PVTZ AUX)
    Blend: AUG-CC-PVTZ-JKFIT

    Orbital Energies [Eh]
    ---------------------

    Doubly Occupied:

       1A    -20.613882     2A    -20.542474     3A    -11.388810
       4A    -11.256696     5A    -11.245421     6A    -11.239877
       7A    -11.227479     8A     -1.454014     9A     -1.349670
      10A     -1.116304    11A     -1.023254    12A     -0.912178
      13A     -0.844824    14A     -0.735448    15A     -0.704908
      16A     -0.695641    17A     -0.631026    18A     -0.620617
      19A     -0.617496    20A     -0.604787    21A     -0.563519
      22A     -0.514043    23A     -0.511698    24A     -0.500386
      25A     -0.484093    26A     -0.448835    27A     -0.390590

  @DF-RHF Final Energy:  -343.85770880763050

   => Energetics <=

    Nuclear Repulsion Energy =            285.4562731278668366
    One-Electron Energy =               -1034.1520281188800254
    Two-Electron Energy =                 404.8380461833827439
    Total Energy =                       -343.8577088076305017
  Basis Set: (AUG-CC-PVTZ AUX)
    Blend: AUG-CC-PVTZ-RI
    Molecular point group: c1

    Geometry (in Angstrom), charge = 0, multiplicity = 1:

       Center              X                  Y                   Z               Mass
    ------------   -----------------  -----------------  -----------------  -----------------
         O           -2.203712519707    -1.160756472889    -0.000041798281    15.994914619570
         O           -2.004386519707     1.097141527111    -0.000072798281    15.994914619570
         C            2.341193480293     0.598136527111     0.000054201719    12.000000000000
         C            2.880917480293    -0.827367472889     0.000095201719    12.000000000000
         C            0.848666480293     0.721989527111     0.000010201719    12.000000000000
         C            0.002032880293    -0.253959572889     0.000004401719    12.000000000000
         C           -1.479111519707    -0.005816472889    -0.000041798281    12.000000000000
         H            2.728038480293     1.143717527111     0.871545201719     1.007825032230
         H            2.728087480293     1.143685527111    -0.871435798281     1.007825032230
         H            3.973981480293    -0.821603472889     0.000125201719     1.007825032230
         H            2.547395480293    -1.375399472889    -0.885308798281     1.007825032230
         H            2.547345480293    -1.375367472889     0.885499201719     1.007825032230
         H            0.439039480293     1.732427527111    -0.000020798281     1.007825032230
         H            0.266492480293    -1.334699472889     0.000032201719     1.007825032230
         H           -3.141179519707    -0.877228472889    -0.000072798281     1.007825032230

  Basis Set: AUG-CC-PVTZ
    Blend: AUG-CC-PVTZ
  Basis Set: (AUG-CC-PVTZ AUX)
    Blend: AUG-CC-PVTZ-JKFIT
	 Reference Energy          =    -343.8577088076305017 [Eh]
	 Singles Energy            =      -0.0000000000000000 [Eh]
	 Same-Spin Energy          =      -0.3401860746063161 [Eh]
	 Opposite-Spin Energy      =      -1.0986679279970448 [Eh]
	 Correlation Energy        =      -1.4388540026033609 [Eh]
	 Total Energy              =    -345.2965628102338655 [Eh]

	 ================> DF-SCS-MP2 Energies <==================
	-----------------------------------------------------------
	 SCS Same-Spin Scale       =       0.3333333333333333 [-]
	 SCS Opposite-Spin Scale   =       1.2000000000000000 [-]
	 SCS Same-Spin Energy      =      -0.1133953582021054 [Eh]
	 SCS Opposite-Spin Energy  =      -1.3184015135964537 [Eh]
	 SCS Correlation Energy    =      -1.4317968717985592 [Eh]
	 SCS Total Energy          =    -345.2895056794290554 [Eh]
	-----------------------------------------------------------

  Dipole Moment: [D]
     X:     1.6679      Y:    -0.9611      Z:     0.0001     Total:     1.9250

*** Psi4 exiting successfully. Buy a developer a beer!
