                               Psi4 1.3.2 release

  ==> Input File <==

--------------------------------------------------------------------------
#psi4
#
memory 32 gb

molecule  {
0 1
  O        2.1793270    -1.1884030     0.0070830
  O        2.0147220     1.0703310     0.0037530
  C       -2.3333640     0.6373300    -0.0064140
  C       -2.8929490    -0.7786760    -0.0059160
  C       -0.8407100     0.7390270    -0.0031060
  C        0.0222220    -0.2866530     0.0001530
  C        1.4850493    -0.1001700     0.0031737
  H       -2.7101490     1.1874440    -0.8789970
  H       -2.7141290     1.1896330     0.8630350
  H       -3.9853730    -0.7577330    -0.0084480
  H       -2.5694230    -1.3301270     0.8805270
  H       -2.5653610    -1.3323610    -0.8894680
  H       -0.4156920     1.7426300    -0.0033930
  H       -0.2366222    -1.3394415     0.0008956
  H        3.1211320    -0.9203150     0.0096400
units angstrom
no_reorient  #important for SAPT in psi4, default
symmetry c1  #important for SAPT in psi4, default
}

set PROPERTIES_ORIGIN ["COM"]
properties('MP2/aug-cc-pvtz', properties = ['dipole'])
--------------------------------------------------------------------------

    Molecular point group: c1
  Charge       = 0
  Multiplicity = 1
  Basis Set: AUG-CC-PVTZ
    Blend: AUG-CC-PVTZ
  Basis Set: (AUG-CC-PVTZ AUX)
    Blend: AUG-CC-PVTZ-JKFIT

    Orbital Energies [Eh]
    ---------------------

    Doubly Occupied:

       1A    -20.630741     2A    -20.524186     3A    -11.387261
       4A    -11.268970     5A    -11.247208     6A    -11.240448
       7A    -11.227882     8A     -1.483453     9A     -1.312901
      10A     -1.109485    11A     -1.023821    12A     -0.923204
      13A     -0.856059    14A     -0.751960    15A     -0.704367
      16A     -0.701583    17A     -0.642056    18A     -0.627489
      19A     -0.611123    20A     -0.604843    21A     -0.552286
      22A     -0.514420    23A     -0.512320    24A     -0.501546
      25A     -0.464692    26A     -0.438599    27A     -0.376879

  @DF-RHF Final Energy:  -343.84833310793056

   => Energetics <=

    Nuclear Repulsion Energy =            285.3225370025658094
    One-Electron Energy =               -1033.8621806456142167
    Two-Electron Energy =                 404.6913105351178501
    Total Energy =                       -343.8483331079305572
  Basis Set: (AUG-CC-PVTZ AUX)
    Blend: AUG-CC-PVTZ-RI
    Molecular point group: c1

    Geometry (in Angstrom), charge = 0, multiplicity = 1:

       Center              X                  Y                   Z               Mass
    ------------   -----------------  -----------------  -----------------  -----------------
         O            2.177364769073    -1.179100524982     0.007067050230    15.994914619570
         O            2.012759769073     1.079633475018     0.003737050230    15.994914619570
         C           -2.335326230927     0.646632475018    -0.006429949770    12.000000000000
         C           -2.894911230927    -0.769373524982    -0.005931949770    12.000000000000
         C           -0.842672230927     0.748329475018    -0.003121949770    12.000000000000
         C            0.020259769073    -0.277350524982     0.000137050230    12.000000000000
         C            1.483087069073    -0.090867524982     0.003157750230    12.000000000000
         H           -2.712111230927     1.196746475018    -0.879012949770     1.007825032230
         H           -2.716091230927     1.198935475018     0.863019050230     1.007825032230
         H           -3.987335230927    -0.748430524982    -0.008463949770     1.007825032230
         H           -2.571385230927    -1.320824524982     0.880511050230     1.007825032230
         H           -2.567323230927    -1.323058524982    -0.889483949770     1.007825032230
         H           -0.417654230927     1.751932475018    -0.003408949770     1.007825032230
         H           -0.238584430927    -1.330139024982     0.000879650230     1.007825032230
         H            3.119169769073    -0.911012524982     0.009624050230     1.007825032230

  Basis Set: AUG-CC-PVTZ
    Blend: AUG-CC-PVTZ
  Basis Set: (AUG-CC-PVTZ AUX)
    Blend: AUG-CC-PVTZ-JKFIT
	 Reference Energy          =    -343.8483331079305572 [Eh]
	 Singles Energy            =      -0.0000000000000000 [Eh]
	 Same-Spin Energy          =      -0.3413510310036022 [Eh]
	 Opposite-Spin Energy      =      -1.1004713114927209 [Eh]
	 Correlation Energy        =      -1.4418223424963230 [Eh]
	 Total Energy              =    -345.2901554504268802 [Eh]

	 ================> DF-SCS-MP2 Energies <==================
	-----------------------------------------------------------
	 SCS Same-Spin Scale       =       0.3333333333333333 [-]
	 SCS Opposite-Spin Scale   =       1.2000000000000000 [-]
	 SCS Same-Spin Energy      =      -0.1137836770012007 [Eh]
	 SCS Opposite-Spin Energy  =      -1.3205655737912652 [Eh]
	 SCS Correlation Energy    =      -1.4343492507924660 [Eh]
	 SCS Total Energy          =    -345.2826823587230365 [Eh]
	-----------------------------------------------------------

  Dipole Moment: [D]
     X:    -1.6382      Y:    -1.5253      Z:    -0.0020     Total:     2.2383

*** Psi4 exiting successfully. Buy a developer a beer!
