                               Psi4 1.3.2 release

  ==> Input File <==

--------------------------------------------------------------------------
#psi4
#
memory 32 gb

molecule  {
0 1
  O        2.1793270    -1.1884030     0.0070830
  O        2.0147220     1.0703310     0.0037530
  C       -2.3333640     0.6373300    -0.0064140
  C       -2.8929490    -0.7786760    -0.0059160
  C       -0.8418658     0.7533479    -0.0249098
  C        0.0222220    -0.2866530     0.0001530
  C        1.4732850    -0.0238670     0.0030520
  H       -2.6921235     1.1918611    -0.8837853
  H       -2.7141290     1.1896330     0.8630350
  H       -3.9853730    -0.7577330    -0.0084480
  H       -2.5694230    -1.3301270     0.8805270
  H       -2.5653610    -1.3323610    -0.8894680
  H       -0.4156920     1.7426300    -0.0033930
  H       -0.2913660    -1.3244520     0.0007550
  H        3.1211320    -0.9203150     0.0096400
units angstrom
no_reorient  #important for SAPT in psi4, default
symmetry c1  #important for SAPT in psi4, default
}

set PROPERTIES_ORIGIN ["COM"]
properties('MP2/aug-cc-pvtz', properties = ['dipole'])
--------------------------------------------------------------------------

    Molecular point group: c1
  Charge       = 0
  Multiplicity = 1
  Basis Set: AUG-CC-PVTZ
    Blend: AUG-CC-PVTZ
  Basis Set: (AUG-CC-PVTZ AUX)
    Blend: AUG-CC-PVTZ-JKFIT

    Orbital Energies [Eh]
    ---------------------

    Doubly Occupied:

       1A    -20.609946     2A    -20.539427     3A    -11.384943
       4A    -11.268944     5A    -11.247684     6A    -11.241454
       7A    -11.229172     8A     -1.452470     9A     -1.347521
      10A     -1.110200    11A     -1.022973    12A     -0.917541
      13A     -0.841360    14A     -0.740876    15A     -0.704423
      16A     -0.694228    17A     -0.632358    18A     -0.620547
      19A     -0.614916    20A     -0.600448    21A     -0.569248
      22A     -0.516084    23A     -0.510907    24A     -0.508581
      25A     -0.482146    26A     -0.450112    27A     -0.377751

  @DF-RHF Final Energy:  -343.85937572345671

   => Energetics <=

    Nuclear Repulsion Energy =            285.3021180219949429
    One-Electron Energy =               -1033.8504655910421661
    Two-Electron Energy =                 404.6889718455905154
    Total Energy =                       -343.8593757234567079
  Basis Set: (AUG-CC-PVTZ AUX)
    Blend: AUG-CC-PVTZ-RI
    Molecular point group: c1

    Geometry (in Angstrom), charge = 0, multiplicity = 1:

       Center              X                  Y                   Z               Mass
    ------------   -----------------  -----------------  -----------------  -----------------
         O            2.179284230927    -1.190165176413     0.009746380159    15.994914619570
         O            2.014679230927     1.068568823587     0.006416380159    15.994914619570
         C           -2.333406769073     0.635567823587    -0.003750619841    12.000000000000
         C           -2.892991769073    -0.780438176413    -0.003252619841    12.000000000000
         C           -0.841908569073     0.751585723587    -0.022246419841    12.000000000000
         C            0.022179230927    -0.288415176413     0.002816380159    12.000000000000
         C            1.473242230927    -0.025629176413     0.005715380159    12.000000000000
         H           -2.692166269073     1.190098923587    -0.881121919841     1.007825032230
         H           -2.714171769073     1.187870823587     0.865698380159     1.007825032230
         H           -3.985415769073    -0.759495176413    -0.005784619841     1.007825032230
         H           -2.569465769073    -1.331889176413     0.883190380159     1.007825032230
         H           -2.565403769073    -1.334123176413    -0.886804619841     1.007825032230
         H           -0.415734769073     1.740867823587    -0.000729619841     1.007825032230
         H           -0.291408769073    -1.326214176413     0.003418380159     1.007825032230
         H            3.121089230927    -0.922077176413     0.012303380159     1.007825032230

  Basis Set: AUG-CC-PVTZ
    Blend: AUG-CC-PVTZ
  Basis Set: (AUG-CC-PVTZ AUX)
    Blend: AUG-CC-PVTZ-JKFIT
	 Reference Energy          =    -343.8593757234567079 [Eh]
	 Singles Energy            =      -0.0000000000000000 [Eh]
	 Same-Spin Energy          =      -0.3407220426699722 [Eh]
	 Opposite-Spin Energy      =      -1.0995921757577034 [Eh]
	 Correlation Energy        =      -1.4403142184276756 [Eh]
	 Total Energy              =    -345.2996899418843668 [Eh]

	 ================> DF-SCS-MP2 Energies <==================
	-----------------------------------------------------------
	 SCS Same-Spin Scale       =       0.3333333333333333 [-]
	 SCS Opposite-Spin Scale   =       1.2000000000000000 [-]
	 SCS Same-Spin Energy      =      -0.1135740142233241 [Eh]
	 SCS Opposite-Spin Energy  =      -1.3195106109092440 [Eh]
	 SCS Correlation Energy    =      -1.4330846251325682 [Eh]
	 SCS Total Energy          =    -345.2924603485892590 [Eh]
	-----------------------------------------------------------

  Dipole Moment: [D]
     X:    -1.8362      Y:    -0.9203      Z:     0.0105     Total:     2.0540

*** Psi4 exiting successfully. Buy a developer a beer!
