                               Psi4 1.3.2 release

  ==> Input File <==

--------------------------------------------------------------------------
#psi4
#
memory 32 gb

molecule  {
0 1
  O        2.1793270    -1.1884030     0.0070830
  O        2.0147220     1.0703310     0.0037530
  C       -2.3333640     0.6373300    -0.0064140
  C       -2.8929490    -0.7786760    -0.0059160
  C       -0.8407100     0.7390270    -0.0031060
  C        0.0222220    -0.2866530     0.0001530
  C        1.5716842    -0.0060470     0.0032486
  H       -2.7101490     1.1874440    -0.8789970
  H       -2.7141290     1.1896330     0.8630350
  H       -3.9853730    -0.7577330    -0.0084480
  H       -2.5694230    -1.3301270     0.8805270
  H       -2.5653610    -1.3323610    -0.8894680
  H       -0.4156920     1.7426300    -0.0033930
  H       -0.2913660    -1.3244520     0.0007550
  H        3.1211320    -0.9203150     0.0096400
units angstrom
no_reorient  #important for SAPT in psi4, default
symmetry c1  #important for SAPT in psi4, default
}

set PROPERTIES_ORIGIN ["COM"]
properties('MP2/aug-cc-pvtz', properties = ['dipole'])
--------------------------------------------------------------------------

    Molecular point group: c1
  Charge       = 0
  Multiplicity = 1
  Basis Set: AUG-CC-PVTZ
    Blend: AUG-CC-PVTZ
  Basis Set: (AUG-CC-PVTZ AUX)
    Blend: AUG-CC-PVTZ-JKFIT

    Orbital Energies [Eh]
    ---------------------

    Doubly Occupied:

       1A    -20.622846     2A    -20.551118     3A    -11.384708
       4A    -11.252604     5A    -11.239468     6A    -11.236371
       7A    -11.222685     8A     -1.483867     9A     -1.391132
      10A     -1.097705    11A     -1.006296    12A     -0.902969
      13A     -0.839614    14A     -0.737855    15A     -0.711555
      16A     -0.702650    17A     -0.646306    18A     -0.627187
      19A     -0.621614    20A     -0.590806    21A     -0.571669
      22A     -0.509018    23A     -0.506223    24A     -0.502403
      25A     -0.498019    26A     -0.445179    27A     -0.371422

  @DF-RHF Final Energy:  -343.85254819054643

   => Energetics <=

    Nuclear Repulsion Energy =            285.5337249958221832
    One-Electron Energy =               -1034.2259676995638529
    Two-Electron Energy =                 404.8396945131951838
    Total Energy =                       -343.8525481905464289
  Basis Set: (AUG-CC-PVTZ AUX)
    Blend: AUG-CC-PVTZ-RI
    Molecular point group: c1

    Geometry (in Angstrom), charge = 0, multiplicity = 1:

       Center              X                  Y                   Z               Mass
    ------------   -----------------  -----------------  -----------------  -----------------
         O            2.167525461492    -1.190540355070     0.007059483199    15.994914619570
         O            2.002920461492     1.068193644930     0.003729483199    15.994914619570
         C           -2.345165538508     0.635192644930    -0.006437516801    12.000000000000
         C           -2.904750538508    -0.780813355070    -0.005939516801    12.000000000000
         C           -0.852511538508     0.736889644930    -0.003129516801    12.000000000000
         C            0.010420461492    -0.288790355070     0.000129483199    12.000000000000
         C            1.559882661492    -0.008184355070     0.003225083199    12.000000000000
         H           -2.721950538508     1.185306644930    -0.879020516801     1.007825032230
         H           -2.725930538508     1.187495644930     0.863011483199     1.007825032230
         H           -3.997174538508    -0.759870355070    -0.008471516801     1.007825032230
         H           -2.581224538508    -1.332264355070     0.880503483199     1.007825032230
         H           -2.577162538508    -1.334498355070    -0.889491516801     1.007825032230
         H           -0.427493538508     1.740492644930    -0.003416516801     1.007825032230
         H           -0.303167538508    -1.326589355070     0.000731483199     1.007825032230
         H            3.109330461492    -0.922452355070     0.009616483199     1.007825032230

  Basis Set: AUG-CC-PVTZ
    Blend: AUG-CC-PVTZ
  Basis Set: (AUG-CC-PVTZ AUX)
    Blend: AUG-CC-PVTZ-JKFIT
	 Reference Energy          =    -343.8525481905464289 [Eh]
	 Singles Energy            =      -0.0000000000000000 [Eh]
	 Same-Spin Energy          =      -0.3393311178209574 [Eh]
	 Opposite-Spin Energy      =      -1.0971255369985384 [Eh]
	 Correlation Energy        =      -1.4364566548194959 [Eh]
	 Total Energy              =    -345.2890048453659233 [Eh]

	 ================> DF-SCS-MP2 Energies <==================
	-----------------------------------------------------------
	 SCS Same-Spin Scale       =       0.3333333333333333 [-]
	 SCS Opposite-Spin Scale   =       1.2000000000000000 [-]
	 SCS Same-Spin Energy      =      -0.1131103726069858 [Eh]
	 SCS Opposite-Spin Energy  =      -1.3165506443982460 [Eh]
	 SCS Correlation Energy    =      -1.4296610170052317 [Eh]
	 SCS Total Energy          =    -345.2822092075516593 [Eh]
	-----------------------------------------------------------

  Dipole Moment: [D]
     X:    -0.9499      Y:    -0.9299      Z:    -0.0012     Total:     1.3293

*** Psi4 exiting successfully. Buy a developer a beer!
