                               Psi4 1.3.2 release

  ==> Input File <==

--------------------------------------------------------------------------
#psi4
#
memory 32 gb

molecule  {
0 1
  O        2.1793270    -1.1884030     0.0070830
  O        2.0147220     1.0703310     0.0037530
  C       -2.3333640     0.6373300    -0.0064140
  C       -2.8929490    -0.7786760    -0.0059160
  C       -0.8932074     0.6924587    -0.0031628
  C        0.0222220    -0.2866530     0.0001530
  C        1.4850493    -0.1001700     0.0031774
  H       -2.7101490     1.1874440    -0.8789970
  H       -2.7141290     1.1896330     0.8630350
  H       -3.9853730    -0.7577330    -0.0084480
  H       -2.5694230    -1.3301270     0.8805270
  H       -2.5653610    -1.3323610    -0.8894680
  H       -0.4156920     1.7426300    -0.0033930
  H       -0.2913660    -1.3244520     0.0007550
  H        3.1211320    -0.9203150     0.0096400
units angstrom
no_reorient  #important for SAPT in psi4, default
symmetry c1  #important for SAPT in psi4, default
}

set PROPERTIES_ORIGIN ["COM"]
properties('MP2/aug-cc-pvtz', properties = ['dipole'])
--------------------------------------------------------------------------

    Molecular point group: c1
  Charge       = 0
  Multiplicity = 1
  Basis Set: AUG-CC-PVTZ
    Blend: AUG-CC-PVTZ
  Basis Set: (AUG-CC-PVTZ AUX)
    Blend: AUG-CC-PVTZ-JKFIT

    Orbital Energies [Eh]
    ---------------------

    Doubly Occupied:

       1A    -20.631318     2A    -20.525802     3A    -11.390330
       4A    -11.270384     5A    -11.245643     6A    -11.239727
       7A    -11.228085     8A     -1.484008     9A     -1.313879
      10A     -1.117328    11A     -1.024624    12A     -0.924588
      13A     -0.860797    14A     -0.745339    15A     -0.706435
      16A     -0.698373    17A     -0.643228    18A     -0.631413
      19A     -0.621779    20A     -0.596348    21A     -0.553728
      22A     -0.520950    23A     -0.517394    24A     -0.486298
      25A     -0.464965    26A     -0.440446    27A     -0.375597

  @DF-RHF Final Energy:  -343.84179315634884

   => Energetics <=

    Nuclear Repulsion Energy =            285.6816004572754650
    One-Electron Energy =               -1034.5291766568986986
    Two-Electron Energy =                 405.0057830432744481
    Total Energy =                       -343.8417931563488423
  Basis Set: (AUG-CC-PVTZ AUX)
    Blend: AUG-CC-PVTZ-RI
    Molecular point group: c1

    Geometry (in Angstrom), charge = 0, multiplicity = 1:

       Center              X                  Y                   Z               Mass
    ------------   -----------------  -----------------  -----------------  -----------------
         O            2.184212588515    -1.173666246080     0.007074835150    15.994914619570
         O            2.019607588515     1.085067753920     0.003744835150    15.994914619570
         C           -2.328478411485     0.652066753920    -0.006422164850    12.000000000000
         C           -2.888063411485    -0.763939246080    -0.005924164850    12.000000000000
         C           -0.888321811485     0.707195453920    -0.003170964850    12.000000000000
         C            0.027107588515    -0.271916246080     0.000144835150    12.000000000000
         C            1.489934888515    -0.085433246080     0.003169235150    12.000000000000
         H           -2.705263411485     1.202180753920    -0.879005164850     1.007825032230
         H           -2.709243411485     1.204369753920     0.863026835150     1.007825032230
         H           -3.980487411485    -0.742996246080    -0.008456164850     1.007825032230
         H           -2.564537411485    -1.315390246080     0.880518835150     1.007825032230
         H           -2.560475411485    -1.317624246080    -0.889476164850     1.007825032230
         H           -0.410806411485     1.757366753920    -0.003401164850     1.007825032230
         H           -0.286480411485    -1.309715246080     0.000746835150     1.007825032230
         H            3.126017588515    -0.905578246080     0.009631835150     1.007825032230

  Basis Set: AUG-CC-PVTZ
    Blend: AUG-CC-PVTZ
  Basis Set: (AUG-CC-PVTZ AUX)
    Blend: AUG-CC-PVTZ-JKFIT
	 Reference Energy          =    -343.8417931563488423 [Eh]
	 Singles Energy            =      -0.0000000000000000 [Eh]
	 Same-Spin Energy          =      -0.3422609481003910 [Eh]
	 Opposite-Spin Energy      =      -1.1016674337850096 [Eh]
	 Correlation Energy        =      -1.4439283818854007 [Eh]
	 Total Energy              =    -345.2857215382342702 [Eh]

	 ================> DF-SCS-MP2 Energies <==================
	-----------------------------------------------------------
	 SCS Same-Spin Scale       =       0.3333333333333333 [-]
	 SCS Opposite-Spin Scale   =       1.2000000000000000 [-]
	 SCS Same-Spin Energy      =      -0.1140869827001303 [Eh]
	 SCS Opposite-Spin Energy  =      -1.3220009205420116 [Eh]
	 SCS Correlation Energy    =      -1.4360879032421419 [Eh]
	 SCS Total Energy          =    -345.2778810595909817 [Eh]
	-----------------------------------------------------------

  Dipole Moment: [D]
     X:    -1.7087      Y:    -1.5186      Z:    -0.0021     Total:     2.2860

*** Psi4 exiting successfully. Buy a developer a beer!
