                               Psi4 1.3.2 release

  ==> Input File <==

--------------------------------------------------------------------------
#psi4
#
memory 32 gb

molecule  {
0 1
  O        2.1793270    -1.1884030     0.0070830
  O        2.0147220     1.0703310     0.0037530
  C       -2.3333640     0.6373300    -0.0064140
  C       -2.8929490    -0.7786760    -0.0059160
  C       -0.8399714     0.6958960     0.0622728
  C        0.0222220    -0.2866530     0.0001530
  C        1.4732850    -0.0238670     0.0030520
  H       -2.7635151     1.1731929    -0.8630437
  H       -2.7141290     1.1896330     0.8630350
  H       -3.9853730    -0.7577330    -0.0084480
  H       -2.5694230    -1.3301270     0.8805270
  H       -2.5653610    -1.3323610    -0.8894680
  H       -0.4156920     1.7426300    -0.0033930
  H       -0.2913660    -1.3244520     0.0007550
  H        3.1211320    -0.9203150     0.0096400
units angstrom
no_reorient  #important for SAPT in psi4, default
symmetry c1  #important for SAPT in psi4, default
}

set PROPERTIES_ORIGIN ["COM"]
properties('MP2/aug-cc-pvtz', properties = ['dipole'])
--------------------------------------------------------------------------

    Molecular point group: c1
  Charge       = 0
  Multiplicity = 1
  Basis Set: AUG-CC-PVTZ
    Blend: AUG-CC-PVTZ
  Basis Set: (AUG-CC-PVTZ AUX)
    Blend: AUG-CC-PVTZ-JKFIT

    Orbital Energies [Eh]
    ---------------------

    Doubly Occupied:

       1A    -20.612013     2A    -20.542141     3A    -11.387546
       4A    -11.265210     5A    -11.246602     6A    -11.238162
       7A    -11.226757     8A     -1.454547     9A     -1.349608
      10A     -1.115185    11A     -1.027499    12A     -0.913171
      13A     -0.845818    14A     -0.734104    15A     -0.708748
      16A     -0.693850    17A     -0.631829    18A     -0.623282
      19A     -0.617430    20A     -0.600281    21A     -0.569243
      22A     -0.516488    23A     -0.512063    24A     -0.491278
      25A     -0.483770    26A     -0.452468    27A     -0.388533

  @DF-RHF Final Energy:  -343.85568951667818

   => Energetics <=

    Nuclear Repulsion Energy =            285.8401978818246789
    One-Electron Energy =               -1034.8965259355306898
    Two-Electron Energy =                 405.2006385370278281
    Total Energy =                       -343.8556895166781828
  Basis Set: (AUG-CC-PVTZ AUX)
    Blend: AUG-CC-PVTZ-RI
    Molecular point group: c1

    Geometry (in Angstrom), charge = 0, multiplicity = 1:

       Center              X                  Y                   Z               Mass
    ------------   -----------------  -----------------  -----------------  -----------------
         O            2.179776147434    -1.183086516926    -0.000918979084    15.994914619570
         O            2.015171147434     1.075647483074    -0.004248979084    15.994914619570
         C           -2.332914852566     0.642646483074    -0.014415979084    12.000000000000
         C           -2.892499852566    -0.773359516926    -0.013917979084    12.000000000000
         C           -0.839522252566     0.701212483074     0.054270820916    12.000000000000
         C            0.022671147434    -0.281336516926    -0.007848979084    12.000000000000
         C            1.473734147434    -0.018550516926    -0.004949979084    12.000000000000
         H           -2.763065952566     1.178509383074    -0.871045679084     1.007825032230
         H           -2.713679852566     1.194949483074     0.855033020916     1.007825032230
         H           -3.984923852566    -0.752416516926    -0.016449979084     1.007825032230
         H           -2.568973852566    -1.324810516926     0.872525020916     1.007825032230
         H           -2.564911852566    -1.327044516926    -0.897469979084     1.007825032230
         H           -0.415242852566     1.747946483074    -0.011394979084     1.007825032230
         H           -0.290916852566    -1.319135516926    -0.007246979084     1.007825032230
         H            3.121581147434    -0.914998516926     0.001638020916     1.007825032230

  Basis Set: AUG-CC-PVTZ
    Blend: AUG-CC-PVTZ
  Basis Set: (AUG-CC-PVTZ AUX)
    Blend: AUG-CC-PVTZ-JKFIT
	 Reference Energy          =    -343.8556895166781828 [Eh]
	 Singles Energy            =      -0.0000000000000000 [Eh]
	 Same-Spin Energy          =      -0.3406810068567643 [Eh]
	 Opposite-Spin Energy      =      -1.0994641523456345 [Eh]
	 Correlation Energy        =      -1.4401451592023988 [Eh]
	 Total Energy              =    -345.2958346758805988 [Eh]

	 ================> DF-SCS-MP2 Energies <==================
	-----------------------------------------------------------
	 SCS Same-Spin Scale       =       0.3333333333333333 [-]
	 SCS Opposite-Spin Scale   =       1.2000000000000000 [-]
	 SCS Same-Spin Energy      =      -0.1135603356189214 [Eh]
	 SCS Opposite-Spin Energy  =      -1.3193569828147613 [Eh]
	 SCS Correlation Energy    =      -1.4329173184336828 [Eh]
	 SCS Total Energy          =    -345.2886068351118638 [Eh]
	-----------------------------------------------------------

  Dipole Moment: [D]
     X:    -1.7550      Y:    -0.9452      Z:    -0.0443     Total:     1.9939

*** Psi4 exiting successfully. Buy a developer a beer!
