                               Psi4 1.3.2 release

  ==> Input File <==

--------------------------------------------------------------------------
#psi4
#
memory 32 gb

molecule  {
0 1
  O        2.2393063    -1.1498552     0.0072601
  O        2.0712454     1.0404949     0.0039995
  C       -2.3333640     0.6373300    -0.0064140
  C       -2.8929490    -0.7786760    -0.0059160
  C       -0.8407100     0.7390270    -0.0031060
  C        0.0222220    -0.2866530     0.0001530
  C        1.4732850    -0.0238670     0.0030520
  H       -2.7101490     1.1874440    -0.8789970
  H       -2.7141290     1.1896330     0.8630350
  H       -3.9853730    -0.7577330    -0.0084480
  H       -2.5694230    -1.3301270     0.8805270
  H       -2.5653610    -1.3323610    -0.8894680
  H       -0.4156920     1.7426300    -0.0033930
  H       -0.2913660    -1.3244520     0.0007550
  H        3.1211320    -0.9203150     0.0096400
units angstrom
no_reorient  #important for SAPT in psi4, default
symmetry c1  #important for SAPT in psi4, default
}

set PROPERTIES_ORIGIN ["COM"]
properties('MP2/aug-cc-pvtz', properties = ['dipole'])
--------------------------------------------------------------------------

    Molecular point group: c1
  Charge       = 0
  Multiplicity = 1
  Basis Set: AUG-CC-PVTZ
    Blend: AUG-CC-PVTZ
  Basis Set: (AUG-CC-PVTZ AUX)
    Blend: AUG-CC-PVTZ-JKFIT

    Orbital Energies [Eh]
    ---------------------

    Doubly Occupied:

       1A    -20.594779     2A    -20.535542     3A    -11.385446
       4A    -11.272951     5A    -11.250392     6A    -11.246793
       7A    -11.230866     8A     -1.460106     9A     -1.343327
      10A     -1.115805    11A     -1.028615    12A     -0.921888
      13A     -0.852272    14A     -0.746727    15A     -0.712607
      16A     -0.690442    17A     -0.633807    18A     -0.619212
      19A     -0.615012    20A     -0.606732    21A     -0.568757
      22A     -0.517438    23A     -0.515589    24A     -0.508256
      25A     -0.477361    26A     -0.447919    27A     -0.384806

  @DF-RHF Final Energy:  -343.85841180903873

   => Energetics <=

    Nuclear Repulsion Energy =            285.3656572723819522
    One-Electron Energy =               -1033.8812394831181791
    Two-Electron Energy =                 404.6571704016975559
    Total Energy =                       -343.8584118090387278
  Basis Set: (AUG-CC-PVTZ AUX)
    Blend: AUG-CC-PVTZ-RI
    Molecular point group: c1

    Geometry (in Angstrom), charge = 0, multiplicity = 1:

       Center              X                  Y                   Z               Mass
    ------------   -----------------  -----------------  -----------------  -----------------
         O            2.220681735376    -1.151247974426     0.007192443883    15.994914619570
         O            2.052620835376     1.039102125574     0.003931843883    15.994914619570
         C           -2.351988564624     0.635937225574    -0.006481656117    12.000000000000
         C           -2.911573564624    -0.780068774426    -0.005983656117    12.000000000000
         C           -0.859334564624     0.737634225574    -0.003173656117    12.000000000000
         C            0.003597435376    -0.288045774426     0.000085343883    12.000000000000
         C            1.454660435376    -0.025259774426     0.002984343883    12.000000000000
         H           -2.728773564624     1.186051225574    -0.879064656117     1.007825032230
         H           -2.732753564624     1.188240225574     0.862967343883     1.007825032230
         H           -4.003997564624    -0.759125774426    -0.008515656117     1.007825032230
         H           -2.588047564624    -1.331519774426     0.880459343883     1.007825032230
         H           -2.583985564624    -1.333753774426    -0.889535656117     1.007825032230
         H           -0.434316564624     1.741237225574    -0.003460656117     1.007825032230
         H           -0.309990564624    -1.325844774426     0.000687343883     1.007825032230
         H            3.102507435376    -0.921707774426     0.009572343883     1.007825032230

  Basis Set: AUG-CC-PVTZ
    Blend: AUG-CC-PVTZ
  Basis Set: (AUG-CC-PVTZ AUX)
    Blend: AUG-CC-PVTZ-JKFIT
	 Reference Energy          =    -343.8584118090387278 [Eh]
	 Singles Energy            =      -0.0000000000000000 [Eh]
	 Same-Spin Energy          =      -0.3392843849804748 [Eh]
	 Opposite-Spin Energy      =      -1.0965094579050390 [Eh]
	 Correlation Energy        =      -1.4357938428855137 [Eh]
	 Total Energy              =    -345.2942056519242442 [Eh]

	 ================> DF-SCS-MP2 Energies <==================
	-----------------------------------------------------------
	 SCS Same-Spin Scale       =       0.3333333333333333 [-]
	 SCS Opposite-Spin Scale   =       1.2000000000000000 [-]
	 SCS Same-Spin Energy      =      -0.1130947949934916 [Eh]
	 SCS Opposite-Spin Energy  =      -1.3158113494860466 [Eh]
	 SCS Correlation Energy    =      -1.4289061444795381 [Eh]
	 SCS Total Energy          =    -345.2873179535182544 [Eh]
	-----------------------------------------------------------

  Dipole Moment: [D]
     X:    -2.2202      Y:    -0.8595      Z:    -0.0047     Total:     2.3807

*** Psi4 exiting successfully. Buy a developer a beer!
