                               Psi4 1.4a3.dev225

  ==> Input File <==

--------------------------------------------------------------------------
#psi4
#
memory 32 gb

molecule  {
0 1
  O       -2.3109350    -1.1403470    -0.0000450
  O       -2.1116090     1.1175510    -0.0000760
  C        2.2339710     0.6185460     0.0000510
  C        2.7736950    -0.8069580     0.0000920
  C        0.7414440     0.7423990     0.0000070
  C       -0.1379540    -0.2713190     0.0000010
  C       -1.5863340     0.0145930    -0.0000450
  H        2.6208160     1.1641270     0.8715420
  H        2.6208650     1.1640950    -0.8714390
  H        3.8667590    -0.8011940     0.0001220
  H        2.4401730    -1.3549900    -0.8853120
  H        2.4401230    -1.3549580     0.8854960
  H        0.3318170     1.7528370    -0.0000240
  H        0.1592700    -1.3142900     0.0000290
  H       -3.2962610    -0.8423445    -0.0000776
units angstrom
no_reorient  #important for SAPT in psi4, default
symmetry c1  #important for SAPT in psi4, default
}

set PROPERTIES_ORIGIN ["COM"]
properties('MP2/aug-cc-pvtz', properties = ['dipole'])
--------------------------------------------------------------------------

    Molecular point group: c1
  Charge       = 0
  Multiplicity = 1
  Basis Set: AUG-CC-PVTZ
    Blend: AUG-CC-PVTZ
  Basis Set: (AUG-CC-PVTZ AUX)
    Blend: AUG-CC-PVTZ-JKFIT

    Orbital Energies [Eh]
    ---------------------

    Doubly Occupied:

       1A    -20.613405     2A    -20.539511     3A    -11.385228
       4A    -11.268030     5A    -11.247602     6A    -11.240913
       7A    -11.228741     8A     -1.445499     9A     -1.343150
      10A     -1.110243    11A     -1.022795    12A     -0.913859
      13A     -0.836975    14A     -0.737427    15A     -0.702071
      16A     -0.689405    17A     -0.631075    18A     -0.618763
      19A     -0.614536    20A     -0.598521    21A     -0.567346
      22A     -0.514793    23A     -0.511900    24A     -0.504473
      25A     -0.480998    26A     -0.449839    27A     -0.380126

  @DF-RHF Final Energy:  -343.85479563672135

   => Energetics <=

    Nuclear Repulsion Energy =            284.8885330478613014
    One-Electron Energy =               -1033.0922101667017614
    Two-Electron Energy =                 404.3488814821191113
    Total Energy =                       -343.8547956367213487
  Basis Set: (AUG-CC-PVTZ AUX)
    Blend: AUG-CC-PVTZ-RI
    Molecular point group: c1

    Geometry (in Angstrom), charge = 0, multiplicity = 1:

       Center              X                  Y                   Z               Mass
    ------------   -----------------  -----------------  -----------------  -----------------
         O           -2.199300769783    -1.156372381081    -0.000041758176    15.994914619570
         O           -1.999974769783     1.101525618919    -0.000072758176    15.994914619570
         C            2.345605230217     0.602520618919     0.000054241824    12.000000000000
         C            2.885329230217    -0.822983381081     0.000095241824    12.000000000000
         C            0.853078230217     0.726373618919     0.000010241824    12.000000000000
         C           -0.026319769783    -0.287344381081     0.000004241824    12.000000000000
         C           -1.474699769783    -0.001432381081    -0.000041758176    12.000000000000
         H            2.732450230217     1.148101618919     0.871545241824     1.007825032230
         H            2.732499230217     1.148069618919    -0.871435758176     1.007825032230
         H            3.978393230217    -0.817219381081     0.000125241824     1.007825032230
         H            2.551807230217    -1.371015381081    -0.885308758176     1.007825032230
         H            2.551757230217    -1.370983381081     0.885499241824     1.007825032230
         H            0.443451230217     1.736811618919    -0.000020758176     1.007825032230
         H            0.270904230217    -1.330315381081     0.000032241824     1.007825032230
         H           -3.184626769783    -0.858369881081    -0.000074358176     1.007825032230

  Basis Set: AUG-CC-PVTZ
    Blend: AUG-CC-PVTZ
  Basis Set: (AUG-CC-PVTZ AUX)
    Blend: AUG-CC-PVTZ-JKFIT
	 Reference Energy          =    -343.8547956367213487 [Eh]
	 Singles Energy            =      -0.0000000000000000 [Eh]
	 Same-Spin Energy          =      -0.3412796328934093 [Eh]
	 Opposite-Spin Energy      =      -1.1011112591260195 [Eh]
	 Correlation Energy        =      -1.4423908920194288 [Eh]
	 Total Energy              =    -345.2971865287407809 [Eh]

	 ================> DF-SCS-MP2 Energies <==================
	-----------------------------------------------------------
	 SCS Same-Spin Scale       =       0.3333333333333333 [-]
	 SCS Opposite-Spin Scale   =       1.2000000000000000 [-]
	 SCS Same-Spin Energy      =      -0.1137598776311364 [Eh]
	 SCS Opposite-Spin Energy  =      -1.3213335109512234 [Eh]
	 SCS Correlation Energy    =      -1.4350933885823598 [Eh]
	 SCS Total Energy          =    -345.2898890253036939 [Eh]
	-----------------------------------------------------------

  Dipole Moment: [D]
     X:     1.7448      Y:    -0.9462      Z:     0.0001     Total:     1.9849

*** Psi4 exiting successfully. Buy a developer a beer!
