                               Psi4 1.4a3.dev225

  ==> Input File <==

--------------------------------------------------------------------------
#psi4
#
memory 32 gb

molecule  {
0 1
  O       -2.3109350    -1.1403470    -0.0000450
  O       -2.1116090     1.1175510    -0.0000760
  C        2.2339710     0.6185460     0.0000510
  C        2.7736950    -0.8069580     0.0000920
  C        0.7414440     0.7423990     0.0000070
  C       -0.1248482    -0.2562114     0.0000011
  C       -1.5863340     0.0145930    -0.0000450
  H        2.6208160     1.1641270     0.8715420
  H        2.6208650     1.1640950    -0.8714390
  H        3.8667590    -0.8011940     0.0001220
  H        2.4401730    -1.3549900    -0.8853120
  H        2.4401230    -1.3549580     0.8854960
  H        0.3318170     1.7528370    -0.0000240
  H        0.1592700    -1.3142900     0.0000290
  H       -3.2484020    -0.8568190    -0.0000760
units angstrom
no_reorient  #important for SAPT in psi4, default
symmetry c1  #important for SAPT in psi4, default
}

set PROPERTIES_ORIGIN ["COM"]
properties('MP2/aug-cc-pvtz', properties = ['dipole'])
--------------------------------------------------------------------------

    Molecular point group: c1
  Charge       = 0
  Multiplicity = 1
  Basis Set: AUG-CC-PVTZ
    Blend: AUG-CC-PVTZ
  Basis Set: (AUG-CC-PVTZ AUX)
    Blend: AUG-CC-PVTZ-JKFIT

    Orbital Energies [Eh]
    ---------------------

    Doubly Occupied:

       1A    -20.611868     2A    -20.541260     3A    -11.387240
       4A    -11.263724     5A    -11.246834     6A    -11.240646
       7A    -11.228342     8A     -1.452975     9A     -1.348509
      10A     -1.112726    11A     -1.023468    12A     -0.914538
      13A     -0.843236    14A     -0.737535    15A     -0.704904
      16A     -0.694709    17A     -0.631300    18A     -0.620420
      19A     -0.616277    20A     -0.602486    21A     -0.567038
      22A     -0.514591    23A     -0.512083    24A     -0.503055
      25A     -0.483183    26A     -0.450153    27A     -0.384391

  @DF-RHF Final Energy:  -343.86003313567142

   => Energetics <=

    Nuclear Repulsion Energy =            285.2819900267445519
    One-Electron Energy =               -1033.8090628734389611
    Two-Electron Energy =                 404.6670397110229942
    Total Energy =                       -343.8600331356714150
  Basis Set: (AUG-CC-PVTZ AUX)
    Blend: AUG-CC-PVTZ-RI
    Molecular point group: c1

    Geometry (in Angstrom), charge = 0, multiplicity = 1:

       Center              X                  Y                   Z               Mass
    ------------   -----------------  -----------------  -----------------  -----------------
         O           -2.201354723888    -1.158038541887    -0.000041786287    15.994914619570
         O           -2.002028723888     1.099859458113    -0.000072786287    15.994914619570
         C            2.343551276112     0.600854458113     0.000054213713    12.000000000000
         C            2.883275276112    -0.824649541887     0.000095213713    12.000000000000
         C            0.851024276112     0.724707458113     0.000010213713    12.000000000000
         C           -0.015267923888    -0.273902941887     0.000004313713    12.000000000000
         C           -1.476753723888    -0.003098541887    -0.000041786287    12.000000000000
         H            2.730396276112     1.146435458113     0.871545213713     1.007825032230
         H            2.730445276112     1.146403458113    -0.871435786287     1.007825032230
         H            3.976339276112    -0.818885541887     0.000125213713     1.007825032230
         H            2.549753276112    -1.372681541887    -0.885308786287     1.007825032230
         H            2.549703276112    -1.372649541887     0.885499213713     1.007825032230
         H            0.441397276112     1.735145458113    -0.000020786287     1.007825032230
         H            0.268850276112    -1.331981541887     0.000032213713     1.007825032230
         H           -3.138821723888    -0.874510541887    -0.000072786287     1.007825032230

  Basis Set: AUG-CC-PVTZ
    Blend: AUG-CC-PVTZ
  Basis Set: (AUG-CC-PVTZ AUX)
    Blend: AUG-CC-PVTZ-JKFIT
	 Reference Energy          =    -343.8600331356714150 [Eh]
	 Singles Energy            =      -0.0000000000000000 [Eh]
	 Same-Spin Energy          =      -0.3404346082910776 [Eh]
	 Opposite-Spin Energy      =      -1.0991632402587721 [Eh]
	 Correlation Energy        =      -1.4395978485498497 [Eh]
	 Total Energy              =    -345.2996309842212668 [Eh]

	 ================> DF-SCS-MP2 Energies <==================
	-----------------------------------------------------------
	 SCS Same-Spin Scale       =       0.3333333333333333 [-]
	 SCS Opposite-Spin Scale   =       1.2000000000000000 [-]
	 SCS Same-Spin Energy      =      -0.1134782027636925 [Eh]
	 SCS Opposite-Spin Energy  =      -1.3189958883105264 [Eh]
	 SCS Correlation Energy    =      -1.4324740910742189 [Eh]
	 SCS Total Energy          =    -345.2925072267456130 [Eh]
	-----------------------------------------------------------

  Dipole Moment: [D]
     X:     1.7535      Y:    -0.9524      Z:     0.0001     Total:     1.9954

*** Psi4 exiting successfully. Buy a developer a beer!
