                               Psi4 1.3.2 release

  ==> Input File <==

--------------------------------------------------------------------------
#psi4
#
memory 32 gb

molecule  {
0 1
  O        2.1174125    -1.2237589     0.0068949
  O        1.9567146     1.0971680     0.0035046
  C       -2.3333640     0.6373300    -0.0064140
  C       -2.8929490    -0.7786760    -0.0059160
  C       -0.8407100     0.7390270    -0.0031060
  C        0.0222220    -0.2866530     0.0001530
  C        1.4732850    -0.0238670     0.0030520
  H       -2.7101490     1.1874440    -0.8789970
  H       -2.7141290     1.1896330     0.8630350
  H       -3.9853730    -0.7577330    -0.0084480
  H       -2.5694230    -1.3301270     0.8805270
  H       -2.5653610    -1.3323610    -0.8894680
  H       -0.4156920     1.7426300    -0.0033930
  H       -0.2913660    -1.3244520     0.0007550
  H        3.1211320    -0.9203150     0.0096400
units angstrom
no_reorient  #important for SAPT in psi4, default
symmetry c1  #important for SAPT in psi4, default
}

set PROPERTIES_ORIGIN ["COM"]
properties('MP2/aug-cc-pvtz', properties = ['dipole'])
--------------------------------------------------------------------------

    Molecular point group: c1
  Charge       = 0
  Multiplicity = 1
  Basis Set: AUG-CC-PVTZ
    Blend: AUG-CC-PVTZ
  Basis Set: (AUG-CC-PVTZ AUX)
    Blend: AUG-CC-PVTZ-JKFIT

    Orbital Energies [Eh]
    ---------------------

    Doubly Occupied:

       1A    -20.624405     2A    -20.544284     3A    -11.386438
       4A    -11.262459     5A    -11.244292     6A    -11.233974
       7A    -11.226239     8A     -1.447740     9A     -1.353030
      10A     -1.106955    11A     -1.019731    12A     -0.911436
      13A     -0.834174    14A     -0.734171    15A     -0.699870
      16A     -0.694385    17A     -0.630985    18A     -0.621458
      19A     -0.617148    20A     -0.593633    21A     -0.568944
      22A     -0.512498    23A     -0.509040    24A     -0.501496
      25A     -0.487409    26A     -0.450887    27A     -0.376225

  @DF-RHF Final Energy:  -343.84759131012351

   => Energetics <=

    Nuclear Repulsion Energy =            285.7070381766293963
    One-Electron Energy =               -1034.7226478237230367
    Two-Electron Energy =                 405.1680183369701922
    Total Energy =                       -343.8475913101235051
  Basis Set: (AUG-CC-PVTZ AUX)
    Blend: AUG-CC-PVTZ-RI
    Molecular point group: c1

    Geometry (in Angstrom), charge = 0, multiplicity = 1:

       Center              X                  Y                   Z               Mass
    ------------   -----------------  -----------------  -----------------  -----------------
         O            2.136584031982    -1.222397098878     0.006964744053    15.994914619570
         O            1.975886131982     1.098529801122     0.003574444053    15.994914619570
         C           -2.314192468018     0.638691801122    -0.006344155947    12.000000000000
         C           -2.873777468018    -0.777314198878    -0.005846155947    12.000000000000
         C           -0.821538468018     0.740388801122    -0.003036155947    12.000000000000
         C            0.041393531982    -0.285291198878     0.000222844053    12.000000000000
         C            1.492456531982    -0.022505198878     0.003121844053    12.000000000000
         H           -2.690977468018     1.188805801122    -0.878927155947     1.007825032230
         H           -2.694957468018     1.190994801122     0.863104844053     1.007825032230
         H           -3.966201468018    -0.756371198878    -0.008378155947     1.007825032230
         H           -2.550251468018    -1.328765198878     0.880596844053     1.007825032230
         H           -2.546189468018    -1.330999198878    -0.889398155947     1.007825032230
         H           -0.396520468018     1.743991801122    -0.003323155947     1.007825032230
         H           -0.272194468018    -1.323090198878     0.000824844053     1.007825032230
         H            3.140303531982    -0.918953198878     0.009709844053     1.007825032230

  Basis Set: AUG-CC-PVTZ
    Blend: AUG-CC-PVTZ
  Basis Set: (AUG-CC-PVTZ AUX)
    Blend: AUG-CC-PVTZ-JKFIT
	 Reference Energy          =    -343.8475913101235051 [Eh]
	 Singles Energy            =      -0.0000000000000000 [Eh]
	 Same-Spin Energy          =      -0.3422795214158753 [Eh]
	 Opposite-Spin Energy      =      -1.1030048175515521 [Eh]
	 Correlation Energy        =      -1.4452843389674275 [Eh]
	 Total Energy              =    -345.2928756490909450 [Eh]

	 ================> DF-SCS-MP2 Energies <==================
	-----------------------------------------------------------
	 SCS Same-Spin Scale       =       0.3333333333333333 [-]
	 SCS Opposite-Spin Scale   =       1.2000000000000000 [-]
	 SCS Same-Spin Energy      =      -0.1140931738052917 [Eh]
	 SCS Opposite-Spin Energy  =      -1.3236057810618624 [Eh]
	 SCS Correlation Energy    =      -1.4376989548671542 [Eh]
	 SCS Total Energy          =    -345.2852902649906355 [Eh]
	-----------------------------------------------------------

  Dipole Moment: [D]
     X:    -1.4331      Y:    -0.9772      Z:    -0.0020     Total:     1.7346

*** Psi4 exiting successfully. Buy a developer a beer!
