                               Psi4 1.3.2 release

  ==> Input File <==

--------------------------------------------------------------------------
#psi4
#
memory 32 gb

molecule  {
0 1
  O        2.1894625    -1.1821973     0.0070944
  O        2.0147220     1.0703310     0.0037530
  C       -2.3333640     0.6373300    -0.0064140
  C       -2.8929490    -0.7786760    -0.0059160
  C       -0.8407100     0.7390270    -0.0031060
  C        0.0199841    -0.2739802     0.0001220
  C        1.4732850    -0.0238670     0.0030520
  H       -2.7101490     1.1874440    -0.8789970
  H       -2.7141290     1.1896330     0.8630350
  H       -3.9853730    -0.7577330    -0.0084480
  H       -2.5694230    -1.3301270     0.8805270
  H       -2.5653610    -1.3323610    -0.8894680
  H       -0.4156920     1.7426300    -0.0033930
  H       -0.2913660    -1.3244520     0.0007550
  H        3.1211320    -0.9203150     0.0096400
units angstrom
no_reorient  #important for SAPT in psi4, default
symmetry c1  #important for SAPT in psi4, default
}

set PROPERTIES_ORIGIN ["COM"]
properties('MP2/aug-cc-pvtz', properties = ['dipole'])
--------------------------------------------------------------------------

    Molecular point group: c1
  Charge       = 0
  Multiplicity = 1
  Basis Set: AUG-CC-PVTZ
    Blend: AUG-CC-PVTZ
  Basis Set: (AUG-CC-PVTZ AUX)
    Blend: AUG-CC-PVTZ-JKFIT

    Orbital Energies [Eh]
    ---------------------

    Doubly Occupied:

       1A    -20.609592     2A    -20.539706     3A    -11.385843
       4A    -11.265813     5A    -11.247330     6A    -11.240627
       7A    -11.228483     8A     -1.454520     9A     -1.348428
      10A     -1.112929    11A     -1.024977    12A     -0.916731
      13A     -0.845052    14A     -0.738381    15A     -0.707270
      16A     -0.694333    17A     -0.632071    18A     -0.620867
      19A     -0.616153    20A     -0.601947    21A     -0.567900
      22A     -0.515031    23A     -0.512848    24A     -0.503784
      25A     -0.482667    26A     -0.450298    27A     -0.383035

  @DF-RHF Final Energy:  -343.86109255753536

   => Energetics <=

    Nuclear Repulsion Energy =            285.5745621087964423
    One-Electron Energy =               -1034.3780748578969906
    Two-Electron Energy =                 404.9424201915651338
    Total Energy =                       -343.8610925575353576
  Basis Set: (AUG-CC-PVTZ AUX)
    Blend: AUG-CC-PVTZ-RI
    Molecular point group: c1

    Geometry (in Angstrom), charge = 0, multiplicity = 1:

       Center              X                  Y                   Z               Mass
    ------------   -----------------  -----------------  -----------------  -----------------
         O            2.188110770139    -1.184709391014     0.007096358423    15.994914619570
         O            2.013370270139     1.067818908986     0.003754958423    15.994914619570
         C           -2.334715729861     0.634817908986    -0.006412041577    12.000000000000
         C           -2.894300729861    -0.781188091014    -0.005914041577    12.000000000000
         C           -0.842061729861     0.736514908986    -0.003104041577    12.000000000000
         C            0.018632370139    -0.276492291014     0.000123958423    12.000000000000
         C            1.471933270139    -0.026379091014     0.003053958423    12.000000000000
         H           -2.711500729861     1.184931908986    -0.878995041577     1.007825032230
         H           -2.715480729861     1.187120908986     0.863036958423     1.007825032230
         H           -3.986724729861    -0.760245091014    -0.008446041577     1.007825032230
         H           -2.570774729861    -1.332639091014     0.880528958423     1.007825032230
         H           -2.566712729861    -1.334873091014    -0.889466041577     1.007825032230
         H           -0.417043729861     1.740117908986    -0.003391041577     1.007825032230
         H           -0.292717729861    -1.326964091014     0.000756958423     1.007825032230
         H            3.119780270139    -0.922827091014     0.009641958423     1.007825032230

  Basis Set: AUG-CC-PVTZ
    Blend: AUG-CC-PVTZ
  Basis Set: (AUG-CC-PVTZ AUX)
    Blend: AUG-CC-PVTZ-JKFIT
	 Reference Energy          =    -343.8610925575353576 [Eh]
	 Singles Energy            =      -0.0000000000000000 [Eh]
	 Same-Spin Energy          =      -0.3403354298721639 [Eh]
	 Opposite-Spin Energy      =      -1.0987374570126023 [Eh]
	 Correlation Energy        =      -1.4390728868847662 [Eh]
	 Total Energy              =    -345.3001654444201449 [Eh]

	 ================> DF-SCS-MP2 Energies <==================
	-----------------------------------------------------------
	 SCS Same-Spin Scale       =       0.3333333333333333 [-]
	 SCS Opposite-Spin Scale   =       1.2000000000000000 [-]
	 SCS Same-Spin Energy      =      -0.1134451432907213 [Eh]
	 SCS Opposite-Spin Energy  =      -1.3184849484151226 [Eh]
	 SCS Correlation Energy    =      -1.4319300917058440 [Eh]
	 SCS Total Energy          =    -345.2930226492412089 [Eh]
	-----------------------------------------------------------

  Dipole Moment: [D]
     X:    -1.8273      Y:    -0.9256      Z:    -0.0033     Total:     2.0483

*** Psi4 exiting successfully. Buy a developer a beer!
