                               Psi4 1.3.2 release

  ==> Input File <==

--------------------------------------------------------------------------
#psi4
#
memory 32 gb

molecule  {
0 1
  O        2.1793270    -1.1884030     0.0070830
  O        2.0147220     1.0703310     0.0037530
  C       -2.3349114     0.6633959    -0.0064499
  C       -2.8929490    -0.7786760    -0.0059160
  C       -0.8407100     0.7390270    -0.0031060
  C        0.0399912    -0.2714365     0.0001750
  C        1.4732850    -0.0238670     0.0030520
  H       -2.7101490     1.1874440    -0.8789970
  H       -2.7141290     1.1896330     0.8630350
  H       -3.9853730    -0.7577330    -0.0084480
  H       -2.5694230    -1.3301270     0.8805270
  H       -2.5653610    -1.3323610    -0.8894680
  H       -0.4156920     1.7426300    -0.0033930
  H       -0.2913660    -1.3244520     0.0007550
  H        3.1211320    -0.9203150     0.0096400
units angstrom
no_reorient  #important for SAPT in psi4, default
symmetry c1  #important for SAPT in psi4, default
}

set PROPERTIES_ORIGIN ["COM"]
properties('MP2/aug-cc-pvtz', properties = ['dipole'])
--------------------------------------------------------------------------

    Molecular point group: c1
  Charge       = 0
  Multiplicity = 1
  Basis Set: AUG-CC-PVTZ
    Blend: AUG-CC-PVTZ
  Basis Set: (AUG-CC-PVTZ AUX)
    Blend: AUG-CC-PVTZ-JKFIT

    Orbital Energies [Eh]
    ---------------------

    Doubly Occupied:

       1A    -20.610365     2A    -20.539084     3A    -11.384338
       4A    -11.268600     5A    -11.247314     6A    -11.240762
       7A    -11.229529     8A     -1.453103     9A     -1.347795
      10A     -1.110564    11A     -1.024252    12A     -0.917698
      13A     -0.845759    14A     -0.736931    15A     -0.707192
      16A     -0.693548    17A     -0.634091    18A     -0.621561
      19A     -0.615801    20A     -0.597689    21A     -0.566972
      22A     -0.519487    23A     -0.516219    24A     -0.496516
      25A     -0.482850    26A     -0.451005    27A     -0.381539

  @DF-RHF Final Energy:  -343.85893768277407

   => Energetics <=

    Nuclear Repulsion Energy =            285.4272973898828241
    One-Electron Energy =               -1034.0913424494576702
    Two-Electron Energy =                 404.8051073768007768
    Total Energy =                       -343.8589376827740693
  Basis Set: (AUG-CC-PVTZ AUX)
    Blend: AUG-CC-PVTZ-RI
    Molecular point group: c1

    Geometry (in Angstrom), charge = 0, multiplicity = 1:

       Center              X                  Y                   Z               Mass
    ------------   -----------------  -----------------  -----------------  -----------------
         O            2.177381581978    -1.193354367697     0.007084729963    15.994914619570
         O            2.012776581978     1.065379632303     0.003754729963    15.994914619570
         C           -2.336856818022     0.658444532303    -0.006448170037    12.000000000000
         C           -2.894894418022    -0.783627367697    -0.005914270037    12.000000000000
         C           -0.842655418022     0.734075632303    -0.003104270037    12.000000000000
         C            0.038045781978    -0.276387867697     0.000176729963    12.000000000000
         C            1.471339581978    -0.028818367697     0.003053729963    12.000000000000
         H           -2.712094418022     1.182492632303    -0.878995270037     1.007825032230
         H           -2.716074418022     1.184681632303     0.863036729963     1.007825032230
         H           -3.987318418022    -0.762684367697    -0.008446270037     1.007825032230
         H           -2.571368418022    -1.335078367697     0.880528729963     1.007825032230
         H           -2.567306418022    -1.337312367697    -0.889466270037     1.007825032230
         H           -0.417637418022     1.737678632303    -0.003391270037     1.007825032230
         H           -0.293311418022    -1.329403367697     0.000756729963     1.007825032230
         H            3.119186581978    -0.925266367697     0.009641729963     1.007825032230

  Basis Set: AUG-CC-PVTZ
    Blend: AUG-CC-PVTZ
  Basis Set: (AUG-CC-PVTZ AUX)
    Blend: AUG-CC-PVTZ-JKFIT
	 Reference Energy          =    -343.8589376827740693 [Eh]
	 Singles Energy            =      -0.0000000000000000 [Eh]
	 Same-Spin Energy          =      -0.3406057936718008 [Eh]
	 Opposite-Spin Energy      =      -1.0994797618325989 [Eh]
	 Correlation Energy        =      -1.4400855555043997 [Eh]
	 Total Energy              =    -345.2990232382784939 [Eh]

	 ================> DF-SCS-MP2 Energies <==================
	-----------------------------------------------------------
	 SCS Same-Spin Scale       =       0.3333333333333333 [-]
	 SCS Opposite-Spin Scale   =       1.2000000000000000 [-]
	 SCS Same-Spin Energy      =      -0.1135352645572669 [Eh]
	 SCS Opposite-Spin Energy  =      -1.3193757141991187 [Eh]
	 SCS Correlation Energy    =      -1.4329109787563856 [Eh]
	 SCS Total Energy          =    -345.2918486615304801 [Eh]
	-----------------------------------------------------------

  Dipole Moment: [D]
     X:    -1.8438      Y:    -0.9075      Z:    -0.0034     Total:     2.0550

*** Psi4 exiting successfully. Buy a developer a beer!
