                               Psi4 1.3.2 release

  ==> Input File <==

--------------------------------------------------------------------------
#psi4
#
memory 32 gb

molecule  {
0 1
  O        2.1793270    -1.1884030     0.0070830
  O        2.0147220     1.0703310     0.0037530
  C       -2.3333640     0.6373300    -0.0064140
  C       -2.8525204    -0.7923855     0.0614014
  C       -0.8407100     0.7390270    -0.0031060
  C        0.0222220    -0.2866530     0.0001530
  C        1.4732850    -0.0238670     0.0030520
  H       -2.6800407     1.2331185    -0.8613086
  H       -2.7141290     1.1896330     0.8630350
  H       -3.9853730    -0.7577330    -0.0084480
  H       -2.5694230    -1.3301270     0.8805270
  H       -2.5653610    -1.3323610    -0.8894680
  H       -0.4156920     1.7426300    -0.0033930
  H       -0.2913660    -1.3244520     0.0007550
  H        3.1211320    -0.9203150     0.0096400
units angstrom
no_reorient  #important for SAPT in psi4, default
symmetry c1  #important for SAPT in psi4, default
}

set PROPERTIES_ORIGIN ["COM"]
properties('MP2/aug-cc-pvtz', properties = ['dipole'])
--------------------------------------------------------------------------

    Molecular point group: c1
  Charge       = 0
  Multiplicity = 1
  Basis Set: AUG-CC-PVTZ
    Blend: AUG-CC-PVTZ
  Basis Set: (AUG-CC-PVTZ AUX)
    Blend: AUG-CC-PVTZ-JKFIT

    Orbital Energies [Eh]
    ---------------------

    Doubly Occupied:

       1A    -20.610072     2A    -20.539564     3A    -11.385093
       4A    -11.266779     5A    -11.248317     6A    -11.239516
       7A    -11.230537     8A     -1.452567     9A     -1.347593
      10A     -1.112116    11A     -1.023612    12A     -0.917419
      13A     -0.844149    14A     -0.738685    15A     -0.704938
      16A     -0.693833    17A     -0.635177    18A     -0.621516
      19A     -0.612728    20A     -0.602971    21A     -0.565027
      22A     -0.535644    23A     -0.500344    24A     -0.496914
      25A     -0.482108    26A     -0.450237    27A     -0.379730

  @DF-RHF Final Energy:  -343.85182840217232

   => Energetics <=

    Nuclear Repulsion Energy =            285.7276988540044727
    One-Electron Energy =               -1034.6846804745314330
    Two-Electron Energy =                 405.1051532183545874
    Total Energy =                       -343.8518284021723161
  Basis Set: (AUG-CC-PVTZ AUX)
    Blend: AUG-CC-PVTZ-RI
    Molecular point group: c1

    Geometry (in Angstrom), charge = 0, multiplicity = 1:

       Center              X                  Y                   Z               Mass
    ------------   -----------------  -----------------  -----------------  -----------------
         O            2.174175008184    -1.187218875549    -0.001168966789    15.994914619570
         O            2.009570008184     1.071515124451    -0.004498966789    15.994914619570
         C           -2.338515991816     0.638514124451    -0.014665966789    12.000000000000
         C           -2.857672391816    -0.791201375549     0.053149433211    12.000000000000
         C           -0.845861991816     0.740211124451    -0.011357966789    12.000000000000
         C            0.017070008184    -0.285468875549    -0.008098966789    12.000000000000
         C            1.468133008184    -0.022682875549    -0.005199966789    12.000000000000
         H           -2.685192691816     1.234302624451    -0.869560566789     1.007825032230
         H           -2.719280991816     1.190817124451     0.854783033211     1.007825032230
         H           -3.990524991816    -0.756548875549    -0.016699966789     1.007825032230
         H           -2.574574991816    -1.328942875549     0.872275033211     1.007825032230
         H           -2.570512991816    -1.331176875549    -0.897719966789     1.007825032230
         H           -0.420843991816     1.743814124451    -0.011644966789     1.007825032230
         H           -0.296517991816    -1.323267875549    -0.007496966789     1.007825032230
         H            3.115980008184    -0.919130875549     0.001388033211     1.007825032230

  Basis Set: AUG-CC-PVTZ
    Blend: AUG-CC-PVTZ
  Basis Set: (AUG-CC-PVTZ AUX)
    Blend: AUG-CC-PVTZ-JKFIT
	 Reference Energy          =    -343.8518284021723161 [Eh]
	 Singles Energy            =      -0.0000000000000000 [Eh]
	 Same-Spin Energy          =      -0.3408507997109229 [Eh]
	 Opposite-Spin Energy      =      -1.0998017451382252 [Eh]
	 Correlation Energy        =      -1.4406525448491481 [Eh]
	 Total Energy              =    -345.2924809470214882 [Eh]

	 ================> DF-SCS-MP2 Energies <==================
	-----------------------------------------------------------
	 SCS Same-Spin Scale       =       0.3333333333333333 [-]
	 SCS Opposite-Spin Scale   =       1.2000000000000000 [-]
	 SCS Same-Spin Energy      =      -0.1136169332369743 [Eh]
	 SCS Opposite-Spin Energy  =      -1.3197620941658701 [Eh]
	 SCS Correlation Energy    =      -1.4333790274028444 [Eh]
	 SCS Total Energy          =    -345.2852074295751663 [Eh]
	-----------------------------------------------------------

  Dipole Moment: [D]
     X:    -1.8364      Y:    -0.9047      Z:     0.0221     Total:     2.0472

*** Psi4 exiting successfully. Buy a developer a beer!
