                               Psi4 1.3.2 release

  ==> Input File <==

--------------------------------------------------------------------------
#psi4
#
memory 32 gb

molecule  {
0 1
  O        2.1793270    -1.1884030     0.0070830
  O        2.0147220     1.0703310     0.0037530
  C       -2.3333640     0.6373300    -0.0064140
  C       -2.8929490    -0.7786760    -0.0059160
  C       -0.8407100     0.7390270    -0.0031060
  C        0.0222220    -0.2866530     0.0001530
  C        1.4732850    -0.0238670     0.0030520
  H       -2.7101490     1.1874440    -0.8789970
  H       -2.7141290     1.1896330     0.8630350
  H       -3.9853730    -0.7577330    -0.0084480
  H       -2.5694230    -1.3301270     0.8805270
  H       -2.5653610    -1.3323610    -0.8894680
  H       -0.4156920     1.7426300    -0.0033930
  H       -0.4523633    -1.4431104     0.0005454
  H        3.1211320    -0.9203150     0.0096400
units angstrom
no_reorient  #important for SAPT in psi4, default
symmetry c1  #important for SAPT in psi4, default
}

set PROPERTIES_ORIGIN ["COM"]
properties('MP2/aug-cc-pvtz', properties = ['dipole'])
--------------------------------------------------------------------------

    Molecular point group: c1
  Charge       = 0
  Multiplicity = 1
  Basis Set: AUG-CC-PVTZ
    Blend: AUG-CC-PVTZ
  Basis Set: (AUG-CC-PVTZ AUX)
    Blend: AUG-CC-PVTZ-JKFIT

    Orbital Energies [Eh]
    ---------------------

    Doubly Occupied:

       1A    -20.610346     2A    -20.542653     3A    -11.389907
       4A    -11.267474     5A    -11.256325     6A    -11.247670
       7A    -11.228813     8A     -1.453609     9A     -1.349586
      10A     -1.109967    11A     -1.021484    12A     -0.914823
      13A     -0.843429    14A     -0.726521    15A     -0.701229
      16A     -0.694010    17A     -0.632373    18A     -0.621234
      19A     -0.616894    20A     -0.589775    21A     -0.556996
      22A     -0.515356    23A     -0.512783    24A     -0.497722
      25A     -0.483721    26A     -0.451642    27A     -0.381166

  @DF-RHF Final Energy:  -343.84165952912622

   => Energetics <=

    Nuclear Repulsion Energy =            284.7984818151008426
    One-Electron Energy =               -1032.8452661311732754
    Two-Electron Energy =                 404.2051247869462713
    Total Energy =                       -343.8416595291262183
  Basis Set: (AUG-CC-PVTZ AUX)
    Blend: AUG-CC-PVTZ-RI
    Molecular point group: c1

    Geometry (in Angstrom), charge = 0, multiplicity = 1:

       Center              X                  Y                   Z               Mass
    ------------   -----------------  -----------------  -----------------  -----------------
         O            2.180948898742    -1.187207833236     0.007085174131    15.994914619570
         O            2.016343898742     1.071526166764     0.003755174131    15.994914619570
         C           -2.331742101258     0.638525166764    -0.006411825869    12.000000000000
         C           -2.891327101258    -0.777480833236    -0.005913825869    12.000000000000
         C           -0.839088101258     0.740222166764    -0.003103825869    12.000000000000
         C            0.023843898742    -0.285457833236     0.000155174131    12.000000000000
         C            1.474906898742    -0.022671833236     0.003054174131    12.000000000000
         H           -2.708527101258     1.188639166764    -0.878994825869     1.007825032230
         H           -2.712507101258     1.190828166764     0.863037174131     1.007825032230
         H           -3.983751101258    -0.756537833236    -0.008445825869     1.007825032230
         H           -2.567801101258    -1.328931833236     0.880529174131     1.007825032230
         H           -2.563739101258    -1.331165833236    -0.889465825869     1.007825032230
         H           -0.414070101258     1.743825166764    -0.003390825869     1.007825032230
         H           -0.450741401258    -1.441915233236     0.000547574131     1.007825032230
         H            3.122753898742    -0.919119833236     0.009642174131     1.007825032230

  Basis Set: AUG-CC-PVTZ
    Blend: AUG-CC-PVTZ
  Basis Set: (AUG-CC-PVTZ AUX)
    Blend: AUG-CC-PVTZ-JKFIT
	 Reference Energy          =    -343.8416595291262183 [Eh]
	 Singles Energy            =      -0.0000000000000000 [Eh]
	 Same-Spin Energy          =      -0.3414909051136071 [Eh]
	 Opposite-Spin Energy      =      -1.1015268620405456 [Eh]
	 Correlation Energy        =      -1.4430177671541529 [Eh]
	 Total Energy              =    -345.2846772962803925 [Eh]

	 ================> DF-SCS-MP2 Energies <==================
	-----------------------------------------------------------
	 SCS Same-Spin Scale       =       0.3333333333333333 [-]
	 SCS Opposite-Spin Scale   =       1.2000000000000000 [-]
	 SCS Same-Spin Energy      =      -0.1138303017045357 [Eh]
	 SCS Opposite-Spin Energy  =      -1.3218322344486546 [Eh]
	 SCS Correlation Energy    =      -1.4356625361531903 [Eh]
	 SCS Total Energy          =    -345.2773220652794066 [Eh]
	-----------------------------------------------------------

  Dipole Moment: [D]
     X:    -1.8232      Y:    -0.8785      Z:    -0.0034     Total:     2.0238

*** Psi4 exiting successfully. Buy a developer a beer!
