                               Psi4 1.3.2 release

  ==> Input File <==

--------------------------------------------------------------------------
#psi4
#
memory 32 gb

molecule  {
0 1
  O        2.1793270    -1.1884030     0.0070830
  O        2.0147220     1.0703310     0.0037530
  C       -2.3333640     0.6373300    -0.0064140
  C       -2.8681511    -0.7882264    -0.0058469
  C       -0.8391626     0.7129611    -0.0030696
  C        0.0222220    -0.2866530     0.0001530
  C        1.4732850    -0.0238670     0.0030520
  H       -2.7101490     1.1874440    -0.8789970
  H       -2.7141290     1.1896330     0.8630350
  H       -3.9853730    -0.7577330    -0.0084480
  H       -2.5694230    -1.3301270     0.8805270
  H       -2.5653610    -1.3323610    -0.8894680
  H       -0.4156920     1.7426300    -0.0033930
  H       -0.2913660    -1.3244520     0.0007550
  H        3.1211320    -0.9203150     0.0096400
units angstrom
no_reorient  #important for SAPT in psi4, default
symmetry c1  #important for SAPT in psi4, default
}

set PROPERTIES_ORIGIN ["COM"]
properties('MP2/aug-cc-pvtz', properties = ['dipole'])
--------------------------------------------------------------------------

    Molecular point group: c1
  Charge       = 0
  Multiplicity = 1
  Basis Set: AUG-CC-PVTZ
    Blend: AUG-CC-PVTZ
  Basis Set: (AUG-CC-PVTZ AUX)
    Blend: AUG-CC-PVTZ-JKFIT

    Orbital Energies [Eh]
    ---------------------

    Doubly Occupied:

       1A    -20.611087     2A    -20.540895     3A    -11.386355
       4A    -11.264984     5A    -11.247176     6A    -11.237990
       7A    -11.227909     8A     -1.453593     9A     -1.348632
      10A     -1.114112    11A     -1.025741    12A     -0.914425
      13A     -0.844904    14A     -0.735310    15A     -0.706813
      16A     -0.693785    17A     -0.634134    18A     -0.621719
      19A     -0.615840    20A     -0.601282    21A     -0.566440
      22A     -0.519717    23A     -0.513699    24A     -0.494363
      25A     -0.483196    26A     -0.451365    27A     -0.385369

  @DF-RHF Final Energy:  -343.85882900085886

   => Energetics <=

    Nuclear Repulsion Energy =            285.9042050455310005
    One-Electron Energy =               -1035.0443982423669240
    Two-Electron Energy =                 405.2813641959771189
    Total Energy =                       -343.8588290008588615
  Basis Set: (AUG-CC-PVTZ AUX)
    Blend: AUG-CC-PVTZ-RI
    Molecular point group: c1

    Geometry (in Angstrom), charge = 0, multiplicity = 1:

       Center              X                  Y                   Z               Mass
    ------------   -----------------  -----------------  -----------------  -----------------
         O            2.176167398568    -1.184131359274     0.007070409471    15.994914619570
         O            2.011562398568     1.074602640726     0.003740409471    15.994914619570
         C           -2.336523601432     0.641601640726    -0.006426590529    12.000000000000
         C           -2.871310701432    -0.783954759274    -0.005859490529    12.000000000000
         C           -0.842322201432     0.717232740726    -0.003082190529    12.000000000000
         C            0.019062398568    -0.282381359274     0.000140409471    12.000000000000
         C            1.470125398568    -0.019595359274     0.003039409471    12.000000000000
         H           -2.713308601432     1.191715640726    -0.879009590529     1.007825032230
         H           -2.717288601432     1.193904640726     0.863022409471     1.007825032230
         H           -3.988532601432    -0.753461359274    -0.008460590529     1.007825032230
         H           -2.572582601432    -1.325855359274     0.880514409471     1.007825032230
         H           -2.568520601432    -1.328089359274    -0.889480590529     1.007825032230
         H           -0.418851601432     1.746901640726    -0.003405590529     1.007825032230
         H           -0.294525601432    -1.320180359274     0.000742409471     1.007825032230
         H            3.117972398568    -0.916043359274     0.009627409471     1.007825032230

  Basis Set: AUG-CC-PVTZ
    Blend: AUG-CC-PVTZ
  Basis Set: (AUG-CC-PVTZ AUX)
    Blend: AUG-CC-PVTZ-JKFIT
	 Reference Energy          =    -343.8588290008588615 [Eh]
	 Singles Energy            =      -0.0000000000000000 [Eh]
	 Same-Spin Energy          =      -0.3405996879896238 [Eh]
	 Opposite-Spin Energy      =      -1.0992819116121180 [Eh]
	 Correlation Energy        =      -1.4398815996017418 [Eh]
	 Total Energy              =    -345.2987106004605948 [Eh]

	 ================> DF-SCS-MP2 Energies <==================
	-----------------------------------------------------------
	 SCS Same-Spin Scale       =       0.3333333333333333 [-]
	 SCS Opposite-Spin Scale   =       1.2000000000000000 [-]
	 SCS Same-Spin Energy      =      -0.1135332293298746 [Eh]
	 SCS Opposite-Spin Energy  =      -1.3191382939345415 [Eh]
	 SCS Correlation Energy    =      -1.4326715232644160 [Eh]
	 SCS Total Energy          =    -345.2915005241232507 [Eh]
	-----------------------------------------------------------

  Dipole Moment: [D]
     X:    -1.7893      Y:    -0.9333      Z:    -0.0032     Total:     2.0181

*** Psi4 exiting successfully. Buy a developer a beer!
