                               Psi4 1.3.2 release

  ==> Input File <==

--------------------------------------------------------------------------
#psi4
#
memory 32 gb

molecule  {
0 1
  O        2.1793270    -1.1884030     0.0070830
  O        2.0147220     1.0703310     0.0037530
  C       -2.3333640     0.6373300    -0.0064140
  C       -2.8796378    -0.7836791     0.0165324
  C       -0.8407100     0.7390270    -0.0031060
  C        0.0222220    -0.2866530     0.0001530
  C        1.4732850    -0.0238670     0.0030520
  H       -2.7002236     1.2028426    -0.8733644
  H       -2.7141290     1.1896330     0.8630350
  H       -3.9853730    -0.7577330    -0.0084480
  H       -2.5694230    -1.3301270     0.8805270
  H       -2.5653610    -1.3323610    -0.8894680
  H       -0.4156920     1.7426300    -0.0033930
  H       -0.2913660    -1.3244520     0.0007550
  H        3.1211320    -0.9203150     0.0096400
units angstrom
no_reorient  #important for SAPT in psi4, default
symmetry c1  #important for SAPT in psi4, default
}

set PROPERTIES_ORIGIN ["COM"]
properties('MP2/aug-cc-pvtz', properties = ['dipole'])
--------------------------------------------------------------------------

    Molecular point group: c1
  Charge       = 0
  Multiplicity = 1
  Basis Set: AUG-CC-PVTZ
    Blend: AUG-CC-PVTZ
  Basis Set: (AUG-CC-PVTZ AUX)
    Blend: AUG-CC-PVTZ-JKFIT

    Orbital Energies [Eh]
    ---------------------

    Doubly Occupied:

       1A    -20.610304     2A    -20.539880     3A    -11.385387
       4A    -11.267397     5A    -11.247546     6A    -11.240086
       7A    -11.228949     8A     -1.452818     9A     -1.347862
      10A     -1.111551    11A     -1.023876    12A     -0.916499
      13A     -0.842913    14A     -0.738797    15A     -0.705310
      16A     -0.694069    17A     -0.632703    18A     -0.620895
      19A     -0.614811    20A     -0.601187    21A     -0.567816
      22A     -0.521498    23A     -0.508863    24A     -0.503182
      25A     -0.482448    26A     -0.450522    27A     -0.380304

  @DF-RHF Final Energy:  -343.85932373438220

   => Energetics <=

    Nuclear Repulsion Energy =            285.5398840752714023
    One-Electron Energy =               -1034.3234737675725228
    Two-Electron Energy =                 404.9242659579189194
    Total Energy =                       -343.8593237343822011
  Basis Set: (AUG-CC-PVTZ AUX)
    Blend: AUG-CC-PVTZ-RI
    Molecular point group: c1

    Geometry (in Angstrom), charge = 0, multiplicity = 1:

       Center              X                  Y                   Z               Mass
    ------------   -----------------  -----------------  -----------------  -----------------
         O            2.177630692705    -1.187958127864     0.004333929441    15.994914619570
         O            2.013025692705     1.070775872136     0.001003929441    15.994914619570
         C           -2.335060307295     0.637774872136    -0.009163070559    12.000000000000
         C           -2.881334107295    -0.783234227864     0.013783329441    12.000000000000
         C           -0.842406307295     0.739471872136    -0.005855070559    12.000000000000
         C            0.020525692705    -0.286208127864    -0.002596070559    12.000000000000
         C            1.471588692705    -0.023422127864     0.000302929441    12.000000000000
         H           -2.701919907295     1.203287472136    -0.876113470559     1.007825032230
         H           -2.715825307295     1.190077872136     0.860285929441     1.007825032230
         H           -3.987069307295    -0.757288127864    -0.011197070559     1.007825032230
         H           -2.571119307295    -1.329682127864     0.877777929441     1.007825032230
         H           -2.567057307295    -1.331916127864    -0.892217070559     1.007825032230
         H           -0.417388307295     1.743074872136    -0.006142070559     1.007825032230
         H           -0.293062307295    -1.324007127864    -0.001994070559     1.007825032230
         H            3.119435692705    -0.919870127864     0.006890929441     1.007825032230

  Basis Set: AUG-CC-PVTZ
    Blend: AUG-CC-PVTZ
  Basis Set: (AUG-CC-PVTZ AUX)
    Blend: AUG-CC-PVTZ-JKFIT
	 Reference Energy          =    -343.8593237343822011 [Eh]
	 Singles Energy            =      -0.0000000000000000 [Eh]
	 Same-Spin Energy          =      -0.3406755445090427 [Eh]
	 Opposite-Spin Energy      =      -1.0994501399594558 [Eh]
	 Correlation Energy        =      -1.4401256844684986 [Eh]
	 Total Energy              =    -345.2994494188507133 [Eh]

	 ================> DF-SCS-MP2 Energies <==================
	-----------------------------------------------------------
	 SCS Same-Spin Scale       =       0.3333333333333333 [-]
	 SCS Opposite-Spin Scale   =       1.2000000000000000 [-]
	 SCS Same-Spin Energy      =      -0.1135585148363476 [Eh]
	 SCS Opposite-Spin Energy  =      -1.3193401679513470 [Eh]
	 SCS Correlation Energy    =      -1.4328986827876946 [Eh]
	 SCS Total Energy          =    -345.2922224171699099 [Eh]
	-----------------------------------------------------------

  Dipole Moment: [D]
     X:    -1.8256      Y:    -0.9195      Z:     0.0066     Total:     2.0441

*** Psi4 exiting successfully. Buy a developer a beer!
