                               Psi4 1.4a3.dev225

  ==> Input File <==

--------------------------------------------------------------------------
#psi4
#
memory 32 gb

molecule  {
0 1
  O       -2.3109350    -1.1403470    -0.0000450
  O       -2.1116090     1.1175510    -0.0000760
  C        2.2339710     0.6185460     0.0000510
  C        2.7736950    -0.8069580     0.0000920
  C        0.7414440     0.7423990     0.0000070
  C       -0.1379540    -0.2713190     0.0000010
  C       -1.5863340     0.0145930    -0.0000450
  H        2.6208160     1.1641270     0.8715420
  H        2.6208650     1.1640950    -0.8714390
  H        3.8667590    -0.8011940     0.0001220
  H        2.4401730    -1.3549900    -0.8853120
  H        2.4401230    -1.3549580     0.8854960
  H        0.3318170     1.7528370    -0.0000240
  H        0.1592700    -1.3142900     0.0000290
  H       -3.2292584    -0.8626088    -0.0000754
units angstrom
no_reorient  #important for SAPT in psi4, default
symmetry c1  #important for SAPT in psi4, default
}

set PROPERTIES_ORIGIN ["COM"]
properties('MP2/aug-cc-pvtz', properties = ['dipole'])
--------------------------------------------------------------------------

    Molecular point group: c1
  Charge       = 0
  Multiplicity = 1
  Basis Set: AUG-CC-PVTZ
    Blend: AUG-CC-PVTZ
  Basis Set: (AUG-CC-PVTZ AUX)
    Blend: AUG-CC-PVTZ-JKFIT

    Orbital Energies [Eh]
    ---------------------

    Doubly Occupied:

       1A    -20.609121     2A    -20.540762     3A    -11.386485
       4A    -11.268515     5A    -11.247934     6A    -11.241174
       7A    -11.229024     8A     -1.455344     9A     -1.349556
      10A     -1.110877    11A     -1.024105    12A     -0.917062
      13A     -0.844335    14A     -0.739682    15A     -0.706409
      16A     -0.695545    17A     -0.631806    18A     -0.620812
      19A     -0.616176    20A     -0.601412    21A     -0.570018
      22A     -0.515135    23A     -0.512523    24A     -0.504904
      25A     -0.483170    26A     -0.451060    27A     -0.380574

  @DF-RHF Final Energy:  -343.86079733587286

   => Energetics <=

    Nuclear Repulsion Energy =            285.2956904914615279
    One-Electron Energy =               -1033.8059311987110505
    Two-Electron Energy =                 404.6494433713766625
    Total Energy =                       -343.8607973358728600
  Basis Set: (AUG-CC-PVTZ AUX)
    Blend: AUG-CC-PVTZ-RI
    Molecular point group: c1

    Geometry (in Angstrom), charge = 0, multiplicity = 1:

       Center              X                  Y                   Z               Mass
    ------------   -----------------  -----------------  -----------------  -----------------
         O           -2.199975684904    -1.156168259413    -0.000041780337    15.994914619570
         O           -2.000649684904     1.101729740587    -0.000072780337    15.994914619570
         C            2.344930315096     0.602724740587     0.000054219663    12.000000000000
         C            2.884654315096    -0.822779259413     0.000095219663    12.000000000000
         C            0.852403315096     0.726577740587     0.000010219663    12.000000000000
         C           -0.026994684904    -0.287140259413     0.000004219663    12.000000000000
         C           -1.475374684904    -0.001228259413    -0.000041780337    12.000000000000
         H            2.731775315096     1.148305740587     0.871545219663     1.007825032230
         H            2.731824315096     1.148273740587    -0.871435780337     1.007825032230
         H            3.977718315096    -0.817015259413     0.000125219663     1.007825032230
         H            2.551132315096    -1.370811259413    -0.885308780337     1.007825032230
         H            2.551082315096    -1.370779259413     0.885499219663     1.007825032230
         H            0.442776315096     1.737015740587    -0.000020780337     1.007825032230
         H            0.270229315096    -1.330111259413     0.000032219663     1.007825032230
         H           -3.118299084904    -0.878430059413    -0.000072180337     1.007825032230

  Basis Set: AUG-CC-PVTZ
    Blend: AUG-CC-PVTZ
  Basis Set: (AUG-CC-PVTZ AUX)
    Blend: AUG-CC-PVTZ-JKFIT
	 Reference Energy          =    -343.8607973358728600 [Eh]
	 Singles Energy            =      -0.0000000000000000 [Eh]
	 Same-Spin Energy          =      -0.3403811625365035 [Eh]
	 Opposite-Spin Energy      =      -1.0989515536505197 [Eh]
	 Correlation Energy        =      -1.4393327161870233 [Eh]
	 Total Energy              =    -345.3001300520598988 [Eh]

	 ================> DF-SCS-MP2 Energies <==================
	-----------------------------------------------------------
	 SCS Same-Spin Scale       =       0.3333333333333333 [-]
	 SCS Opposite-Spin Scale   =       1.2000000000000000 [-]
	 SCS Same-Spin Energy      =      -0.1134603875121678 [Eh]
	 SCS Opposite-Spin Energy  =      -1.3187418643806235 [Eh]
	 SCS Correlation Energy    =      -1.4322022518927913 [Eh]
	 SCS Total Energy          =    -345.2929995877656779 [Eh]
	-----------------------------------------------------------

  Dipole Moment: [D]
     X:     1.8373      Y:    -0.9455      Z:     0.0001     Total:     2.0663

*** Psi4 exiting successfully. Buy a developer a beer!
