                               Psi4 1.3.2 release

  ==> Input File <==

--------------------------------------------------------------------------
#psi4
#
memory 32 gb

molecule  {
0 1
  O        2.1691377    -1.1945200     0.0070713
  O        2.0147220     1.0703310     0.0037530
  C       -2.3333640     0.6373300    -0.0064140
  C       -2.8929490    -0.7786760    -0.0059160
  C       -0.8407100     0.7390270    -0.0031060
  C        0.0245704    -0.2993057     0.0001842
  C        1.4732850    -0.0238670     0.0030520
  H       -2.7101490     1.1874440    -0.8789970
  H       -2.7141290     1.1896330     0.8630350
  H       -3.9853730    -0.7577330    -0.0084480
  H       -2.5694230    -1.3301270     0.8805270
  H       -2.5653610    -1.3323610    -0.8894680
  H       -0.4156920     1.7426300    -0.0033930
  H       -0.2913660    -1.3244520     0.0007550
  H        3.1211320    -0.9203150     0.0096400
units angstrom
no_reorient  #important for SAPT in psi4, default
symmetry c1  #important for SAPT in psi4, default
}

set PROPERTIES_ORIGIN ["COM"]
properties('MP2/aug-cc-pvtz', properties = ['dipole'])
--------------------------------------------------------------------------

    Molecular point group: c1
  Charge       = 0
  Multiplicity = 1
  Basis Set: AUG-CC-PVTZ
    Blend: AUG-CC-PVTZ
  Basis Set: (AUG-CC-PVTZ AUX)
    Blend: AUG-CC-PVTZ-JKFIT

    Orbital Energies [Eh]
    ---------------------

    Doubly Occupied:

       1A    -20.611247     2A    -20.540432     3A    -11.385307
       4A    -11.269666     5A    -11.247377     6A    -11.240193
       7A    -11.228627     8A     -1.451472     9A     -1.347643
      10A     -1.109889    11A     -1.023345    12A     -0.916026
      13A     -0.839939    14A     -0.739983    15A     -0.703730
      16A     -0.694052    17A     -0.631813    18A     -0.620454
      19A     -0.615783    20A     -0.599745    21A     -0.570549
      22A     -0.514892    23A     -0.511857    24A     -0.505948
      25A     -0.482521    26A     -0.451016    27A     -0.378183

  @DF-RHF Final Energy:  -343.85847983087206

   => Energetics <=

    Nuclear Repulsion Energy =            285.3322755828032768
    One-Electron Energy =               -1033.9181344879411881
    Two-Electron Energy =                 404.7273790742658548
    Total Energy =                       -343.8584798308720565
  Basis Set: (AUG-CC-PVTZ AUX)
    Blend: AUG-CC-PVTZ-RI
    Molecular point group: c1

    Geometry (in Angstrom), charge = 0, multiplicity = 1:

       Center              X                  Y                   Z               Mass
    ------------   -----------------  -----------------  -----------------  -----------------
         O            2.170485133388    -1.192024651046     0.007069491223    15.994914619570
         O            2.016069433388     1.072826348954     0.003751191223    15.994914619570
         C           -2.332016566612     0.639825348954    -0.006415808777    12.000000000000
         C           -2.891601566612    -0.776180651046    -0.005917808777    12.000000000000
         C           -0.839362566612     0.741522348954    -0.003107808777    12.000000000000
         C            0.025917833388    -0.296810351046     0.000182391223    12.000000000000
         C            1.474632433388    -0.021371651046     0.003050191223    12.000000000000
         H           -2.708801566612     1.189939348954    -0.878998808777     1.007825032230
         H           -2.712781566612     1.192128348954     0.863033191223     1.007825032230
         H           -3.984025566612    -0.755237651046    -0.008449808777     1.007825032230
         H           -2.568075566612    -1.327631651046     0.880525191223     1.007825032230
         H           -2.564013566612    -1.329865651046    -0.889469808777     1.007825032230
         H           -0.414344566612     1.745125348954    -0.003394808777     1.007825032230
         H           -0.290018566612    -1.321956651046     0.000753191223     1.007825032230
         H            3.122479433388    -0.917819651046     0.009638191223     1.007825032230

  Basis Set: AUG-CC-PVTZ
    Blend: AUG-CC-PVTZ
  Basis Set: (AUG-CC-PVTZ AUX)
    Blend: AUG-CC-PVTZ-JKFIT
	 Reference Energy          =    -343.8584798308720565 [Eh]
	 Singles Energy            =      -0.0000000000000000 [Eh]
	 Same-Spin Energy          =      -0.3409602781926752 [Eh]
	 Opposite-Spin Energy      =      -1.1001116782988953 [Eh]
	 Correlation Energy        =      -1.4410719564915706 [Eh]
	 Total Energy              =    -345.2995517873636118 [Eh]

	 ================> DF-SCS-MP2 Energies <==================
	-----------------------------------------------------------
	 SCS Same-Spin Scale       =       0.3333333333333333 [-]
	 SCS Opposite-Spin Scale   =       1.2000000000000000 [-]
	 SCS Same-Spin Energy      =      -0.1136534260642251 [Eh]
	 SCS Opposite-Spin Energy  =      -1.3201340139586744 [Eh]
	 SCS Correlation Energy    =      -1.4337874400228994 [Eh]
	 SCS Total Energy          =    -345.2922672708949676 [Eh]
	-----------------------------------------------------------

  Dipole Moment: [D]
     X:    -1.8105      Y:    -0.9200      Z:    -0.0033     Total:     2.0308

*** Psi4 exiting successfully. Buy a developer a beer!
