                               Psi4 1.3.2 release

  ==> Input File <==

--------------------------------------------------------------------------
#psi4
#
memory 32 gb

molecule  {
0 1
  O        2.1793270    -1.1884030     0.0070830
  O        2.0147220     1.0703310     0.0037530
  C       -2.3333640     0.6373300    -0.0064140
  C       -2.8929490    -0.7786760    -0.0059160
  C       -0.8407100     0.7390270    -0.0031060
  C        0.0222220    -0.2866530     0.0001530
  C        1.4631495    -0.0300727     0.0030296
  H       -2.7101490     1.1874440    -0.8789970
  H       -2.7141290     1.1896330     0.8630350
  H       -3.9853730    -0.7577330    -0.0084480
  H       -2.5694230    -1.3301270     0.8805270
  H       -2.5653610    -1.3323610    -0.8894680
  H       -0.4156920     1.7426300    -0.0033930
  H       -0.2913660    -1.3244520     0.0007550
  H        3.1234356    -0.9285439     0.0096600
units angstrom
no_reorient  #important for SAPT in psi4, default
symmetry c1  #important for SAPT in psi4, default
}

set PROPERTIES_ORIGIN ["COM"]
properties('MP2/aug-cc-pvtz', properties = ['dipole'])
--------------------------------------------------------------------------

    Molecular point group: c1
  Charge       = 0
  Multiplicity = 1
  Basis Set: AUG-CC-PVTZ
    Blend: AUG-CC-PVTZ
  Basis Set: (AUG-CC-PVTZ AUX)
    Blend: AUG-CC-PVTZ-JKFIT

    Orbital Energies [Eh]
    ---------------------

    Doubly Occupied:

       1A    -20.609999     2A    -20.537832     3A    -11.385848
       4A    -11.269523     5A    -11.248236     6A    -11.240529
       7A    -11.229185     8A     -1.450140     9A     -1.341655
      10A     -1.112936    11A     -1.026243    12A     -0.918227
      13A     -0.843878    14A     -0.739891    15A     -0.706732
      16A     -0.691810    17A     -0.632272    18A     -0.619248
      19A     -0.614077    20A     -0.601951    21A     -0.568070
      22A     -0.515660    23A     -0.513200    24A     -0.505638
      25A     -0.479577    26A     -0.449522    27A     -0.381179

  @DF-RHF Final Energy:  -343.85913415269437

   => Energetics <=

    Nuclear Repulsion Energy =            285.4215481267550558
    One-Electron Energy =               -1034.0952484151769113
    Two-Electron Energy =                 404.8145661357274889
    Total Energy =                       -343.8591341526943665
  Basis Set: (AUG-CC-PVTZ AUX)
    Blend: AUG-CC-PVTZ-RI
    Molecular point group: c1

    Geometry (in Angstrom), charge = 0, multiplicity = 1:

       Center              X                  Y                   Z               Mass
    ------------   -----------------  -----------------  -----------------  -----------------
         O            2.180519596475    -1.187575892408     0.007085547969    15.994914619570
         O            2.015914596475     1.071158107592     0.003755547969    15.994914619570
         C           -2.332171403525     0.638157107592    -0.006411452031    12.000000000000
         C           -2.891756403525    -0.777848892408    -0.005913452031    12.000000000000
         C           -0.839517403525     0.739854107592    -0.003103452031    12.000000000000
         C            0.023414596475    -0.285825892408     0.000155547969    12.000000000000
         C            1.464342096475    -0.029245592408     0.003032147969    12.000000000000
         H           -2.708956403525     1.188271107592    -0.878994452031     1.007825032230
         H           -2.712936403525     1.190460107592     0.863037547969     1.007825032230
         H           -3.984180403525    -0.756905892408    -0.008445452031     1.007825032230
         H           -2.568230403525    -1.329299892408     0.880529547969     1.007825032230
         H           -2.564168403525    -1.331533892408    -0.889465452031     1.007825032230
         H           -0.414499403525     1.743457107592    -0.003390452031     1.007825032230
         H           -0.290173403525    -1.323624892408     0.000757547969     1.007825032230
         H            3.124628196475    -0.927716792408     0.009662547969     1.007825032230

  Basis Set: AUG-CC-PVTZ
    Blend: AUG-CC-PVTZ
  Basis Set: (AUG-CC-PVTZ AUX)
    Blend: AUG-CC-PVTZ-JKFIT
	 Reference Energy          =    -343.8591341526943665 [Eh]
	 Singles Energy            =      -0.0000000000000000 [Eh]
	 Same-Spin Energy          =      -0.3408616914313546 [Eh]
	 Opposite-Spin Energy      =      -1.0997866255361852 [Eh]
	 Correlation Energy        =      -1.4406483169675399 [Eh]
	 Total Energy              =    -345.2997824696619205 [Eh]

	 ================> DF-SCS-MP2 Energies <==================
	-----------------------------------------------------------
	 SCS Same-Spin Scale       =       0.3333333333333333 [-]
	 SCS Opposite-Spin Scale   =       1.2000000000000000 [-]
	 SCS Same-Spin Energy      =      -0.1136205638104515 [Eh]
	 SCS Opposite-Spin Energy  =      -1.3197439506434223 [Eh]
	 SCS Correlation Energy    =      -1.4333645144538738 [Eh]
	 SCS Total Energy          =    -345.2924986671482657 [Eh]
	-----------------------------------------------------------

  Dipole Moment: [D]
     X:    -1.8968      Y:    -0.9637      Z:    -0.0034     Total:     2.1276

*** Psi4 exiting successfully. Buy a developer a beer!
