                               Psi4 1.3.2 release

  ==> Input File <==

--------------------------------------------------------------------------
#psi4
#
memory 32 gb

molecule  {
0 1
  O        2.1793270    -1.1884030     0.0070830
  O        2.0147220     1.0703310     0.0037530
  C       -2.3333640     0.6373300    -0.0064140
  C       -2.8929490    -0.7786760    -0.0059160
  C       -0.8496278     0.7314575    -0.0031161
  C        0.0222220    -0.2866530     0.0001530
  C        1.4755229    -0.0365398     0.0030735
  H       -2.7101490     1.1874440    -0.8789970
  H       -2.7141290     1.1896330     0.8630350
  H       -3.9853730    -0.7577330    -0.0084480
  H       -2.5694230    -1.3301270     0.8805270
  H       -2.5653610    -1.3323610    -0.8894680
  H       -0.4156920     1.7426300    -0.0033930
  H       -0.2913660    -1.3244520     0.0007550
  H        3.1211320    -0.9203150     0.0096400
units angstrom
no_reorient  #important for SAPT in psi4, default
symmetry c1  #important for SAPT in psi4, default
}

set PROPERTIES_ORIGIN ["COM"]
properties('MP2/aug-cc-pvtz', properties = ['dipole'])
--------------------------------------------------------------------------

    Molecular point group: c1
  Charge       = 0
  Multiplicity = 1
  Basis Set: AUG-CC-PVTZ
    Blend: AUG-CC-PVTZ
  Basis Set: (AUG-CC-PVTZ AUX)
    Blend: AUG-CC-PVTZ-JKFIT

    Orbital Energies [Eh]
    ---------------------

    Doubly Occupied:

       1A    -20.614022     2A    -20.537741     3A    -11.386369
       4A    -11.268094     5A    -11.247044     6A    -11.240123
       7A    -11.228454     8A     -1.456390     9A     -1.343676
      10A     -1.112155    11A     -1.024152    12A     -0.917604
      13A     -0.845315    14A     -0.738784    15A     -0.706161
      16A     -0.694737    17A     -0.632913    18A     -0.622517
      19A     -0.616224    20A     -0.600441    21A     -0.567271
      22A     -0.515349    23A     -0.513862    24A     -0.502327
      25A     -0.480069    26A     -0.449516    27A     -0.379732

  @DF-RHF Final Energy:  -343.85917043548017

   => Energetics <=

    Nuclear Repulsion Energy =            285.4750003314339892
    One-Electron Energy =               -1034.1862597800304684
    Two-Electron Energy =                 404.8520890131163128
    Total Energy =                       -343.8591704354801664
  Basis Set: (AUG-CC-PVTZ AUX)
    Blend: AUG-CC-PVTZ-RI
    Molecular point group: c1

    Geometry (in Angstrom), charge = 0, multiplicity = 1:

       Center              X                  Y                   Z               Mass
    ------------   -----------------  -----------------  -----------------  -----------------
         O            2.180128345863    -1.185975272519     0.007081695553    15.994914619570
         O            2.015523345863     1.072758727481     0.003751695553    15.994914619570
         C           -2.332562654137     0.639757727481    -0.006415304447    12.000000000000
         C           -2.892147654137    -0.776248272519    -0.005917304447    12.000000000000
         C           -0.848826454137     0.733885227481    -0.003117404447    12.000000000000
         C            0.023023345863    -0.284225272519     0.000151695553    12.000000000000
         C            1.476324245863    -0.034112072519     0.003072195553    12.000000000000
         H           -2.709347654137     1.189871727481    -0.878998304447     1.007825032230
         H           -2.713327654137     1.192060727481     0.863033695553     1.007825032230
         H           -3.984571654137    -0.755305272519    -0.008449304447     1.007825032230
         H           -2.568621654137    -1.327699272519     0.880525695553     1.007825032230
         H           -2.564559654137    -1.329933272519    -0.889469304447     1.007825032230
         H           -0.414890654137     1.745057727481    -0.003394304447     1.007825032230
         H           -0.290564654137    -1.322024272519     0.000753695553     1.007825032230
         H            3.121933345863    -0.917887272519     0.009638695553     1.007825032230

  Basis Set: AUG-CC-PVTZ
    Blend: AUG-CC-PVTZ
  Basis Set: (AUG-CC-PVTZ AUX)
    Blend: AUG-CC-PVTZ-JKFIT
	 Reference Energy          =    -343.8591704354801664 [Eh]
	 Singles Energy            =      -0.0000000000000000 [Eh]
	 Same-Spin Energy          =      -0.3408657591541793 [Eh]
	 Opposite-Spin Energy      =      -1.0996942403350283 [Eh]
	 Correlation Energy        =      -1.4405599994892075 [Eh]
	 Total Energy              =    -345.2997304349693763 [Eh]

	 ================> DF-SCS-MP2 Energies <==================
	-----------------------------------------------------------
	 SCS Same-Spin Scale       =       0.3333333333333333 [-]
	 SCS Opposite-Spin Scale   =       1.2000000000000000 [-]
	 SCS Same-Spin Energy      =      -0.1136219197180598 [Eh]
	 SCS Opposite-Spin Energy  =      -1.3196330884020340 [Eh]
	 SCS Correlation Energy    =      -1.4332550081200937 [Eh]
	 SCS Total Energy          =    -345.2924254436002798 [Eh]
	-----------------------------------------------------------

  Dipole Moment: [D]
     X:    -1.7977      Y:    -1.0232      Z:    -0.0031     Total:     2.0685

*** Psi4 exiting successfully. Buy a developer a beer!
