                               Psi4 1.3.2 release

  ==> Input File <==

--------------------------------------------------------------------------
#psi4
#
memory 32 gb

molecule  {
0 1
  O        2.1793270    -1.1884030     0.0070830
  O        2.0712457     1.0404948     0.0038812
  C       -2.3333640     0.6373300    -0.0064140
  C       -2.8929490    -0.7786760    -0.0059160
  C       -0.8407100     0.7390270    -0.0031060
  C        0.0379637    -0.3622358     0.0002144
  C        1.4732850    -0.0238670     0.0030520
  H       -2.7101490     1.1874440    -0.8789970
  H       -2.7141290     1.1896330     0.8630350
  H       -3.9853730    -0.7577330    -0.0084480
  H       -2.5694230    -1.3301270     0.8805270
  H       -2.5653610    -1.3323610    -0.8894680
  H       -0.4156920     1.7426300    -0.0033930
  H       -0.2913660    -1.3244520     0.0007550
  H        3.1211320    -0.9203150     0.0096400
units angstrom
no_reorient  #important for SAPT in psi4, default
symmetry c1  #important for SAPT in psi4, default
}

set PROPERTIES_ORIGIN ["COM"]
properties('MP2/aug-cc-pvtz', properties = ['dipole'])
--------------------------------------------------------------------------

    Molecular point group: c1
  Charge       = 0
  Multiplicity = 1
  Basis Set: AUG-CC-PVTZ
    Blend: AUG-CC-PVTZ
  Basis Set: (AUG-CC-PVTZ AUX)
    Blend: AUG-CC-PVTZ-JKFIT

    Orbital Energies [Eh]
    ---------------------

    Doubly Occupied:

       1A    -20.600488     2A    -20.538006     3A    -11.383853
       4A    -11.284414     5A    -11.250743     6A    -11.245624
       7A    -11.231240     8A     -1.450314     9A     -1.340887
      10A     -1.107590    11A     -1.023796    12A     -0.919767
      13A     -0.836306    14A     -0.752549    15A     -0.702068
      16A     -0.690533    17A     -0.633438    18A     -0.617760
      19A     -0.615737    20A     -0.602154    21A     -0.572824
      22A     -0.517193    23A     -0.514149    24A     -0.511594
      25A     -0.477206    26A     -0.449951    27A     -0.370755

  @DF-RHF Final Energy:  -343.84776770813403

   => Energetics <=

    Nuclear Repulsion Energy =            284.6153892505756744
    One-Electron Energy =               -1032.4444328909328306
    Two-Electron Energy =                 403.9812759322231841
    Total Energy =                       -343.8477677081340289
  Basis Set: (AUG-CC-PVTZ AUX)
    Blend: AUG-CC-PVTZ-RI
    Molecular point group: c1

    Geometry (in Angstrom), charge = 0, multiplicity = 1:

       Center              X                  Y                   Z               Mass
    ------------   -----------------  -----------------  -----------------  -----------------
         O            2.168402983857    -1.174568118517     0.007055203962    15.994914619570
         O            2.060321683857     1.054329681483     0.003853403962    15.994914619570
         C           -2.344288016143     0.651164881483    -0.006441796038    12.000000000000
         C           -2.903873016143    -0.764841118517    -0.005943796038    12.000000000000
         C           -0.851634016143     0.752861881483    -0.003133796038    12.000000000000
         C            0.027039683857    -0.348400918517     0.000186603962    12.000000000000
         C            1.462360983857    -0.010032118517     0.003024203962    12.000000000000
         H           -2.721073016143     1.201278881483    -0.879024796038     1.007825032230
         H           -2.725053016143     1.203467881483     0.863007203962     1.007825032230
         H           -3.996297016143    -0.743898118517    -0.008475796038     1.007825032230
         H           -2.580347016143    -1.316292118517     0.880499203962     1.007825032230
         H           -2.576285016143    -1.318526118517    -0.889495796038     1.007825032230
         H           -0.426616016143     1.756464881483    -0.003420796038     1.007825032230
         H           -0.302290016143    -1.310617118517     0.000727203962     1.007825032230
         H            3.110207983857    -0.906480118517     0.009612203962     1.007825032230

  Basis Set: AUG-CC-PVTZ
    Blend: AUG-CC-PVTZ
  Basis Set: (AUG-CC-PVTZ AUX)
    Blend: AUG-CC-PVTZ-JKFIT
	 Reference Energy          =    -343.8477677081340289 [Eh]
	 Singles Energy            =      -0.0000000000000000 [Eh]
	 Same-Spin Energy          =      -0.3412541168978765 [Eh]
	 Opposite-Spin Energy      =      -1.1008242630677452 [Eh]
	 Correlation Energy        =      -1.4420783799656216 [Eh]
	 Total Energy              =    -345.2898460880996367 [Eh]

	 ================> DF-SCS-MP2 Energies <==================
	-----------------------------------------------------------
	 SCS Same-Spin Scale       =       0.3333333333333333 [-]
	 SCS Opposite-Spin Scale   =       1.2000000000000000 [-]
	 SCS Same-Spin Energy      =      -0.1137513722992922 [Eh]
	 SCS Opposite-Spin Energy  =      -1.3209891156812941 [Eh]
	 SCS Correlation Energy    =      -1.4347404879805863 [Eh]
	 SCS Total Energy          =    -345.2825081961146338 [Eh]
	-----------------------------------------------------------

  Dipole Moment: [D]
     X:    -2.1427      Y:    -0.8346      Z:    -0.0041     Total:     2.2995

*** Psi4 exiting successfully. Buy a developer a beer!
