                               Psi4 1.3.2 release

  ==> Input File <==

--------------------------------------------------------------------------
#psi4
#
memory 32 gb

molecule  {
0 1
  O        2.2195385    -1.1630528     0.0072023
  O        2.0525788     1.0507686     0.0039176
  C       -2.3333640     0.6373300    -0.0064140
  C       -2.8929490    -0.7786760    -0.0059160
  C       -0.8407100     0.7390270    -0.0031060
  C        0.0222220    -0.2866530     0.0001530
  C        1.4732850    -0.0238670     0.0030520
  H       -2.7101490     1.1874440    -0.8789970
  H       -2.7141290     1.1896330     0.8630350
  H       -3.9853730    -0.7577330    -0.0084480
  H       -2.5694230    -1.3301270     0.8805270
  H       -2.5653610    -1.3323610    -0.8894680
  H       -0.4156920     1.7426300    -0.0033930
  H       -0.2913660    -1.3244520     0.0007550
  H        3.1211320    -0.9203150     0.0096400
units angstrom
no_reorient  #important for SAPT in psi4, default
symmetry c1  #important for SAPT in psi4, default
}

set PROPERTIES_ORIGIN ["COM"]
properties('MP2/aug-cc-pvtz', properties = ['dipole'])
--------------------------------------------------------------------------

    Molecular point group: c1
  Charge       = 0
  Multiplicity = 1
  Basis Set: AUG-CC-PVTZ
    Blend: AUG-CC-PVTZ
  Basis Set: (AUG-CC-PVTZ AUX)
    Blend: AUG-CC-PVTZ-JKFIT

    Orbital Energies [Eh]
    ---------------------

    Doubly Occupied:

       1A    -20.600190     2A    -20.537083     3A    -11.385390
       4A    -11.271222     5A    -11.249379     6A    -11.244668
       7A    -11.230097     8A     -1.457497     9A     -1.344843
      10A     -1.114330    11A     -1.027132    12A     -0.919958
      13A     -0.848862    14A     -0.743873    15A     -0.710312
      16A     -0.691928    17A     -0.633121    18A     -0.619721
      19A     -0.615193    20A     -0.604947    21A     -0.569076
      22A     -0.516610    23A     -0.514527    24A     -0.507146
      25A     -0.479149    26A     -0.449152    27A     -0.383427

  @DF-RHF Final Energy:  -343.86089405857467

   => Energetics <=

    Nuclear Repulsion Energy =            285.3746062771352285
    One-Electron Energy =               -1033.9333410173326229
    Two-Electron Energy =                 404.6978406816227789
    Total Energy =                       -343.8608940585746723
  Basis Set: (AUG-CC-PVTZ AUX)
    Blend: AUG-CC-PVTZ-RI
    Molecular point group: c1

    Geometry (in Angstrom), charge = 0, multiplicity = 1:

       Center              X                  Y                   Z               Mass
    ------------   -----------------  -----------------  -----------------  -----------------
         O            2.207058263400    -1.163978144189     0.007156977070    15.994914619570
         O            2.040098563400     1.049843255811     0.003872277070    15.994914619570
         C           -2.345844236600     0.636404655811    -0.006459322930    12.000000000000
         C           -2.905429236600    -0.779601344189    -0.005961322930    12.000000000000
         C           -0.853190236600     0.738101655811    -0.003151322930    12.000000000000
         C            0.009741763400    -0.287578344189     0.000107677070    12.000000000000
         C            1.460804763400    -0.024792344189     0.003006677070    12.000000000000
         H           -2.722629236600     1.186518655811    -0.879042322930     1.007825032230
         H           -2.726609236600     1.188707655811     0.862989677070     1.007825032230
         H           -3.997853236600    -0.758658344189    -0.008493322930     1.007825032230
         H           -2.581903236600    -1.331052344189     0.880481677070     1.007825032230
         H           -2.577841236600    -1.333286344189    -0.889513322930     1.007825032230
         H           -0.428172236600     1.741704655811    -0.003438322930     1.007825032230
         H           -0.303846236600    -1.325377344189     0.000709677070     1.007825032230
         H            3.108651763400    -0.921240344189     0.009594677070     1.007825032230

  Basis Set: AUG-CC-PVTZ
    Blend: AUG-CC-PVTZ
  Basis Set: (AUG-CC-PVTZ AUX)
    Blend: AUG-CC-PVTZ-JKFIT
	 Reference Energy          =    -343.8608940585746723 [Eh]
	 Singles Energy            =      -0.0000000000000000 [Eh]
	 Same-Spin Energy          =      -0.3397014399076120 [Eh]
	 Opposite-Spin Energy      =      -1.0973914505423563 [Eh]
	 Correlation Energy        =      -1.4370928904499682 [Eh]
	 Total Energy              =    -345.2979869490246188 [Eh]

	 ================> DF-SCS-MP2 Energies <==================
	-----------------------------------------------------------
	 SCS Same-Spin Scale       =       0.3333333333333333 [-]
	 SCS Opposite-Spin Scale   =       1.2000000000000000 [-]
	 SCS Same-Spin Energy      =      -0.1132338133025373 [Eh]
	 SCS Opposite-Spin Energy  =      -1.3168697406508276 [Eh]
	 SCS Correlation Energy    =      -1.4301035539533649 [Eh]
	 SCS Total Energy          =    -345.2909976125280309 [Eh]
	-----------------------------------------------------------

  Dipole Moment: [D]
     X:    -2.0850      Y:    -0.8817      Z:    -0.0042     Total:     2.2638

*** Psi4 exiting successfully. Buy a developer a beer!
