                               Psi4 1.3.2 release

  ==> Input File <==

--------------------------------------------------------------------------
#psi4
#
memory 32 gb

molecule  {
0 1
  O        2.1691378    -1.1945200     0.0070524
  O        2.0051529     1.0750142     0.0037117
  C       -2.3333640     0.6373300    -0.0064140
  C       -2.8929490    -0.7786760    -0.0059160
  C       -0.8407100     0.7390270    -0.0031060
  C        0.0222220    -0.2866530     0.0001530
  C        1.4732850    -0.0238670     0.0030520
  H       -2.7101490     1.1874440    -0.8789970
  H       -2.7141290     1.1896330     0.8630350
  H       -3.9853730    -0.7577330    -0.0084480
  H       -2.5694230    -1.3301270     0.8805270
  H       -2.5653610    -1.3323610    -0.8894680
  H       -0.4156920     1.7426300    -0.0033930
  H       -0.2913660    -1.3244520     0.0007550
  H        3.1211320    -0.9203150     0.0096400
units angstrom
no_reorient  #important for SAPT in psi4, default
symmetry c1  #important for SAPT in psi4, default
}

set PROPERTIES_ORIGIN ["COM"]
properties('MP2/aug-cc-pvtz', properties = ['dipole'])
--------------------------------------------------------------------------

    Molecular point group: c1
  Charge       = 0
  Multiplicity = 1
  Basis Set: AUG-CC-PVTZ
    Blend: AUG-CC-PVTZ
  Basis Set: (AUG-CC-PVTZ AUX)
    Blend: AUG-CC-PVTZ-JKFIT

    Orbital Energies [Eh]
    ---------------------

    Doubly Occupied:

       1A    -20.612878     2A    -20.540782     3A    -11.385650
       4A    -11.266864     5A    -11.246839     6A    -11.239331
       7A    -11.228170     8A     -1.451962     9A     -1.348832
      10A     -1.110638    11A     -1.023426    12A     -0.915484
      13A     -0.840994    14A     -0.738002    15A     -0.704351
      16A     -0.694630    17A     -0.631691    18A     -0.620853
      19A     -0.616134    20A     -0.599691    21A     -0.569366
      22A     -0.514544    23A     -0.511823    24A     -0.504340
      25A     -0.483411    26A     -0.450882    27A     -0.379882

  @DF-RHF Final Energy:  -343.85900697458629

   => Energetics <=

    Nuclear Repulsion Energy =            285.4821746826049775
    One-Electron Energy =               -1034.2194660648603985
    Two-Electron Energy =                 404.8782844076691276
    Total Energy =                       -343.8590069745862934
  Basis Set: (AUG-CC-PVTZ AUX)
    Blend: AUG-CC-PVTZ-RI
    Molecular point group: c1

    Geometry (in Angstrom), charge = 0, multiplicity = 1:

       Center              X                  Y                   Z               Mass
    ------------   -----------------  -----------------  -----------------  -----------------
         O            2.172296645054    -1.194290860725     0.007063957154    15.994914619570
         O            2.008311745054     1.075243339275     0.003723257154    15.994914619570
         C           -2.330205154946     0.637559139275    -0.006402442846    12.000000000000
         C           -2.889790154946    -0.778446860725    -0.005904442846    12.000000000000
         C           -0.837551154946     0.739256139275    -0.003094442846    12.000000000000
         C            0.025380845054    -0.286423860725     0.000164557154    12.000000000000
         C            1.476443845054    -0.023637860725     0.003063557154    12.000000000000
         H           -2.706990154946     1.187673139275    -0.878985442846     1.007825032230
         H           -2.710970154946     1.189862139275     0.863046557154     1.007825032230
         H           -3.982214154946    -0.757503860725    -0.008436442846     1.007825032230
         H           -2.566264154946    -1.329897860725     0.880538557154     1.007825032230
         H           -2.562202154946    -1.332131860725    -0.889456442846     1.007825032230
         H           -0.412533154946     1.742859139275    -0.003381442846     1.007825032230
         H           -0.288207154946    -1.324222860725     0.000766557154     1.007825032230
         H            3.124290845054    -0.920085860725     0.009651557154     1.007825032230

  Basis Set: AUG-CC-PVTZ
    Blend: AUG-CC-PVTZ
  Basis Set: (AUG-CC-PVTZ AUX)
    Blend: AUG-CC-PVTZ-JKFIT
	 Reference Energy          =    -343.8590069745862934 [Eh]
	 Singles Energy            =      -0.0000000000000000 [Eh]
	 Same-Spin Energy          =      -0.3408931362498449 [Eh]
	 Opposite-Spin Energy      =      -1.0999551513309522 [Eh]
	 Correlation Energy        =      -1.4408482875807971 [Eh]
	 Total Energy              =    -345.2998552621671138 [Eh]

	 ================> DF-SCS-MP2 Energies <==================
	-----------------------------------------------------------
	 SCS Same-Spin Scale       =       0.3333333333333333 [-]
	 SCS Opposite-Spin Scale   =       1.2000000000000000 [-]
	 SCS Same-Spin Energy      =      -0.1136310454166150 [Eh]
	 SCS Opposite-Spin Energy  =      -1.3199461815971427 [Eh]
	 SCS Correlation Energy    =      -1.4335772270137577 [Eh]
	 SCS Total Energy          =    -345.2925842016000502 [Eh]
	-----------------------------------------------------------

  Dipole Moment: [D]
     X:    -1.7536      Y:    -0.9328      Z:    -0.0031     Total:     1.9863

*** Psi4 exiting successfully. Buy a developer a beer!
