                               Psi4 1.4a3.dev225

  ==> Input File <==

--------------------------------------------------------------------------
#psi4
#
memory 32 gb

molecule  {
0 1
  O       -2.3109350    -1.1403470    -0.0000450
  O       -2.1116090     1.1175510    -0.0000760
  C        2.2339710     0.6185460     0.0000510
  C        2.7736950    -0.8069580     0.0000920
  C        0.7414440     0.7423990     0.0000070
  C       -0.1379540    -0.2713190     0.0000010
  C       -1.6078326     0.0597351    -0.0000463
  H        2.6208160     1.1641270     0.8715420
  H        2.6208650     1.1640950    -0.8714390
  H        3.8667590    -0.8011940     0.0001220
  H        2.4401730    -1.3549900    -0.8853120
  H        2.4401230    -1.3549580     0.8854960
  H        0.3318170     1.7528370    -0.0000240
  H        0.1592700    -1.3142900     0.0000290
  H       -3.2484020    -0.8568190    -0.0000760
units angstrom
no_reorient  #important for SAPT in psi4, default
symmetry c1  #important for SAPT in psi4, default
}

set PROPERTIES_ORIGIN ["COM"]
properties('MP2/aug-cc-pvtz', properties = ['dipole'])
--------------------------------------------------------------------------

    Molecular point group: c1
  Charge       = 0
  Multiplicity = 1
  Basis Set: AUG-CC-PVTZ
    Blend: AUG-CC-PVTZ
  Basis Set: (AUG-CC-PVTZ AUX)
    Blend: AUG-CC-PVTZ-JKFIT

    Orbital Energies [Eh]
    ---------------------

    Doubly Occupied:

       1A    -20.602964     2A    -20.551251     3A    -11.383647
       4A    -11.263684     5A    -11.245542     6A    -11.240971
       7A    -11.227407     8A     -1.460601     9A     -1.366425
      10A     -1.107234    11A     -1.018637    12A     -0.909501
      13A     -0.833858    14A     -0.735909    15A     -0.702830
      16A     -0.698551    17A     -0.631113    18A     -0.622391
      19A     -0.621674    20A     -0.595842    21A     -0.575356
      22A     -0.513251    23A     -0.510722    24A     -0.503771
      25A     -0.494658    26A     -0.453281    27A     -0.379562

  @DF-RHF Final Energy:  -343.85881838322786

   => Energetics <=

    Nuclear Repulsion Energy =            285.3216202909377444
    One-Electron Energy =               -1033.8596100726349505
    Two-Electron Energy =                 404.6791713984693502
    Total Energy =                       -343.8588183832278560
  Basis Set: (AUG-CC-PVTZ AUX)
    Blend: AUG-CC-PVTZ-RI
    Molecular point group: c1

    Geometry (in Angstrom), charge = 0, multiplicity = 1:

       Center              X                  Y                   Z               Mass
    ------------   -----------------  -----------------  -----------------  -----------------
         O           -2.197204371896    -1.161640793245    -0.000041618375    15.994914619570
         O           -1.997878371896     1.096257206755    -0.000072618375    15.994914619570
         C            2.347701628104     0.597252206755     0.000054381625    12.000000000000
         C            2.887425628104    -0.828251793245     0.000095381625    12.000000000000
         C            0.855174628104     0.721105206755     0.000010381625    12.000000000000
         C           -0.024223371896    -0.292612793245     0.000004381625    12.000000000000
         C           -1.494101971896     0.038441306755    -0.000042918375    12.000000000000
         H            2.734546628104     1.142833206755     0.871545381625     1.007825032230
         H            2.734595628104     1.142801206755    -0.871435618375     1.007825032230
         H            3.980489628104    -0.822487793245     0.000125381625     1.007825032230
         H            2.553903628104    -1.376283793245    -0.885308618375     1.007825032230
         H            2.553853628104    -1.376251793245     0.885499381625     1.007825032230
         H            0.445547628104     1.731543206755    -0.000020618375     1.007825032230
         H            0.273000628104    -1.335583793245     0.000032381625     1.007825032230
         H           -3.134671371896    -0.878112793245    -0.000072618375     1.007825032230

  Basis Set: AUG-CC-PVTZ
    Blend: AUG-CC-PVTZ
  Basis Set: (AUG-CC-PVTZ AUX)
    Blend: AUG-CC-PVTZ-JKFIT
	 Reference Energy          =    -343.8588183832278560 [Eh]
	 Singles Energy            =      -0.0000000000000000 [Eh]
	 Same-Spin Energy          =      -0.3398007516547779 [Eh]
	 Opposite-Spin Energy      =      -1.0981979811579594 [Eh]
	 Correlation Energy        =      -1.4379987328127373 [Eh]
	 Total Energy              =    -345.2968171160405859 [Eh]

	 ================> DF-SCS-MP2 Energies <==================
	-----------------------------------------------------------
	 SCS Same-Spin Scale       =       0.3333333333333333 [-]
	 SCS Opposite-Spin Scale   =       1.2000000000000000 [-]
	 SCS Same-Spin Energy      =      -0.1132669172182593 [Eh]
	 SCS Opposite-Spin Energy  =      -1.3178375773895512 [Eh]
	 SCS Correlation Energy    =      -1.4311044946078104 [Eh]
	 SCS Total Energy          =    -345.2899228778356928 [Eh]
	-----------------------------------------------------------

  Dipole Moment: [D]
     X:     1.6535      Y:    -0.6253      Z:     0.0001     Total:     1.7678

*** Psi4 exiting successfully. Buy a developer a beer!
