                               Psi4 1.3.2 release

  ==> Input File <==

--------------------------------------------------------------------------
#psi4
#
memory 32 gb

molecule  {
0 1
  O        2.1793270    -1.1884030     0.0070830
  O        2.0147220     1.0703310     0.0037530
  C       -2.3333640     0.6373300    -0.0064140
  C       -2.8929490    -0.7786760    -0.0059160
  C       -0.8226780     0.7539311    -0.0030839
  C        0.0222220    -0.2866530     0.0001530
  C        1.4732850    -0.0238670     0.0030520
  H       -2.7101490     1.1874440    -0.8789970
  H       -2.7141290     1.1896330     0.8630350
  H       -3.9853730    -0.7577330    -0.0084480
  H       -2.5694230    -1.3301270     0.8805270
  H       -2.5653610    -1.3323610    -0.8894680
  H       -0.4156920     1.7426300    -0.0033930
  H       -0.2732062    -1.3297668     0.0008030
  H        3.1211320    -0.9203150     0.0096400
units angstrom
no_reorient  #important for SAPT in psi4, default
symmetry c1  #important for SAPT in psi4, default
}

set PROPERTIES_ORIGIN ["COM"]
properties('MP2/aug-cc-pvtz', properties = ['dipole'])
--------------------------------------------------------------------------

    Molecular point group: c1
  Charge       = 0
  Multiplicity = 1
  Basis Set: AUG-CC-PVTZ
    Blend: AUG-CC-PVTZ
  Basis Set: (AUG-CC-PVTZ AUX)
    Blend: AUG-CC-PVTZ-JKFIT

    Orbital Energies [Eh]
    ---------------------

    Doubly Occupied:

       1A    -20.610227     2A    -20.539550     3A    -11.384583
       4A    -11.267390     5A    -11.247850     6A    -11.240879
       7A    -11.228497     8A     -1.452750     9A     -1.347749
      10A     -1.109267    11A     -1.023920    12A     -0.915651
      13A     -0.841271    14A     -0.742687    15A     -0.704136
      16A     -0.694906    17A     -0.630767    18A     -0.620237
      19A     -0.613732    20A     -0.603733    21A     -0.568673
      22A     -0.513971    23A     -0.510858    24A     -0.506891
      25A     -0.482465    26A     -0.449871    27A     -0.381188

  @DF-RHF Final Energy:  -343.85989356354492

   => Energetics <=

    Nuclear Repulsion Energy =            285.3451923168317421
    One-Electron Energy =               -1033.9427731002022028
    Two-Electron Energy =                 404.7376872198254887
    Total Energy =                       -343.8598935635449152
  Basis Set: (AUG-CC-PVTZ AUX)
    Blend: AUG-CC-PVTZ-RI
    Molecular point group: c1

    Geometry (in Angstrom), charge = 0, multiplicity = 1:

       Center              X                  Y                   Z               Mass
    ------------   -----------------  -----------------  -----------------  -----------------
         O            2.176981548703    -1.190137094612     0.007079928724    15.994914619570
         O            2.012376548703     1.068596905388     0.003749928724    15.994914619570
         C           -2.335709451297     0.635595905388    -0.006417071276    12.000000000000
         C           -2.895294451297    -0.780410094612    -0.005919071276    12.000000000000
         C           -0.825023451297     0.752197005388    -0.003086971276    12.000000000000
         C            0.019876548703    -0.288387094612     0.000149928724    12.000000000000
         C            1.470939548703    -0.025601094612     0.003048928724    12.000000000000
         H           -2.712494451297     1.185709905388    -0.879000071276     1.007825032230
         H           -2.716474451297     1.187898905388     0.863031928724     1.007825032230
         H           -3.987718451297    -0.759467094612    -0.008451071276     1.007825032230
         H           -2.571768451297    -1.331861094612     0.880523928724     1.007825032230
         H           -2.567706451297    -1.334095094612    -0.889471071276     1.007825032230
         H           -0.418037451297     1.740895905388    -0.003396071276     1.007825032230
         H           -0.275551651297    -1.331500894612     0.000799928724     1.007825032230
         H            3.118786548703    -0.922049094612     0.009636928724     1.007825032230

  Basis Set: AUG-CC-PVTZ
    Blend: AUG-CC-PVTZ
  Basis Set: (AUG-CC-PVTZ AUX)
    Blend: AUG-CC-PVTZ-JKFIT
	 Reference Energy          =    -343.8598935635449152 [Eh]
	 Singles Energy            =      -0.0000000000000000 [Eh]
	 Same-Spin Energy          =      -0.3404147031897308 [Eh]
	 Opposite-Spin Energy      =      -1.0991751751008099 [Eh]
	 Correlation Energy        =      -1.4395898782905405 [Eh]
	 Total Energy              =    -345.2994834418354344 [Eh]

	 ================> DF-SCS-MP2 Energies <==================
	-----------------------------------------------------------
	 SCS Same-Spin Scale       =       0.3333333333333333 [-]
	 SCS Opposite-Spin Scale   =       1.2000000000000000 [-]
	 SCS Same-Spin Energy      =      -0.1134715677299103 [Eh]
	 SCS Opposite-Spin Energy  =      -1.3190102101209717 [Eh]
	 SCS Correlation Energy    =      -1.4324817778508820 [Eh]
	 SCS Total Energy          =    -345.2923753413958252 [Eh]
	-----------------------------------------------------------

  Dipole Moment: [D]
     X:    -1.7939      Y:    -0.9288      Z:    -0.0033     Total:     2.0201

*** Psi4 exiting successfully. Buy a developer a beer!
