                               Psi4 1.3.2 release

  ==> Input File <==

--------------------------------------------------------------------------
#psi4
#
memory 32 gb

molecule  {
0 1
  O        2.1793270    -1.1884030     0.0070830
  O        2.0147220     1.0703310     0.0037530
  C       -2.3333640     0.6373300    -0.0064140
  C       -2.8805709    -0.7835053    -0.0058814
  C       -0.8398794     0.7259974    -0.0030877
  C        0.0222220    -0.2866530     0.0001530
  C        1.4732850    -0.0238670     0.0030520
  H       -2.7101490     1.1874440    -0.8789970
  H       -2.7141290     1.1896330     0.8630350
  H       -3.9853730    -0.7577330    -0.0084480
  H       -2.5694230    -1.3301270     0.8805270
  H       -2.5653610    -1.3323610    -0.8894680
  H       -0.4156920     1.7426300    -0.0033930
  H       -0.2913660    -1.3244520     0.0007550
  H        3.1211320    -0.9203150     0.0096400
units angstrom
no_reorient  #important for SAPT in psi4, default
symmetry c1  #important for SAPT in psi4, default
}

set PROPERTIES_ORIGIN ["COM"]
properties('MP2/aug-cc-pvtz', properties = ['dipole'])
--------------------------------------------------------------------------

    Molecular point group: c1
  Charge       = 0
  Multiplicity = 1
  Basis Set: AUG-CC-PVTZ
    Blend: AUG-CC-PVTZ
  Basis Set: (AUG-CC-PVTZ AUX)
    Blend: AUG-CC-PVTZ-JKFIT

    Orbital Energies [Eh]
    ---------------------

    Doubly Occupied:

       1A    -20.610758     2A    -20.540473     3A    -11.385950
       4A    -11.266340     5A    -11.247230     6A    -11.239187
       7A    -11.228192     8A     -1.453274     9A     -1.348321
      10A     -1.112699    11A     -1.024938    12A     -0.915351
      13A     -0.843668    14A     -0.737094    15A     -0.706171
      16A     -0.694025    17A     -0.632988    18A     -0.621187
      19A     -0.615762    20A     -0.601109    21A     -0.567860
      22A     -0.517361    23A     -0.512958    24A     -0.499888
      25A     -0.482886    26A     -0.451026    27A     -0.382970

  @DF-RHF Final Energy:  -343.85998728170819

   => Energetics <=

    Nuclear Repulsion Energy =            285.6767655819811580
    One-Electron Energy =               -1034.5941759458055458
    Two-Electron Energy =                 405.0574230821162018
    Total Energy =                       -343.8599872817081859
  Basis Set: (AUG-CC-PVTZ AUX)
    Blend: AUG-CC-PVTZ-RI
    Molecular point group: c1

    Geometry (in Angstrom), charge = 0, multiplicity = 1:

       Center              X                  Y                   Z               Mass
    ------------   -----------------  -----------------  -----------------  -----------------
         O            2.177742964507    -1.186261130645     0.007076718163    15.994914619570
         O            2.013137964507     1.072472869355     0.003746718163    15.994914619570
         C           -2.334948035493     0.639471869355    -0.006420281837    12.000000000000
         C           -2.882154935493    -0.781363430645    -0.005887681837    12.000000000000
         C           -0.841463435493     0.728139269355    -0.003093981837    12.000000000000
         C            0.020637964507    -0.284511130645     0.000146718163    12.000000000000
         C            1.471700964507    -0.021725130645     0.003045718163    12.000000000000
         H           -2.711733035493     1.189585869355    -0.879003281837     1.007825032230
         H           -2.715713035493     1.191774869355     0.863028718163     1.007825032230
         H           -3.986957035493    -0.755591130645    -0.008454281837     1.007825032230
         H           -2.571007035493    -1.327985130645     0.880520718163     1.007825032230
         H           -2.566945035493    -1.330219130645    -0.889474281837     1.007825032230
         H           -0.417276035493     1.744771869355    -0.003399281837     1.007825032230
         H           -0.292950035493    -1.322310130645     0.000748718163     1.007825032230
         H            3.119547964507    -0.918173130645     0.009633718163     1.007825032230

  Basis Set: AUG-CC-PVTZ
    Blend: AUG-CC-PVTZ
  Basis Set: (AUG-CC-PVTZ AUX)
    Blend: AUG-CC-PVTZ-JKFIT
	 Reference Energy          =    -343.8599872817081859 [Eh]
	 Singles Energy            =      -0.0000000000000000 [Eh]
	 Same-Spin Energy          =      -0.3406087356685766 [Eh]
	 Opposite-Spin Energy      =      -1.0993171319680239 [Eh]
	 Correlation Energy        =      -1.4399258676366005 [Eh]
	 Total Energy              =    -345.2999131493447749 [Eh]

	 ================> DF-SCS-MP2 Energies <==================
	-----------------------------------------------------------
	 SCS Same-Spin Scale       =       0.3333333333333333 [-]
	 SCS Opposite-Spin Scale   =       1.2000000000000000 [-]
	 SCS Same-Spin Energy      =      -0.1135362452228589 [Eh]
	 SCS Opposite-Spin Energy  =      -1.3191805583616287 [Eh]
	 SCS Correlation Energy    =      -1.4327168035844875 [Eh]
	 SCS Total Energy          =    -345.2927040852926552 [Eh]
	-----------------------------------------------------------

  Dipole Moment: [D]
     X:    -1.8046      Y:    -0.9280      Z:    -0.0033     Total:     2.0292

*** Psi4 exiting successfully. Buy a developer a beer!
