                               Psi4 1.3.2 release

  ==> Input File <==

--------------------------------------------------------------------------
#psi4
#
memory 32 gb

molecule  {
0 1
  O        2.1793270    -1.1884030     0.0070830
  O        2.0147220     1.0703310     0.0037530
  C       -2.3333640     0.6373300    -0.0064140
  C       -2.9175764    -0.7686943    -0.0059853
  C       -0.8427121     0.7650620    -0.0031435
  C        0.0222220    -0.2866530     0.0001530
  C        1.4732850    -0.0238670     0.0030520
  H       -2.7101490     1.1874440    -0.8789970
  H       -2.7141290     1.1896330     0.8630350
  H       -3.9853730    -0.7577330    -0.0084480
  H       -2.5694230    -1.3301270     0.8805270
  H       -2.5653610    -1.3323610    -0.8894680
  H       -0.4156920     1.7426300    -0.0033930
  H       -0.2913660    -1.3244520     0.0007550
  H        3.1211320    -0.9203150     0.0096400
units angstrom
no_reorient  #important for SAPT in psi4, default
symmetry c1  #important for SAPT in psi4, default
}

set PROPERTIES_ORIGIN ["COM"]
properties('MP2/aug-cc-pvtz', properties = ['dipole'])
--------------------------------------------------------------------------

    Molecular point group: c1
  Charge       = 0
  Multiplicity = 1
  Basis Set: AUG-CC-PVTZ
    Blend: AUG-CC-PVTZ
  Basis Set: (AUG-CC-PVTZ AUX)
    Blend: AUG-CC-PVTZ-JKFIT

    Orbital Energies [Eh]
    ---------------------

    Doubly Occupied:

       1A    -20.609805     2A    -20.539254     3A    -11.384789
       4A    -11.270661     5A    -11.247776     6A    -11.242864
       7A    -11.229523     8A     -1.452347     9A     -1.347414
      10A     -1.109002    11A     -1.022723    12A     -0.918517
      13A     -0.840321    14A     -0.743255    15A     -0.704280
      16A     -0.694553    17A     -0.630089    18A     -0.619603
      19A     -0.616976    20A     -0.599815    21A     -0.572478
      22A     -0.518227    23A     -0.510012    24A     -0.506944
      25A     -0.481986    26A     -0.449987    27A     -0.375956

  @DF-RHF Final Energy:  -343.85785570853500

   => Energetics <=

    Nuclear Repulsion Energy =            285.0054781163665893
    One-Electron Energy =               -1033.2483565243360317
    Two-Electron Energy =                 404.3850226994344439
    Total Energy =                       -343.8578557085349985
  Basis Set: (AUG-CC-PVTZ AUX)
    Blend: AUG-CC-PVTZ-RI
    Molecular point group: c1

    Geometry (in Angstrom), charge = 0, multiplicity = 1:

       Center              X                  Y                   Z               Mass
    ------------   -----------------  -----------------  -----------------  -----------------
         O            2.182521043384    -1.192722814817     0.007095872121    15.994914619570
         O            2.017916043384     1.066011185183     0.003765872121    15.994914619570
         C           -2.330169956616     0.633010185183    -0.006401127879    12.000000000000
         C           -2.914382356616    -0.773014114817    -0.005972427879    12.000000000000
         C           -0.839518056616     0.760742185183    -0.003130627879    12.000000000000
         C            0.025416043384    -0.290972814817     0.000165872121    12.000000000000
         C            1.476479043384    -0.028186814817     0.003064872121    12.000000000000
         H           -2.706954956616     1.183124185183    -0.878984127879     1.007825032230
         H           -2.710934956616     1.185313185183     0.863047872121     1.007825032230
         H           -3.982178956616    -0.762052814817    -0.008435127879     1.007825032230
         H           -2.566228956616    -1.334446814817     0.880539872121     1.007825032230
         H           -2.562166956616    -1.336680814817    -0.889455127879     1.007825032230
         H           -0.412497956616     1.738310185183    -0.003380127879     1.007825032230
         H           -0.288171956616    -1.328771814817     0.000767872121     1.007825032230
         H            3.124326043384    -0.924634814817     0.009652872121     1.007825032230

  Basis Set: AUG-CC-PVTZ
    Blend: AUG-CC-PVTZ
  Basis Set: (AUG-CC-PVTZ AUX)
    Blend: AUG-CC-PVTZ-JKFIT
	 Reference Energy          =    -343.8578557085349985 [Eh]
	 Singles Energy            =      -0.0000000000000000 [Eh]
	 Same-Spin Energy          =      -0.3407613109118975 [Eh]
	 Opposite-Spin Energy      =      -1.0997290574059857 [Eh]
	 Correlation Energy        =      -1.4404903683178831 [Eh]
	 Total Energy              =    -345.2983460768529085 [Eh]

	 ================> DF-SCS-MP2 Energies <==================
	-----------------------------------------------------------
	 SCS Same-Spin Scale       =       0.3333333333333333 [-]
	 SCS Opposite-Spin Scale   =       1.2000000000000000 [-]
	 SCS Same-Spin Energy      =      -0.1135871036372992 [Eh]
	 SCS Opposite-Spin Energy  =      -1.3196748688871829 [Eh]
	 SCS Correlation Energy    =      -1.4332619725244820 [Eh]
	 SCS Total Energy          =    -345.2911176810594611 [Eh]
	-----------------------------------------------------------

  Dipole Moment: [D]
     X:    -1.8458      Y:    -0.9140      Z:    -0.0034     Total:     2.0597

*** Psi4 exiting successfully. Buy a developer a beer!
