                               Psi4 1.4a3.dev225

  ==> Input File <==

--------------------------------------------------------------------------
#psi4
#
memory 32 gb

molecule  {
0 1
  O       -2.3109350    -1.1403470    -0.0000450
  O       -2.1116090     1.1175510    -0.0000760
  C        2.2339710     0.6185460     0.0000510
  C        2.7736950    -0.8069580     0.0000920
  C        0.7414440     0.7423990     0.0000070
  C       -0.1510598    -0.2864266     0.0000009
  C       -1.5863340     0.0145930    -0.0000450
  H        2.6208160     1.1641270     0.8715420
  H        2.6208650     1.1640950    -0.8714390
  H        3.8667590    -0.8011940     0.0001220
  H        2.4401730    -1.3549900    -0.8853120
  H        2.4401230    -1.3549580     0.8854960
  H        0.3318170     1.7528370    -0.0000240
  H        0.1592700    -1.3142900     0.0000290
  H       -3.2484020    -0.8568190    -0.0000760
units angstrom
no_reorient  #important for SAPT in psi4, default
symmetry c1  #important for SAPT in psi4, default
}

set PROPERTIES_ORIGIN ["COM"]
properties('MP2/aug-cc-pvtz', properties = ['dipole'])
--------------------------------------------------------------------------

    Molecular point group: c1
  Charge       = 0
  Multiplicity = 1
  Basis Set: AUG-CC-PVTZ
    Blend: AUG-CC-PVTZ
  Basis Set: (AUG-CC-PVTZ AUX)
    Blend: AUG-CC-PVTZ-JKFIT

    Orbital Energies [Eh]
    ---------------------

    Doubly Occupied:

       1A    -20.608987     2A    -20.539493     3A    -11.384947
       4A    -11.272979     5A    -11.248885     6A    -11.241496
       7A    -11.229559     8A     -1.451475     9A     -1.346813
      10A     -1.108915    11A     -1.024019    12A     -0.917504
      13A     -0.841005    14A     -0.740498    15A     -0.705077
      16A     -0.693349    17A     -0.631935    18A     -0.619979
      19A     -0.615280    20A     -0.598590    21A     -0.571481
      22A     -0.515535    23A     -0.512663    24A     -0.506380
      25A     -0.481858    26A     -0.451042    27A     -0.376644

  @DF-RHF Final Energy:  -343.85848691475661

   => Energetics <=

    Nuclear Repulsion Energy =            285.0745442544359776
    One-Electron Energy =               -1033.3932864815408266
    Two-Electron Energy =                 404.4602553123482380
    Total Energy =                       -343.8584869147566110
  Basis Set: (AUG-CC-PVTZ AUX)
    Blend: AUG-CC-PVTZ-RI
    Molecular point group: c1

    Geometry (in Angstrom), charge = 0, multiplicity = 1:

       Center              X                  Y                   Z               Mass
    ------------   -----------------  -----------------  -----------------  -----------------
         O           -2.198210980137    -1.154414617892    -0.000041762299    15.994914619570
         O           -1.998884980137     1.103483382108    -0.000072762299    15.994914619570
         C            2.346695019863     0.604478382108     0.000054237701    12.000000000000
         C            2.886419019863    -0.821025617892     0.000095237701    12.000000000000
         C            0.854168019863     0.728331382108     0.000010237701    12.000000000000
         C           -0.038335780137    -0.300494217892     0.000004137701    12.000000000000
         C           -1.473609980137     0.000525382108    -0.000041762299    12.000000000000
         H            2.733540019863     1.150059382108     0.871545237701     1.007825032230
         H            2.733589019863     1.150027382108    -0.871435762299     1.007825032230
         H            3.979483019863    -0.815261617892     0.000125237701     1.007825032230
         H            2.552897019863    -1.369057617892    -0.885308762299     1.007825032230
         H            2.552847019863    -1.369025617892     0.885499237701     1.007825032230
         H            0.444541019863     1.738769382108    -0.000020762299     1.007825032230
         H            0.271994019863    -1.328357617892     0.000032237701     1.007825032230
         H           -3.135677980137    -0.870886617892    -0.000072762299     1.007825032230

  Basis Set: AUG-CC-PVTZ
    Blend: AUG-CC-PVTZ
  Basis Set: (AUG-CC-PVTZ AUX)
    Blend: AUG-CC-PVTZ-JKFIT
	 Reference Energy          =    -343.8584869147566110 [Eh]
	 Singles Energy            =      -0.0000000000000000 [Eh]
	 Same-Spin Energy          =      -0.3408694923608757 [Eh]
	 Opposite-Spin Energy      =      -1.0999892443695183 [Eh]
	 Correlation Energy        =      -1.4408587367303940 [Eh]
	 Total Energy              =    -345.2993456514869877 [Eh]

	 ================> DF-SCS-MP2 Energies <==================
	-----------------------------------------------------------
	 SCS Same-Spin Scale       =       0.3333333333333333 [-]
	 SCS Opposite-Spin Scale   =       1.2000000000000000 [-]
	 SCS Same-Spin Energy      =      -0.1136231641202919 [Eh]
	 SCS Opposite-Spin Energy  =      -1.3199870932434219 [Eh]
	 SCS Correlation Energy    =      -1.4336102573637137 [Eh]
	 SCS Total Energy          =    -345.2920971721203500 [Eh]
	-----------------------------------------------------------

  Dipole Moment: [D]
     X:     1.8670      Y:    -0.9399      Z:     0.0001     Total:     2.0903

*** Psi4 exiting successfully. Buy a developer a beer!
