                               Psi4 1.3.2 release

  ==> Input File <==

--------------------------------------------------------------------------
#psi4
#
memory 32 gb

molecule  {
0 1
  O        2.1793270    -1.1884030     0.0070830
  O        2.0051528     1.0750142     0.0037314
  C       -2.3333640     0.6373300    -0.0064140
  C       -2.8929490    -0.7786760    -0.0059160
  C       -0.8407100     0.7390270    -0.0031060
  C        0.0199841    -0.2739802     0.0001435
  C        1.4732850    -0.0238670     0.0030520
  H       -2.7101490     1.1874440    -0.8789970
  H       -2.7141290     1.1896330     0.8630350
  H       -3.9853730    -0.7577330    -0.0084480
  H       -2.5694230    -1.3301270     0.8805270
  H       -2.5653610    -1.3323610    -0.8894680
  H       -0.4156920     1.7426300    -0.0033930
  H       -0.2913660    -1.3244520     0.0007550
  H        3.1211320    -0.9203150     0.0096400
units angstrom
no_reorient  #important for SAPT in psi4, default
symmetry c1  #important for SAPT in psi4, default
}

set PROPERTIES_ORIGIN ["COM"]
properties('MP2/aug-cc-pvtz', properties = ['dipole'])
--------------------------------------------------------------------------

    Molecular point group: c1
  Charge       = 0
  Multiplicity = 1
  Basis Set: AUG-CC-PVTZ
    Blend: AUG-CC-PVTZ
  Basis Set: (AUG-CC-PVTZ AUX)
    Blend: AUG-CC-PVTZ-JKFIT

    Orbital Energies [Eh]
    ---------------------

    Doubly Occupied:

       1A    -20.612071     2A    -20.540427     3A    -11.385920
       4A    -11.264938     5A    -11.246822     6A    -11.239553
       7A    -11.228096     8A     -1.453469     9A     -1.349224
      10A     -1.112184    11A     -1.024244    12A     -0.915837
      13A     -0.843529    14A     -0.737232    15A     -0.706116
      16A     -0.694797    17A     -0.631837    18A     -0.621049
      19A     -0.616343    20A     -0.600874    21A     -0.567948
      22A     -0.514619    23A     -0.512311    24A     -0.503225
      25A     -0.483492    26A     -0.450507    27A     -0.382321

  @DF-RHF Final Energy:  -343.86021054074462

   => Energetics <=

    Nuclear Repulsion Energy =            285.6027115826177010
    One-Electron Energy =               -1034.4478734073168198
    Two-Electron Energy =                 404.9849512839544445
    Total Energy =                       -343.8602105407446174
  Basis Set: (AUG-CC-PVTZ AUX)
    Blend: AUG-CC-PVTZ-RI
    Molecular point group: c1

    Geometry (in Angstrom), charge = 0, multiplicity = 1:

       Center              X                  Y                   Z               Mass
    ------------   -----------------  -----------------  -----------------  -----------------
         O            2.181125368499    -1.190671696050     0.007087655330    15.994914619570
         O            2.006951168499     1.072745503950     0.003736055330    15.994914619570
         C           -2.331565631501     0.635061303950    -0.006409344670    12.000000000000
         C           -2.891150631501    -0.780944696050    -0.005911344670    12.000000000000
         C           -0.838911631501     0.736758303950    -0.003101344670    12.000000000000
         C            0.021782468499    -0.276248896050     0.000148155330    12.000000000000
         C            1.475083368499    -0.026135696050     0.003056655330    12.000000000000
         H           -2.708350631501     1.185175303950    -0.878992344670     1.007825032230
         H           -2.712330631501     1.187364303950     0.863039655330     1.007825032230
         H           -3.983574631501    -0.760001696050    -0.008443344670     1.007825032230
         H           -2.567624631501    -1.332395696050     0.880531655330     1.007825032230
         H           -2.563562631501    -1.334629696050    -0.889463344670     1.007825032230
         H           -0.413893631501     1.740361303950    -0.003388344670     1.007825032230
         H           -0.289567631501    -1.326720696050     0.000759655330     1.007825032230
         H            3.122930368499    -0.922583696050     0.009644655330     1.007825032230

  Basis Set: AUG-CC-PVTZ
    Blend: AUG-CC-PVTZ
  Basis Set: (AUG-CC-PVTZ AUX)
    Blend: AUG-CC-PVTZ-JKFIT
	 Reference Energy          =    -343.8602105407446174 [Eh]
	 Singles Energy            =      -0.0000000000000000 [Eh]
	 Same-Spin Energy          =      -0.3405836500073356 [Eh]
	 Opposite-Spin Energy      =      -1.0992738081264086 [Eh]
	 Correlation Energy        =      -1.4398574581337442 [Eh]
	 Total Energy              =    -345.3000679988783759 [Eh]

	 ================> DF-SCS-MP2 Energies <==================
	-----------------------------------------------------------
	 SCS Same-Spin Scale       =       0.3333333333333333 [-]
	 SCS Opposite-Spin Scale   =       1.2000000000000000 [-]
	 SCS Same-Spin Energy      =      -0.1135278833357785 [Eh]
	 SCS Opposite-Spin Energy  =      -1.3191285697516903 [Eh]
	 SCS Correlation Energy    =      -1.4326564530874688 [Eh]
	 SCS Total Energy          =    -345.2928669938320922 [Eh]
	-----------------------------------------------------------

  Dipole Moment: [D]
     X:    -1.7613      Y:    -0.9353      Z:    -0.0032     Total:     1.9942

*** Psi4 exiting successfully. Buy a developer a beer!
