                               Psi4 1.3.2 release

  ==> Input File <==

--------------------------------------------------------------------------
#psi4
#
memory 32 gb

molecule  {
0 1
  O        2.1793270    -1.1884030     0.0070830
  O        2.0147220     1.0703310     0.0037530
  C       -2.3333640     0.6373300    -0.0064140
  C       -2.9662899    -0.7474492    -0.0061242
  C       -0.8480778     0.8170072    -0.0032213
  C        0.0222220    -0.2866530     0.0001530
  C        1.4732850    -0.0238670     0.0030520
  H       -2.7101490     1.1874440    -0.8789970
  H       -2.7141290     1.1896330     0.8630350
  H       -3.9853730    -0.7577330    -0.0084480
  H       -2.5694230    -1.3301270     0.8805270
  H       -2.5653610    -1.3323610    -0.8894680
  H       -0.4156920     1.7426300    -0.0033930
  H       -0.2913660    -1.3244520     0.0007550
  H        3.1211320    -0.9203150     0.0096400
units angstrom
no_reorient  #important for SAPT in psi4, default
symmetry c1  #important for SAPT in psi4, default
}

set PROPERTIES_ORIGIN ["COM"]
properties('MP2/aug-cc-pvtz', properties = ['dipole'])
--------------------------------------------------------------------------

    Molecular point group: c1
  Charge       = 0
  Multiplicity = 1
  Basis Set: AUG-CC-PVTZ
    Blend: AUG-CC-PVTZ
  Basis Set: (AUG-CC-PVTZ AUX)
    Blend: AUG-CC-PVTZ-JKFIT

    Orbital Energies [Eh]
    ---------------------

    Doubly Occupied:

       1A    -20.608609     2A    -20.537731     3A    -11.383360
       4A    -11.276934     5A    -11.249413     6A    -11.247863
       7A    -11.232382     8A     -1.451176     9A     -1.346261
      10A     -1.105355    11A     -1.020268    12A     -0.923627
      13A     -0.837092    14A     -0.753036    15A     -0.701814
      16A     -0.694850    17A     -0.627325    18A     -0.621538
      19A     -0.617692    20A     -0.596381    21A     -0.579007
      22A     -0.538126    23A     -0.499702    24A     -0.499045
      25A     -0.480817    26A     -0.448603    27A     -0.367047

  @DF-RHF Final Energy:  -343.84136258905016

   => Energetics <=

    Nuclear Repulsion Energy =            284.1390069061246209
    One-Electron Energy =               -1031.4706296714180098
    Two-Electron Energy =                 403.4902601762431686
    Total Energy =                       -343.8413625890501635
  Basis Set: (AUG-CC-PVTZ AUX)
    Blend: AUG-CC-PVTZ-RI
    Molecular point group: c1

    Geometry (in Angstrom), charge = 0, multiplicity = 1:

       Center              X                  Y                   Z               Mass
    ------------   -----------------  -----------------  -----------------  -----------------
         O            2.189007146753    -1.201501048433     0.007121862494    15.994914619570
         O            2.024402146753     1.057232951567     0.003791862494    15.994914619570
         C           -2.323683853247     0.624231951567    -0.006375137506    12.000000000000
         C           -2.956609753247    -0.760547248433    -0.006085337506    12.000000000000
         C           -0.838397653247     0.803909151567    -0.003182437506    12.000000000000
         C            0.031902146753    -0.299751048433     0.000191862494    12.000000000000
         C            1.482965146753    -0.036965048433     0.003090862494    12.000000000000
         H           -2.700468853247     1.174345951567    -0.878958137506     1.007825032230
         H           -2.704448853247     1.176534951567     0.863073862494     1.007825032230
         H           -3.975692853247    -0.770831048433    -0.008409137506     1.007825032230
         H           -2.559742853247    -1.343225048433     0.880565862494     1.007825032230
         H           -2.555680853247    -1.345459048433    -0.889429137506     1.007825032230
         H           -0.406011853247     1.729531951567    -0.003354137506     1.007825032230
         H           -0.281685853247    -1.337550048433     0.000793862494     1.007825032230
         H            3.130812146753    -0.933413048433     0.009678862494     1.007825032230

  Basis Set: AUG-CC-PVTZ
    Blend: AUG-CC-PVTZ
  Basis Set: (AUG-CC-PVTZ AUX)
    Blend: AUG-CC-PVTZ-JKFIT
	 Reference Energy          =    -343.8413625890501635 [Eh]
	 Singles Energy            =      -0.0000000000000000 [Eh]
	 Same-Spin Energy          =      -0.3412634941166337 [Eh]
	 Opposite-Spin Energy      =      -1.1010354288152966 [Eh]
	 Correlation Energy        =      -1.4422989229319303 [Eh]
	 Total Energy              =    -345.2836615119820749 [Eh]

	 ================> DF-SCS-MP2 Energies <==================
	-----------------------------------------------------------
	 SCS Same-Spin Scale       =       0.3333333333333333 [-]
	 SCS Opposite-Spin Scale   =       1.2000000000000000 [-]
	 SCS Same-Spin Energy      =      -0.1137544980388779 [Eh]
	 SCS Opposite-Spin Energy  =      -1.3212425145783560 [Eh]
	 SCS Correlation Energy    =      -1.4349970126172338 [Eh]
	 SCS Total Energy          =    -345.2763596016674228 [Eh]
	-----------------------------------------------------------

  Dipole Moment: [D]
     X:    -1.8890      Y:    -0.8985      Z:    -0.0035     Total:     2.0918

*** Psi4 exiting successfully. Buy a developer a beer!
