                               Psi4 1.4a3.dev225

  ==> Input File <==

--------------------------------------------------------------------------
#psi4
#
memory 32 gb

molecule  {
0 1
  O       -2.3109350    -1.1403470    -0.0000450
  O       -2.1116090     1.1175510    -0.0000760
  C        2.2339710     0.6185460     0.0000510
  C        2.7736950    -0.8069580     0.0000920
  C        0.7912727     0.7382641     0.0000085
  C       -0.1379540    -0.2713190     0.0000010
  C       -1.5863340     0.0145930    -0.0000450
  H        2.6208160     1.1641270     0.8715420
  H        2.6208650     1.1640950    -0.8714390
  H        3.8667590    -0.8011940     0.0001220
  H        2.4401730    -1.3549900    -0.8853120
  H        2.4401230    -1.3549580     0.8854960
  H        0.3318170     1.7528370    -0.0000240
  H        0.1592700    -1.3142900     0.0000290
  H       -3.2484020    -0.8568190    -0.0000760
units angstrom
no_reorient  #important for SAPT in psi4, default
symmetry c1  #important for SAPT in psi4, default
}

set PROPERTIES_ORIGIN ["COM"]
properties('MP2/aug-cc-pvtz', properties = ['dipole'])
--------------------------------------------------------------------------

    Molecular point group: c1
  Charge       = 0
  Multiplicity = 1
  Basis Set: AUG-CC-PVTZ
    Blend: AUG-CC-PVTZ
  Basis Set: (AUG-CC-PVTZ AUX)
    Blend: AUG-CC-PVTZ-JKFIT

    Orbital Energies [Eh]
    ---------------------

    Doubly Occupied:

       1A    -20.609994     2A    -20.539723     3A    -11.386238
       4A    -11.273593     5A    -11.246906     6A    -11.243437
       7A    -11.229973     8A     -1.451643     9A     -1.346991
      10A     -1.114605    11A     -1.021340    12A     -0.921155
      13A     -0.841965    14A     -0.735417    15A     -0.705043
      16A     -0.692121    17A     -0.635055    18A     -0.620615
      19A     -0.620295    20A     -0.596172    21A     -0.570304
      22A     -0.520093    23A     -0.518098    24A     -0.500017
      25A     -0.481702    26A     -0.450356    27A     -0.372297

  @DF-RHF Final Energy:  -343.85490288178215

   => Energetics <=

    Nuclear Repulsion Energy =            285.0770469646644756
    One-Electron Energy =               -1033.3736010774480292
    Two-Electron Energy =                 404.4416512310013445
    Total Energy =                       -343.8549028817821522
  Basis Set: (AUG-CC-PVTZ AUX)
    Blend: AUG-CC-PVTZ-RI
    Molecular point group: c1

    Geometry (in Angstrom), charge = 0, multiplicity = 1:

       Center              X                  Y                   Z               Mass
    ------------   -----------------  -----------------  -----------------  -----------------
         O           -2.205759162663    -1.155730651902    -0.000041954199    15.994914619570
         O           -2.006433162663     1.102167348098    -0.000072954199    15.994914619570
         C            2.339146837337     0.603162348098     0.000054045801    12.000000000000
         C            2.878870837337    -0.822341651902     0.000095045801    12.000000000000
         C            0.896448537337     0.722880448098     0.000011545801    12.000000000000
         C           -0.032778162663    -0.286702651902     0.000004045801    12.000000000000
         C           -1.481158162663    -0.000790651902    -0.000041954199    12.000000000000
         H            2.725991837337     1.148743348098     0.871545045801     1.007825032230
         H            2.726040837337     1.148711348098    -0.871435954199     1.007825032230
         H            3.971934837337    -0.816577651902     0.000125045801     1.007825032230
         H            2.545348837337    -1.370373651902    -0.885308954199     1.007825032230
         H            2.545298837337    -1.370341651902     0.885499045801     1.007825032230
         H            0.436992837337     1.737453348098    -0.000020954199     1.007825032230
         H            0.264445837337    -1.329673651902     0.000032045801     1.007825032230
         H           -3.143226162663    -0.872202651902    -0.000072954199     1.007825032230

  Basis Set: AUG-CC-PVTZ
    Blend: AUG-CC-PVTZ
  Basis Set: (AUG-CC-PVTZ AUX)
    Blend: AUG-CC-PVTZ-JKFIT
	 Reference Energy          =    -343.8549028817821522 [Eh]
	 Singles Energy            =      -0.0000000000000000 [Eh]
	 Same-Spin Energy          =      -0.3414942922650694 [Eh]
	 Opposite-Spin Energy      =      -1.1007630576248884 [Eh]
	 Correlation Energy        =      -1.4422573498899578 [Eh]
	 Total Energy              =    -345.2971602316721373 [Eh]

	 ================> DF-SCS-MP2 Energies <==================
	-----------------------------------------------------------
	 SCS Same-Spin Scale       =       0.3333333333333333 [-]
	 SCS Opposite-Spin Scale   =       1.2000000000000000 [-]
	 SCS Same-Spin Energy      =      -0.1138314307550231 [Eh]
	 SCS Opposite-Spin Energy  =      -1.3209156691498660 [Eh]
	 SCS Correlation Energy    =      -1.4347470999048892 [Eh]
	 SCS Total Energy          =    -345.2896499816870346 [Eh]
	-----------------------------------------------------------

  Dipole Moment: [D]
     X:     1.9080      Y:    -0.9330      Z:     0.0001     Total:     2.1239

*** Psi4 exiting successfully. Buy a developer a beer!
