                               Psi4 1.3.2 release

  ==> Input File <==

--------------------------------------------------------------------------
#psi4
#
memory 32 gb

molecule  {
0 1
  O        2.1894624    -1.1821973     0.0071133
  O        2.0242499     1.0655645     0.0037942
  C       -2.3333640     0.6373300    -0.0064140
  C       -2.8929490    -0.7786760    -0.0059160
  C       -0.8407100     0.7390270    -0.0031060
  C        0.0222220    -0.2866530     0.0001530
  C        1.4732850    -0.0238670     0.0030520
  H       -2.7101490     1.1874440    -0.8789970
  H       -2.7141290     1.1896330     0.8630350
  H       -3.9853730    -0.7577330    -0.0084480
  H       -2.5694230    -1.3301270     0.8805270
  H       -2.5653610    -1.3323610    -0.8894680
  H       -0.4156920     1.7426300    -0.0033930
  H       -0.2913660    -1.3244520     0.0007550
  H        3.1211320    -0.9203150     0.0096400
units angstrom
no_reorient  #important for SAPT in psi4, default
symmetry c1  #important for SAPT in psi4, default
}

set PROPERTIES_ORIGIN ["COM"]
properties('MP2/aug-cc-pvtz', properties = ['dipole'])
--------------------------------------------------------------------------

    Molecular point group: c1
  Charge       = 0
  Multiplicity = 1
  Basis Set: AUG-CC-PVTZ
    Blend: AUG-CC-PVTZ
  Basis Set: (AUG-CC-PVTZ AUX)
    Blend: AUG-CC-PVTZ-JKFIT

    Orbital Energies [Eh]
    ---------------------

    Doubly Occupied:

       1A    -20.607945     2A    -20.539328     3A    -11.385479
       4A    -11.268613     5A    -11.247856     6A    -11.241469
       7A    -11.228941     8A     -1.454012     9A     -1.347206
      10A     -1.112115    11A     -1.024908    12A     -0.917217
      13A     -0.844021    14A     -0.740114    15A     -0.706736
      16A     -0.693754    17A     -0.632201    18A     -0.620438
      19A     -0.615713    20A     -0.601906    21A     -0.569336
      22A     -0.515369    23A     -0.512913    24A     -0.505467
      25A     -0.481740    26A     -0.450410    27A     -0.381315

  @DF-RHF Final Energy:  -343.86103850324128

   => Energetics <=

    Nuclear Repulsion Energy =            285.4247740281673487
    One-Electron Energy =               -1034.0785820345990942
    Two-Electron Energy =                 404.7927695031904705
    Total Energy =                       -343.8610385032412751
  Basis Set: (AUG-CC-PVTZ AUX)
    Blend: AUG-CC-PVTZ-RI
    Molecular point group: c1

    Geometry (in Angstrom), charge = 0, multiplicity = 1:

       Center              X                  Y                   Z               Mass
    ------------   -----------------  -----------------  -----------------  -----------------
         O            2.186319097976    -1.182427453817     0.007101932466    15.994914619570
         O            2.021106597976     1.065334346183     0.003782832466    15.994914619570
         C           -2.336507302024     0.637099846183    -0.006425367534    12.000000000000
         C           -2.896092302024    -0.778906153817    -0.005927367534    12.000000000000
         C           -0.843853302024     0.738796846183    -0.003117367534    12.000000000000
         C            0.019078697976    -0.286883153817     0.000141632466    12.000000000000
         C            1.470141697976    -0.024097153817     0.003040632466    12.000000000000
         H           -2.713292302024     1.187213846183    -0.879008367534     1.007825032230
         H           -2.717272302024     1.189402846183     0.863023632466     1.007825032230
         H           -3.988516302024    -0.757963153817    -0.008459367534     1.007825032230
         H           -2.572566302024    -1.330357153817     0.880515632466     1.007825032230
         H           -2.568504302024    -1.332591153817    -0.889479367534     1.007825032230
         H           -0.418835302024     1.742399846183    -0.003404367534     1.007825032230
         H           -0.294509302024    -1.324682153817     0.000743632466     1.007825032230
         H            3.117988697976    -0.920545153817     0.009628632466     1.007825032230

  Basis Set: AUG-CC-PVTZ
    Blend: AUG-CC-PVTZ
  Basis Set: (AUG-CC-PVTZ AUX)
    Blend: AUG-CC-PVTZ-JKFIT
	 Reference Energy          =    -343.8610385032412751 [Eh]
	 Singles Energy            =      -0.0000000000000000 [Eh]
	 Same-Spin Energy          =      -0.3403919628505125 [Eh]
	 Opposite-Spin Energy      =      -1.0988697032408639 [Eh]
	 Correlation Energy        =      -1.4392616660913764 [Eh]
	 Total Energy              =    -345.3003001693326723 [Eh]

	 ================> DF-SCS-MP2 Energies <==================
	-----------------------------------------------------------
	 SCS Same-Spin Scale       =       0.3333333333333333 [-]
	 SCS Opposite-Spin Scale   =       1.2000000000000000 [-]
	 SCS Same-Spin Energy      =      -0.1134639876168375 [Eh]
	 SCS Opposite-Spin Energy  =      -1.3186436438890365 [Eh]
	 SCS Correlation Energy    =      -1.4321076315058741 [Eh]
	 SCS Total Energy          =    -345.2931461347471327 [Eh]
	-----------------------------------------------------------

  Dipole Moment: [D]
     X:    -1.8850      Y:    -0.9131      Z:    -0.0035     Total:     2.0945

*** Psi4 exiting successfully. Buy a developer a beer!
