                               Psi4 1.3.2 release

  ==> Input File <==

--------------------------------------------------------------------------
#psi4
#
memory 32 gb

molecule  {
0 1
  O        2.1793270    -1.1884030     0.0070830
  O        2.0147220     1.0703310     0.0037530
  C       -2.3333640     0.6373300    -0.0064140
  C       -2.8929490    -0.7786760    -0.0059160
  C       -0.8407100     0.7390270    -0.0031060
  C        0.0222220    -0.2866530     0.0001530
  C        1.4732850    -0.0238670     0.0030520
  H       -2.7101490     1.1874440    -0.8789970
  H       -2.7141290     1.1896330     0.8630350
  H       -3.9853730    -0.7577330    -0.0084480
  H       -2.5694230    -1.3301270     0.8805270
  H       -2.5653610    -1.3323610    -0.8894680
  H       -0.3376991     1.9267960    -0.0034457
  H       -0.2913660    -1.3244520     0.0007550
  H        3.1211320    -0.9203150     0.0096400
units angstrom
no_reorient  #important for SAPT in psi4, default
symmetry c1  #important for SAPT in psi4, default
}

set PROPERTIES_ORIGIN ["COM"]
properties('MP2/aug-cc-pvtz', properties = ['dipole'])
--------------------------------------------------------------------------

    Molecular point group: c1
  Charge       = 0
  Multiplicity = 1
  Basis Set: AUG-CC-PVTZ
    Blend: AUG-CC-PVTZ
  Basis Set: (AUG-CC-PVTZ AUX)
    Blend: AUG-CC-PVTZ-JKFIT

    Orbital Energies [Eh]
    ---------------------

    Doubly Occupied:

       1A    -20.610557     2A    -20.539730     3A    -11.385628
       4A    -11.286952     5A    -11.248785     6A    -11.241602
       7A    -11.229561     8A     -1.452927     9A     -1.347788
      10A     -1.108236    11A     -1.024226    12A     -0.911888
      13A     -0.842476    14A     -0.724100    15A     -0.703958
      16A     -0.685577    17A     -0.632437    18A     -0.620784
      19A     -0.615743    20A     -0.592381    21A     -0.568175
      22A     -0.515497    23A     -0.513535    24A     -0.483694
      25A     -0.482424    26A     -0.450715    27A     -0.381335

  @DF-RHF Final Energy:  -343.83817814546984

   => Energetics <=

    Nuclear Repulsion Energy =            284.6483974607677396
    One-Electron Energy =               -1032.5717266277779345
    Two-Electron Energy =                 404.0851510215404119
    Total Energy =                       -343.8381781454698398
  Basis Set: (AUG-CC-PVTZ AUX)
    Blend: AUG-CC-PVTZ-RI
    Molecular point group: c1

    Geometry (in Angstrom), charge = 0, multiplicity = 1:

       Center              X                  Y                   Z               Mass
    ------------   -----------------  -----------------  -----------------  -----------------
         O            2.178541557839    -1.190258174065     0.007083593682    15.994914619570
         O            2.013936557839     1.068475825935     0.003753593682    15.994914619570
         C           -2.334149442161     0.635474825935    -0.006413406318    12.000000000000
         C           -2.893734442161    -0.780531174065    -0.005915406318    12.000000000000
         C           -0.841495442161     0.737171825935    -0.003105406318    12.000000000000
         C            0.021436557839    -0.288508174065     0.000153593682    12.000000000000
         C            1.472499557839    -0.025722174065     0.003052593682    12.000000000000
         H           -2.710934442161     1.185588825935    -0.878996406318     1.007825032230
         H           -2.714914442161     1.187777825935     0.863035593682     1.007825032230
         H           -3.986158442161    -0.759588174065    -0.008447406318     1.007825032230
         H           -2.570208442161    -1.331982174065     0.880527593682     1.007825032230
         H           -2.566146442161    -1.334216174065    -0.889467406318     1.007825032230
         H           -0.338484542161     1.924940825935    -0.003445106318     1.007825032230
         H           -0.292151442161    -1.326307174065     0.000755593682     1.007825032230
         H            3.120346557839    -0.922170174065     0.009640593682     1.007825032230

  Basis Set: AUG-CC-PVTZ
    Blend: AUG-CC-PVTZ
  Basis Set: (AUG-CC-PVTZ AUX)
    Blend: AUG-CC-PVTZ-JKFIT
	 Reference Energy          =    -343.8381781454698398 [Eh]
	 Singles Energy            =      -0.0000000000000000 [Eh]
	 Same-Spin Energy          =      -0.3413914190893296 [Eh]
	 Opposite-Spin Energy      =      -1.1017673173361249 [Eh]
	 Correlation Energy        =      -1.4431587364254546 [Eh]
	 Total Energy              =    -345.2813368818952995 [Eh]

	 ================> DF-SCS-MP2 Energies <==================
	-----------------------------------------------------------
	 SCS Same-Spin Scale       =       0.3333333333333333 [-]
	 SCS Opposite-Spin Scale   =       1.2000000000000000 [-]
	 SCS Same-Spin Energy      =      -0.1137971396964432 [Eh]
	 SCS Opposite-Spin Energy  =      -1.3221207808033497 [Eh]
	 SCS Correlation Energy    =      -1.4359179204997929 [Eh]
	 SCS Total Energy          =    -345.2740960659696157 [Eh]
	-----------------------------------------------------------

  Dipole Moment: [D]
     X:    -1.8340      Y:    -0.9693      Z:    -0.0033     Total:     2.0744

*** Psi4 exiting successfully. Buy a developer a beer!
