                               Psi4 1.3.2 release

  ==> Input File <==

--------------------------------------------------------------------------
#psi4
#
memory 32 gb

molecule  {
0 1
  O        2.1793270    -1.1884030     0.0070830
  O        2.0147220     1.0703310     0.0037530
  C       -2.3333640     0.6373300    -0.0064140
  C       -2.9190560    -0.7673774    -0.0508064
  C       -0.8407100     0.7390270    -0.0031060
  C        0.0222220    -0.2866530     0.0001530
  C        1.4732850    -0.0238670     0.0030520
  H       -2.7296524     1.1561488    -0.8894633
  H       -2.7141290     1.1896330     0.8630350
  H       -3.9853730    -0.7577330    -0.0084480
  H       -2.5694230    -1.3301270     0.8805270
  H       -2.5653610    -1.3323610    -0.8894680
  H       -0.4156920     1.7426300    -0.0033930
  H       -0.2913660    -1.3244520     0.0007550
  H        3.1211320    -0.9203150     0.0096400
units angstrom
no_reorient  #important for SAPT in psi4, default
symmetry c1  #important for SAPT in psi4, default
}

set PROPERTIES_ORIGIN ["COM"]
properties('MP2/aug-cc-pvtz', properties = ['dipole'])
--------------------------------------------------------------------------

    Molecular point group: c1
  Charge       = 0
  Multiplicity = 1
  Basis Set: AUG-CC-PVTZ
    Blend: AUG-CC-PVTZ
  Basis Set: (AUG-CC-PVTZ AUX)
    Blend: AUG-CC-PVTZ-JKFIT

    Orbital Energies [Eh]
    ---------------------

    Doubly Occupied:

       1A    -20.610723     2A    -20.540455     3A    -11.385924
       4A    -11.268485     5A    -11.247313     6A    -11.241082
       7A    -11.228609     8A     -1.453273     9A     -1.348352
      10A     -1.111240    11A     -1.025068    12A     -0.916507
      13A     -0.841989    14A     -0.739712    15A     -0.706078
      16A     -0.694624    17A     -0.631676    18A     -0.621380
      19A     -0.617065    20A     -0.600933    21A     -0.572557
      22A     -0.520964    23A     -0.511384    24A     -0.494522
      25A     -0.482617    26A     -0.451031    27A     -0.381201

  @DF-RHF Final Energy:  -343.85688390642235

   => Energetics <=

    Nuclear Repulsion Energy =            285.2821981236443776
    One-Electron Energy =               -1033.7886386638117528
    Two-Electron Energy =                 404.6495566337450782
    Total Energy =                       -343.8568839064223539
  Basis Set: (AUG-CC-PVTZ AUX)
    Blend: AUG-CC-PVTZ-RI
    Molecular point group: c1

    Geometry (in Angstrom), charge = 0, multiplicity = 1:

       Center              X                  Y                   Z               Mass
    ------------   -----------------  -----------------  -----------------  -----------------
         O            2.182654833386    -1.189442961568     0.012572514736    15.994914619570
         O            2.018049833386     1.069291038432     0.009242514736    15.994914619570
         C           -2.330036166614     0.636290038432    -0.000924485264    12.000000000000
         C           -2.915728166614    -0.768417361568    -0.045316885264    12.000000000000
         C           -0.837382166614     0.737987038432     0.002383514736    12.000000000000
         C            0.025549833386    -0.287692961568     0.005642514736    12.000000000000
         C            1.476612833386    -0.024906961568     0.008541514736    12.000000000000
         H           -2.726324566614     1.155108838432    -0.883973785264     1.007825032230
         H           -2.710801166614     1.188593038432     0.868524514736     1.007825032230
         H           -3.982045166614    -0.758772961568    -0.002958485264     1.007825032230
         H           -2.566095166614    -1.331166961568     0.886016514736     1.007825032230
         H           -2.562033166614    -1.333400961568    -0.883978485264     1.007825032230
         H           -0.412364166614     1.741590038432     0.002096514736     1.007825032230
         H           -0.288038166614    -1.325491961568     0.006244514736     1.007825032230
         H            3.124459833386    -0.921354961568     0.015129514736     1.007825032230

  Basis Set: AUG-CC-PVTZ
    Blend: AUG-CC-PVTZ
  Basis Set: (AUG-CC-PVTZ AUX)
    Blend: AUG-CC-PVTZ-JKFIT
	 Reference Energy          =    -343.8568839064223539 [Eh]
	 Singles Energy            =      -0.0000000000000000 [Eh]
	 Same-Spin Energy          =      -0.3406644502936780 [Eh]
	 Opposite-Spin Energy      =      -1.0995495706844376 [Eh]
	 Correlation Energy        =      -1.4402140209781156 [Eh]
	 Total Energy              =    -345.2970979274004435 [Eh]

	 ================> DF-SCS-MP2 Energies <==================
	-----------------------------------------------------------
	 SCS Same-Spin Scale       =       0.3333333333333333 [-]
	 SCS Opposite-Spin Scale   =       1.2000000000000000 [-]
	 SCS Same-Spin Energy      =      -0.1135548167645593 [Eh]
	 SCS Opposite-Spin Energy  =      -1.3194594848213250 [Eh]
	 SCS Correlation Energy    =      -1.4330143015858843 [Eh]
	 SCS Total Energy          =    -345.2898982080082533 [Eh]
	-----------------------------------------------------------

  Dipole Moment: [D]
     X:    -1.8043      Y:    -0.9231      Z:    -0.0276     Total:     2.0269

*** Psi4 exiting successfully. Buy a developer a beer!
