                               Psi4 1.4a3.dev225

  ==> Input File <==

--------------------------------------------------------------------------
#psi4
#
memory 32 gb

molecule  {
0 1
  O       -2.3109350    -1.1403470    -0.0000450
  O       -2.1116090     1.1175510    -0.0000760
  C        2.2339710     0.6185460     0.0000510
  C        2.7736950    -0.8069580     0.0000920
  C        0.7613755     0.7407450     0.0000076
  C       -0.1379540    -0.2713190     0.0000010
  C       -1.5863340     0.0145930    -0.0000450
  H        2.6208160     1.1641270     0.8715420
  H        2.6208650     1.1640950    -0.8714390
  H        3.8667590    -0.8011940     0.0001220
  H        2.4401730    -1.3549900    -0.8853120
  H        2.4401230    -1.3549580     0.8854960
  H        0.3318170     1.7528370    -0.0000240
  H        0.1592700    -1.3142900     0.0000290
  H       -3.2484020    -0.8568190    -0.0000760
units angstrom
no_reorient  #important for SAPT in psi4, default
symmetry c1  #important for SAPT in psi4, default
}

set PROPERTIES_ORIGIN ["COM"]
properties('MP2/aug-cc-pvtz', properties = ['dipole'])
--------------------------------------------------------------------------

    Molecular point group: c1
  Charge       = 0
  Multiplicity = 1
  Basis Set: AUG-CC-PVTZ
    Blend: AUG-CC-PVTZ
  Basis Set: (AUG-CC-PVTZ AUX)
    Blend: AUG-CC-PVTZ-JKFIT

    Orbital Energies [Eh]
    ---------------------

    Doubly Occupied:

       1A    -20.610293     2A    -20.540155     3A    -11.386189
       4A    -11.270428     5A    -11.247485     6A    -11.242048
       7A    -11.229334     8A     -1.452022     9A     -1.347424
      10A     -1.111894    11A     -1.022893    12A     -0.918022
      13A     -0.842146    14A     -0.737512    15A     -0.705023
      16A     -0.693300    17A     -0.632840    18A     -0.620316
      19A     -0.617548    20A     -0.598611    21A     -0.569740
      22A     -0.516218    23A     -0.515224    24A     -0.503561
      25A     -0.482212    26A     -0.450614    27A     -0.377201

  @DF-RHF Final Energy:  -343.85868430050931

   => Energetics <=

    Nuclear Repulsion Energy =            285.1301986018573871
    One-Electron Energy =               -1033.4972582427312773
    Two-Electron Energy =                 404.5083753403645801
    Total Energy =                       -343.8586843005093101
  Basis Set: (AUG-CC-PVTZ AUX)
    Blend: AUG-CC-PVTZ-RI
    Molecular point group: c1

    Geometry (in Angstrom), charge = 0, multiplicity = 1:

       Center              X                  Y                   Z               Mass
    ------------   -----------------  -----------------  -----------------  -----------------
         O           -2.202173378671    -1.156028203897    -0.000041846255    15.994914619570
         O           -2.002847378671     1.101869796103    -0.000072846255    15.994914619570
         C            2.342732621329     0.602864796103     0.000054153745    12.000000000000
         C            2.882456621329    -0.822639203897     0.000095153745    12.000000000000
         C            0.870137121329     0.725063796103     0.000010753745    12.000000000000
         C           -0.029192378671    -0.287000203897     0.000004153745    12.000000000000
         C           -1.477572378671    -0.001088203897    -0.000041846255    12.000000000000
         H            2.729577621329     1.148445796103     0.871545153745     1.007825032230
         H            2.729626621329     1.148413796103    -0.871435846255     1.007825032230
         H            3.975520621329    -0.816875203897     0.000125153745     1.007825032230
         H            2.548934621329    -1.370671203897    -0.885308846255     1.007825032230
         H            2.548884621329    -1.370639203897     0.885499153745     1.007825032230
         H            0.440578621329     1.737155796103    -0.000020846255     1.007825032230
         H            0.268031621329    -1.329971203897     0.000032153745     1.007825032230
         H           -3.139640378671    -0.872500203897    -0.000072846255     1.007825032230

  Basis Set: AUG-CC-PVTZ
    Blend: AUG-CC-PVTZ
  Basis Set: (AUG-CC-PVTZ AUX)
    Blend: AUG-CC-PVTZ-JKFIT
	 Reference Energy          =    -343.8586843005093101 [Eh]
	 Singles Energy            =      -0.0000000000000000 [Eh]
	 Same-Spin Energy          =      -0.3409497778357083 [Eh]
	 Opposite-Spin Energy      =      -1.0999904252726256 [Eh]
	 Correlation Energy        =      -1.4409402031083340 [Eh]
	 Total Energy              =    -345.2996245036176219 [Eh]

	 ================> DF-SCS-MP2 Energies <==================
	-----------------------------------------------------------
	 SCS Same-Spin Scale       =       0.3333333333333333 [-]
	 SCS Opposite-Spin Scale   =       1.2000000000000000 [-]
	 SCS Same-Spin Energy      =      -0.1136499259452361 [Eh]
	 SCS Opposite-Spin Energy  =      -1.3199885103271507 [Eh]
	 SCS Correlation Energy    =      -1.4336384362723869 [Eh]
	 SCS Total Energy          =    -345.2923227367816708 [Eh]
	-----------------------------------------------------------

  Dipole Moment: [D]
     X:     1.8482      Y:    -0.9409      Z:     0.0001     Total:     2.0739

*** Psi4 exiting successfully. Buy a developer a beer!
