                               Psi4 1.4a3.dev225

  ==> Input File <==

--------------------------------------------------------------------------
#psi4
#
memory 32 gb

molecule  {
0 1
  O       -2.3109350    -1.1403470    -0.0000450
  O       -2.1116090     1.1175510    -0.0000760
  C        2.2339710     0.6185460     0.0000510
  C        2.7736950    -0.8069580     0.0000920
  C        0.7414440     0.7423990     0.0000070
  C       -0.1379540    -0.2713190     0.0000010
  C       -1.5863340     0.0145930    -0.0000450
  H        2.6208160     1.1641270     0.8715420
  H        2.6208650     1.1640950    -0.8714390
  H        3.8667590    -0.8011940     0.0001220
  H        2.4401730    -1.3549900    -0.8853120
  H        2.4401230    -1.3549580     0.8854960
  H        0.3318170     1.7528370    -0.0000240
  H        0.1990537    -1.3445763     0.0000307
  H       -3.2484020    -0.8568190    -0.0000760
units angstrom
no_reorient  #important for SAPT in psi4, default
symmetry c1  #important for SAPT in psi4, default
}

set PROPERTIES_ORIGIN ["COM"]
properties('MP2/aug-cc-pvtz', properties = ['dipole'])
--------------------------------------------------------------------------

    Molecular point group: c1
  Charge       = 0
  Multiplicity = 1
  Basis Set: AUG-CC-PVTZ
    Blend: AUG-CC-PVTZ
  Basis Set: (AUG-CC-PVTZ AUX)
    Blend: AUG-CC-PVTZ-JKFIT

    Orbital Energies [Eh]
    ---------------------

    Doubly Occupied:

       1A    -20.610413     2A    -20.541055     3A    -11.387245
       4A    -11.268160     5A    -11.247888     6A    -11.245226
       7A    -11.228987     8A     -1.452381     9A     -1.348076
      10A     -1.110207    11A     -1.022787    12A     -0.915428
      13A     -0.842352    14A     -0.734561    15A     -0.704294
      16A     -0.694092    17A     -0.631661    18A     -0.620353
      19A     -0.615883    20A     -0.596634    21A     -0.567355
      22A     -0.515104    23A     -0.512343    24A     -0.503585
      25A     -0.482817    26A     -0.451168    27A     -0.380521

  @DF-RHF Final Energy:  -343.85789141617659

   => Energetics <=

    Nuclear Repulsion Energy =            285.0005792252577521
    One-Electron Energy =               -1033.2557928556502702
    Two-Electron Energy =                 404.3973222142159329
    Total Energy =                       -343.8578914161765852
  Basis Set: (AUG-CC-PVTZ AUX)
    Blend: AUG-CC-PVTZ-RI
    Molecular point group: c1

    Geometry (in Angstrom), charge = 0, multiplicity = 1:

       Center              X                  Y                   Z               Mass
    ------------   -----------------  -----------------  -----------------  -----------------
         O           -2.200183591994    -1.155921506925    -0.000041791417    15.994914619570
         O           -2.000857591994     1.101976493075    -0.000072791417    15.994914619570
         C            2.344722408006     0.602971493075     0.000054208583    12.000000000000
         C            2.884446408006    -0.822532506925     0.000095208583    12.000000000000
         C            0.852195408006     0.726824493075     0.000010208583    12.000000000000
         C           -0.027202591994    -0.286893506925     0.000004208583    12.000000000000
         C           -1.475582591994    -0.000981506925    -0.000041791417    12.000000000000
         H            2.731567408006     1.148552493075     0.871545208583     1.007825032230
         H            2.731616408006     1.148520493075    -0.871435791417     1.007825032230
         H            3.977510408006    -0.816768506925     0.000125208583     1.007825032230
         H            2.550924408006    -1.370564506925    -0.885308791417     1.007825032230
         H            2.550874408006    -1.370532506925     0.885499208583     1.007825032230
         H            0.442568408006     1.737262493075    -0.000020791417     1.007825032230
         H            0.309805108006    -1.360150806925     0.000033908583     1.007825032230
         H           -3.137650591994    -0.872393506925    -0.000072791417     1.007825032230

  Basis Set: AUG-CC-PVTZ
    Blend: AUG-CC-PVTZ
  Basis Set: (AUG-CC-PVTZ AUX)
    Blend: AUG-CC-PVTZ-JKFIT
	 Reference Energy          =    -343.8578914161765852 [Eh]
	 Singles Energy            =      -0.0000000000000000 [Eh]
	 Same-Spin Energy          =      -0.3408125361081749 [Eh]
	 Opposite-Spin Energy      =      -1.0999525005723001 [Eh]
	 Correlation Energy        =      -1.4407650366804750 [Eh]
	 Total Energy              =    -345.2986564528570739 [Eh]

	 ================> DF-SCS-MP2 Energies <==================
	-----------------------------------------------------------
	 SCS Same-Spin Scale       =       0.3333333333333333 [-]
	 SCS Opposite-Spin Scale   =       1.2000000000000000 [-]
	 SCS Same-Spin Energy      =      -0.1136041787027249 [Eh]
	 SCS Opposite-Spin Energy  =      -1.3199430006867601 [Eh]
	 SCS Correlation Energy    =      -1.4335471793894849 [Eh]
	 SCS Total Energy          =    -345.2914385955660919 [Eh]
	-----------------------------------------------------------

  Dipole Moment: [D]
     X:     1.8105      Y:    -0.9382      Z:     0.0001     Total:     2.0391

*** Psi4 exiting successfully. Buy a developer a beer!
