                               Psi4 1.3.2 release

  ==> Input File <==

--------------------------------------------------------------------------
#psi4
#
memory 32 gb

molecule  {
0 1
  O        2.1793270    -1.1884030     0.0070830
  O        2.0147220     1.0703310     0.0037530
  C       -2.3333640     0.6373300    -0.0064140
  C       -2.9420259    -0.7582843    -0.0060547
  C       -0.8451683     0.7910580    -0.0031819
  C        0.0222220    -0.2866530     0.0001530
  C        1.4732850    -0.0238670     0.0030520
  H       -2.7101490     1.1874440    -0.8789970
  H       -2.7141290     1.1896330     0.8630350
  H       -3.9853730    -0.7577330    -0.0084480
  H       -2.5694230    -1.3301270     0.8805270
  H       -2.5653610    -1.3323610    -0.8894680
  H       -0.4156920     1.7426300    -0.0033930
  H       -0.2913660    -1.3244520     0.0007550
  H        3.1211320    -0.9203150     0.0096400
units angstrom
no_reorient  #important for SAPT in psi4, default
symmetry c1  #important for SAPT in psi4, default
}

set PROPERTIES_ORIGIN ["COM"]
properties('MP2/aug-cc-pvtz', properties = ['dipole'])
--------------------------------------------------------------------------

    Molecular point group: c1
  Charge       = 0
  Multiplicity = 1
  Basis Set: AUG-CC-PVTZ
    Blend: AUG-CC-PVTZ
  Basis Set: (AUG-CC-PVTZ AUX)
    Blend: AUG-CC-PVTZ-JKFIT

    Orbital Energies [Eh]
    ---------------------

    Doubly Occupied:

       1A    -20.609196     2A    -20.538478     3A    -11.384058
       4A    -11.273731     5A    -11.248464     6A    -11.245358
       7A    -11.230802     8A     -1.451752     9A     -1.346830
      10A     -1.106995    11A     -1.021419    12A     -0.920949
      13A     -0.838486    14A     -0.747963    15A     -0.703042
      16A     -0.694755    17A     -0.628566    18A     -0.618926
      19A     -0.618602    20A     -0.598294    21A     -0.575643
      22A     -0.528441    23A     -0.504914    24A     -0.503407
      25A     -0.481402    26A     -0.449293    27A     -0.371437

  @DF-RHF Final Energy:  -343.85160755996134

   => Energetics <=

    Nuclear Repulsion Energy =            284.5679314099073167
    One-Electron Energy =               -1032.3566693422476419
    Two-Electron Energy =                 403.9371303723790447
    Total Energy =                       -343.8516075599613373
  Basis Set: (AUG-CC-PVTZ AUX)
    Blend: AUG-CC-PVTZ-RI
    Molecular point group: c1

    Geometry (in Angstrom), charge = 0, multiplicity = 1:

       Center              X                  Y                   Z               Mass
    ------------   -----------------  -----------------  -----------------  -----------------
         O            2.185748035488    -1.197089245519     0.007108801342    15.994914619570
         O            2.021143035488     1.061644754481     0.003778801342    15.994914619570
         C           -2.326942964512     0.628643754481    -0.006388198658    12.000000000000
         C           -2.935604864512    -0.766970545519    -0.006028898658    12.000000000000
         C           -0.838747264512     0.782371754481    -0.003156098658    12.000000000000
         C            0.028643035488    -0.295339245519     0.000178801342    12.000000000000
         C            1.479706035488    -0.032553245519     0.003077801342    12.000000000000
         H           -2.703727964512     1.178757754481    -0.878971198658     1.007825032230
         H           -2.707707964512     1.180946754481     0.863060801342     1.007825032230
         H           -3.978951964512    -0.766419245519    -0.008422198658     1.007825032230
         H           -2.563001964512    -1.338813245519     0.880552801342     1.007825032230
         H           -2.558939964512    -1.341047245519    -0.889442198658     1.007825032230
         H           -0.409270964512     1.733943754481    -0.003367198658     1.007825032230
         H           -0.284944964512    -1.333138245519     0.000780801342     1.007825032230
         H            3.127553035488    -0.929001245519     0.009665801342     1.007825032230

  Basis Set: AUG-CC-PVTZ
    Blend: AUG-CC-PVTZ
  Basis Set: (AUG-CC-PVTZ AUX)
    Blend: AUG-CC-PVTZ-JKFIT
	 Reference Energy          =    -343.8516075599613373 [Eh]
	 Singles Energy            =      -0.0000000000000000 [Eh]
	 Same-Spin Energy          =      -0.3409691347466443 [Eh]
	 Opposite-Spin Energy      =      -1.1002705391270489 [Eh]
	 Correlation Energy        =      -1.4412396738736932 [Eh]
	 Total Energy              =    -345.2928472338350048 [Eh]

	 ================> DF-SCS-MP2 Energies <==================
	-----------------------------------------------------------
	 SCS Same-Spin Scale       =       0.3333333333333333 [-]
	 SCS Opposite-Spin Scale   =       1.2000000000000000 [-]
	 SCS Same-Spin Energy      =      -0.1136563782488814 [Eh]
	 SCS Opposite-Spin Energy  =      -1.3203246469524585 [Eh]
	 SCS Correlation Energy    =      -1.4339810252013399 [Eh]
	 SCS Total Energy          =    -345.2855885851626567 [Eh]
	-----------------------------------------------------------

  Dipole Moment: [D]
     X:    -1.8692      Y:    -0.9058      Z:    -0.0034     Total:     2.0771

*** Psi4 exiting successfully. Buy a developer a beer!
