                               Psi4 1.4a3.dev225

  ==> Input File <==

--------------------------------------------------------------------------
#psi4
#
memory 32 gb

molecule  {
0 1
  O       -2.3109350    -1.1403470    -0.0000450
  O       -2.1116090     1.1175510    -0.0000760
  C        2.2339710     0.6185460     0.0000510
  C        2.7736950    -0.8069580     0.0000920
  C        0.7414440     0.7423990     0.0000070
  C       -0.1379540    -0.2713190     0.0000010
  C       -1.6129068    -0.0277613    -0.0000450
  H        2.6208160     1.1641270     0.8715420
  H        2.6208650     1.1640950    -0.8714390
  H        3.8667590    -0.8011940     0.0001220
  H        2.4401730    -1.3549900    -0.8853120
  H        2.4401230    -1.3549580     0.8854960
  H        0.3318170     1.7528370    -0.0000240
  H        0.1592700    -1.3142900     0.0000290
  H       -3.2484020    -0.8568190    -0.0000760
units angstrom
no_reorient  #important for SAPT in psi4, default
symmetry c1  #important for SAPT in psi4, default
}

set PROPERTIES_ORIGIN ["COM"]
properties('MP2/aug-cc-pvtz', properties = ['dipole'])
--------------------------------------------------------------------------

    Molecular point group: c1
  Charge       = 0
  Multiplicity = 1
  Basis Set: AUG-CC-PVTZ
    Blend: AUG-CC-PVTZ
  Basis Set: (AUG-CC-PVTZ AUX)
    Blend: AUG-CC-PVTZ-JKFIT

    Orbital Energies [Eh]
    ---------------------

    Doubly Occupied:

       1A    -20.625242     2A    -20.533361     3A    -11.387916
       4A    -11.265507     5A    -11.246229     6A    -11.240330
       7A    -11.227571     8A     -1.473690     9A     -1.336619
      10A     -1.106939    11A     -1.019693    12A     -0.917054
      13A     -0.850209    14A     -0.744486    15A     -0.703689
      16A     -0.701896    17A     -0.637757    18A     -0.625755
      19A     -0.613977    20A     -0.600484    21A     -0.561182
      22A     -0.513591    23A     -0.510756    24A     -0.501457
      25A     -0.475671    26A     -0.445735    27A     -0.376870

  @DF-RHF Final Energy:  -343.85625695666647

   => Energetics <=

    Nuclear Repulsion Energy =            285.0877220648175694
    One-Electron Energy =               -1033.4006307642625870
    Two-Electron Energy =                 404.4566517427784902
    Total Energy =                       -343.8562569566664706
  Basis Set: (AUG-CC-PVTZ AUX)
    Blend: AUG-CC-PVTZ-RI
    Molecular point group: c1

    Geometry (in Angstrom), charge = 0, multiplicity = 1:

       Center              X                  Y                   Z               Mass
    ------------   -----------------  -----------------  -----------------  -----------------
         O           -2.196595786974    -1.151146727231    -0.000041774293    15.994914619570
         O           -1.997269786974     1.106751272769    -0.000072774293    15.994914619570
         C            2.348310213026     0.607746272769     0.000054225707    12.000000000000
         C            2.888034213026    -0.817757727231     0.000095225707    12.000000000000
         C            0.855783213026     0.731599272769     0.000010225707    12.000000000000
         C           -0.023614786974    -0.282118727231     0.000004225707    12.000000000000
         C           -1.498567586974    -0.038561027231    -0.000041774293    12.000000000000
         H            2.735155213026     1.153327272769     0.871545225707     1.007825032230
         H            2.735204213026     1.153295272769    -0.871435774293     1.007825032230
         H            3.981098213026    -0.811993727231     0.000125225707     1.007825032230
         H            2.554512213026    -1.365789727231    -0.885308774293     1.007825032230
         H            2.554462213026    -1.365757727231     0.885499225707     1.007825032230
         H            0.446156213026     1.742037272769    -0.000020774293     1.007825032230
         H            0.273609213026    -1.325089727231     0.000032225707     1.007825032230
         H           -3.134062786974    -0.867618727231    -0.000072774293     1.007825032230

  Basis Set: AUG-CC-PVTZ
    Blend: AUG-CC-PVTZ
  Basis Set: (AUG-CC-PVTZ AUX)
    Blend: AUG-CC-PVTZ-JKFIT
	 Reference Energy          =    -343.8562569566664706 [Eh]
	 Singles Energy            =      -0.0000000000000000 [Eh]
	 Same-Spin Energy          =      -0.3407574906429830 [Eh]
	 Opposite-Spin Energy      =      -1.0996424349839438 [Eh]
	 Correlation Energy        =      -1.4403999256269269 [Eh]
	 Total Energy              =    -345.2966568822934050 [Eh]

	 ================> DF-SCS-MP2 Energies <==================
	-----------------------------------------------------------
	 SCS Same-Spin Scale       =       0.3333333333333333 [-]
	 SCS Opposite-Spin Scale   =       1.2000000000000000 [-]
	 SCS Same-Spin Energy      =      -0.1135858302143277 [Eh]
	 SCS Opposite-Spin Energy  =      -1.3195709219807326 [Eh]
	 SCS Correlation Energy    =      -1.4331567521950601 [Eh]
	 SCS Total Energy          =    -345.2894137088615025 [Eh]
	-----------------------------------------------------------

  Dipole Moment: [D]
     X:     1.5396      Y:    -1.3133      Z:     0.0001     Total:     2.0236

*** Psi4 exiting successfully. Buy a developer a beer!
