                               Psi4 1.3.2 release

  ==> Input File <==

--------------------------------------------------------------------------
#psi4
#
memory 32 gb

molecule  {
0 1
  O        2.1793270    -1.1884030     0.0070830
  O        2.0147220     1.0703310     0.0037530
  C       -2.3333640     0.6373300    -0.0064140
  C       -2.8929490    -0.7786760    -0.0059160
  C       -0.8407100     0.7390270    -0.0031060
  C        0.0222220    -0.2866530     0.0001530
  C        1.4732850    -0.0238670     0.0030520
  H       -2.7101490     1.1874440    -0.8789970
  H       -2.7141290     1.1896330     0.8630350
  H       -3.9853730    -0.7577330    -0.0084480
  H       -2.5694230    -1.3301270     0.8805270
  H       -2.5653610    -1.3323610    -0.8894680
  H       -0.4936849     1.5584640    -0.0033403
  H       -0.2913660    -1.3244520     0.0007550
  H        3.1211320    -0.9203150     0.0096400
units angstrom
no_reorient  #important for SAPT in psi4, default
symmetry c1  #important for SAPT in psi4, default
}

set PROPERTIES_ORIGIN ["COM"]
properties('MP2/aug-cc-pvtz', properties = ['dipole'])
--------------------------------------------------------------------------

    Molecular point group: c1
  Charge       = 0
  Multiplicity = 1
  Basis Set: AUG-CC-PVTZ
    Blend: AUG-CC-PVTZ
  Basis Set: (AUG-CC-PVTZ AUX)
    Blend: AUG-CC-PVTZ-JKFIT

    Orbital Energies [Eh]
    ---------------------

    Doubly Occupied:

       1A    -20.610588     2A    -20.540597     3A    -11.385821
       4A    -11.246596     5A    -11.245603     6A    -11.240226
       7A    -11.228018     8A     -1.453234     9A     -1.348398
      10A     -1.119700    11A     -1.025320    12A     -0.926952
      13A     -0.843869    14A     -0.771726    15A     -0.707006
      16A     -0.698297    17A     -0.631740    18A     -0.620751
      19A     -0.618248    20A     -0.607604    21A     -0.570336
      22A     -0.518202    23A     -0.514723    24A     -0.511557
      25A     -0.482845    26A     -0.450634    27A     -0.380665

  @DF-RHF Final Energy:  -343.82591183161571

   => Energetics <=

    Nuclear Repulsion Energy =            286.4725724634246262
    One-Electron Energy =               -1035.9984566380844626
    Two-Electron Energy =                 405.6999723430441236
    Total Energy =                       -343.8259118316157128
  Basis Set: (AUG-CC-PVTZ AUX)
    Blend: AUG-CC-PVTZ-RI
    Molecular point group: c1

    Geometry (in Angstrom), charge = 0, multiplicity = 1:

       Center              X                  Y                   Z               Mass
    ------------   -----------------  -----------------  -----------------  -----------------
         O            2.180112797985    -1.186547977204     0.007082531991    15.994914619570
         O            2.015507797985     1.072186022796     0.003752531991    15.994914619570
         C           -2.332578202015     0.639185022796    -0.006414468009    12.000000000000
         C           -2.892163202015    -0.776820977204    -0.005916468009    12.000000000000
         C           -0.839924202015     0.740882022796    -0.003106468009    12.000000000000
         C            0.023007797985    -0.284797977204     0.000152531991    12.000000000000
         C            1.474070797985    -0.022011977204     0.003051531991    12.000000000000
         H           -2.709363202015     1.189299022796    -0.878997468009     1.007825032230
         H           -2.713343202015     1.191488022796     0.863034531991     1.007825032230
         H           -3.984587202015    -0.755877977204    -0.008448468009     1.007825032230
         H           -2.568637202015    -1.328271977204     0.880526531991     1.007825032230
         H           -2.564575202015    -1.330505977204    -0.889468468009     1.007825032230
         H           -0.492899102015     1.560319022796    -0.003340768009     1.007825032230
         H           -0.290580202015    -1.322596977204     0.000754531991     1.007825032230
         H            3.121917797985    -0.918459977204     0.009639531991     1.007825032230

  Basis Set: AUG-CC-PVTZ
    Blend: AUG-CC-PVTZ
  Basis Set: (AUG-CC-PVTZ AUX)
    Blend: AUG-CC-PVTZ-JKFIT
	 Reference Energy          =    -343.8259118316157128 [Eh]
	 Singles Energy            =      -0.0000000000000000 [Eh]
	 Same-Spin Energy          =      -0.3402654650018166 [Eh]
	 Opposite-Spin Energy      =      -1.0987206750205103 [Eh]
	 Correlation Energy        =      -1.4389861400223269 [Eh]
	 Total Energy              =    -345.2648979716380495 [Eh]

	 ================> DF-SCS-MP2 Energies <==================
	-----------------------------------------------------------
	 SCS Same-Spin Scale       =       0.3333333333333333 [-]
	 SCS Opposite-Spin Scale   =       1.2000000000000000 [-]
	 SCS Same-Spin Energy      =      -0.1134218216672722 [Eh]
	 SCS Opposite-Spin Energy  =      -1.3184648100246124 [Eh]
	 SCS Correlation Energy    =      -1.4318866316918846 [Eh]
	 SCS Total Energy          =    -345.2577984633076085 [Eh]
	-----------------------------------------------------------

  Dipole Moment: [D]
     X:    -1.8010      Y:    -0.9235      Z:    -0.0033     Total:     2.0240

*** Psi4 exiting successfully. Buy a developer a beer!
