                               Psi4 1.3.2 release

  ==> Input File <==

--------------------------------------------------------------------------
#psi4
#
memory 32 gb

molecule  {
0 1
  O        2.1793270    -1.1884030     0.0070830
  O        2.0147220     1.0703310     0.0037530
  C       -2.3333640     0.6373300    -0.0064140
  C       -2.8929490    -0.7786760    -0.0059160
  C       -0.8407100     0.7390270    -0.0031060
  C        0.0222220    -0.2866530     0.0001530
  C        1.4732850    -0.0238670     0.0030520
  H       -2.7101490     1.1874440    -0.8789970
  H       -2.7141290     1.1896330     0.8630350
  H       -3.9853730    -0.7577330    -0.0084480
  H       -2.5694230    -1.3301270     0.8805270
  H       -2.5653610    -1.3323610    -0.8894680
  H       -0.4546884     1.6505470    -0.0033667
  H       -0.2913660    -1.3244520     0.0007550
  H        3.1211320    -0.9203150     0.0096400
units angstrom
no_reorient  #important for SAPT in psi4, default
symmetry c1  #important for SAPT in psi4, default
}

set PROPERTIES_ORIGIN ["COM"]
properties('MP2/aug-cc-pvtz', properties = ['dipole'])
--------------------------------------------------------------------------

    Molecular point group: c1
  Charge       = 0
  Multiplicity = 1
  Basis Set: AUG-CC-PVTZ
    Blend: AUG-CC-PVTZ
  Basis Set: (AUG-CC-PVTZ AUX)
    Blend: AUG-CC-PVTZ-JKFIT

    Orbital Energies [Eh]
    ---------------------

    Doubly Occupied:

       1A    -20.610476     2A    -20.540301     3A    -11.385646
       4A    -11.256788     5A    -11.246815     6A    -11.240196
       7A    -11.228230     8A     -1.453067     9A     -1.348187
      10A     -1.114660    11A     -1.024565    12A     -0.920595
      13A     -0.842941    14A     -0.753647    15A     -0.706387
      16A     -0.696769    17A     -0.631802    18A     -0.620676
      19A     -0.616753    20A     -0.604696    21A     -0.569870
      22A     -0.514805    23A     -0.512768    24A     -0.511568
      25A     -0.482701    26A     -0.450643    27A     -0.380530

  @DF-RHF Final Energy:  -343.85442909860802

   => Energetics <=

    Nuclear Repulsion Energy =            285.9267410986417417
    One-Electron Energy =               -1035.0301782883645956
    Two-Electron Energy =                 405.2490080911148311
    Total Energy =                       -343.8544290986080227
  Basis Set: (AUG-CC-PVTZ AUX)
    Blend: AUG-CC-PVTZ-RI
    Molecular point group: c1

    Geometry (in Angstrom), charge = 0, multiplicity = 1:

       Center              X                  Y                   Z               Mass
    ------------   -----------------  -----------------  -----------------  -----------------
         O            2.179719987444    -1.187475526419     0.007082797918    15.994914619570
         O            2.015114987444     1.071258473581     0.003752797918    15.994914619570
         C           -2.332971012556     0.638257473581    -0.006414202082    12.000000000000
         C           -2.892556012556    -0.777748526419    -0.005916202082    12.000000000000
         C           -0.840317012556     0.739954473581    -0.003106202082    12.000000000000
         C            0.022614987444    -0.285725526419     0.000152797918    12.000000000000
         C            1.473677987444    -0.022939526419     0.003051797918    12.000000000000
         H           -2.709756012556     1.188371473581    -0.878997202082     1.007825032230
         H           -2.713736012556     1.190560473581     0.863034797918     1.007825032230
         H           -3.984980012556    -0.756805526419    -0.008448202082     1.007825032230
         H           -2.569030012556    -1.329199526419     0.880526797918     1.007825032230
         H           -2.564968012556    -1.331433526419    -0.889468202082     1.007825032230
         H           -0.454295412556     1.651474473581    -0.003366902082     1.007825032230
         H           -0.290973012556    -1.323524526419     0.000754797918     1.007825032230
         H            3.121524987444    -0.919387526419     0.009639797918     1.007825032230

  Basis Set: AUG-CC-PVTZ
    Blend: AUG-CC-PVTZ
  Basis Set: (AUG-CC-PVTZ AUX)
    Blend: AUG-CC-PVTZ-JKFIT
	 Reference Energy          =    -343.8544290986080227 [Eh]
	 Singles Energy            =      -0.0000000000000000 [Eh]
	 Same-Spin Energy          =      -0.3403891677544547 [Eh]
	 Opposite-Spin Energy      =      -1.0988145684936796 [Eh]
	 Correlation Energy        =      -1.4392037362481342 [Eh]
	 Total Energy              =    -345.2936328348561688 [Eh]

	 ================> DF-SCS-MP2 Energies <==================
	-----------------------------------------------------------
	 SCS Same-Spin Scale       =       0.3333333333333333 [-]
	 SCS Opposite-Spin Scale   =       1.2000000000000000 [-]
	 SCS Same-Spin Energy      =      -0.1134630559181515 [Eh]
	 SCS Opposite-Spin Energy  =      -1.3185774821924154 [Eh]
	 SCS Correlation Energy    =      -1.4320405381105670 [Eh]
	 SCS Total Energy          =    -345.2864696367186070 [Eh]
	-----------------------------------------------------------

  Dipole Moment: [D]
     X:    -1.8109      Y:    -0.9174      Z:    -0.0033     Total:     2.0300

*** Psi4 exiting successfully. Buy a developer a beer!
