                               Psi4 1.3.2 release

  ==> Input File <==

--------------------------------------------------------------------------
#psi4
#
memory 32 gb

molecule  {
0 1
  O        2.1793270    -1.1884030     0.0070830
  O        2.0147220     1.0703310     0.0037530
  C       -2.3333640     0.6373300    -0.0064140
  C       -2.8929490    -0.7786760    -0.0059160
  C       -0.8584792     0.7238105    -0.0031271
  C        0.0222220    -0.2866530     0.0001530
  C        1.4732850    -0.0238670     0.0030520
  H       -2.7101490     1.1874440    -0.8789970
  H       -2.7141290     1.1896330     0.8630350
  H       -3.9853730    -0.7577330    -0.0084480
  H       -2.5694230    -1.3301270     0.8805270
  H       -2.5653610    -1.3323610    -0.8894680
  H       -0.4156920     1.7426300    -0.0033930
  H       -0.3094303    -1.3188211     0.0007068
  H        3.1211320    -0.9203150     0.0096400
units angstrom
no_reorient  #important for SAPT in psi4, default
symmetry c1  #important for SAPT in psi4, default
}

set PROPERTIES_ORIGIN ["COM"]
properties('MP2/aug-cc-pvtz', properties = ['dipole'])
--------------------------------------------------------------------------

    Molecular point group: c1
  Charge       = 0
  Multiplicity = 1
  Basis Set: AUG-CC-PVTZ
    Blend: AUG-CC-PVTZ
  Basis Set: (AUG-CC-PVTZ AUX)
    Blend: AUG-CC-PVTZ-JKFIT

    Orbital Energies [Eh]
    ---------------------

    Doubly Occupied:

       1A    -20.610662     2A    -20.540582     3A    -11.386545
       4A    -11.268171     5A    -11.246843     6A    -11.240030
       7A    -11.228628     8A     -1.453192     9A     -1.348300
      10A     -1.113718    11A     -1.024434    12A     -0.917145
      13A     -0.843758    14A     -0.735576    15A     -0.706875
      16A     -0.693566    17A     -0.633199    18A     -0.621060
      19A     -0.618432    20A     -0.598353    21A     -0.569934
      22A     -0.515955    23A     -0.515546    24A     -0.500214
      25A     -0.482718    26A     -0.451463    27A     -0.380059

  @DF-RHF Final Energy:  -343.85909960101685

   => Energetics <=

    Nuclear Repulsion Energy =            285.5648111525894137
    One-Electron Energy =               -1034.3579062207491006
    Two-Electron Energy =                 404.9339954671428359
    Total Energy =                       -343.8590996010168510
  Basis Set: (AUG-CC-PVTZ AUX)
    Blend: AUG-CC-PVTZ-RI
    Molecular point group: c1

    Geometry (in Angstrom), charge = 0, multiplicity = 1:

       Center              X                  Y                   Z               Mass
    ------------   -----------------  -----------------  -----------------  -----------------
         O            2.181640325677    -1.186634772367     0.007086079027    15.994914619570
         O            2.017035325677     1.072099227633     0.003756079027    15.994914619570
         C           -2.331050674323     0.639098227633    -0.006410920973    12.000000000000
         C           -2.890635674323    -0.776907772367    -0.005912920973    12.000000000000
         C           -0.856165874323     0.725578727633    -0.003124020973    12.000000000000
         C            0.024535325677    -0.284884772367     0.000156079027    12.000000000000
         C            1.475598325677    -0.022098772367     0.003055079027    12.000000000000
         H           -2.707835674323     1.189212227633    -0.878993920973     1.007825032230
         H           -2.711815674323     1.191401227633     0.863038079027     1.007825032230
         H           -3.983059674323    -0.755964772367    -0.008444920973     1.007825032230
         H           -2.567109674323    -1.328358772367     0.880530079027     1.007825032230
         H           -2.563047674323    -1.330592772367    -0.889464920973     1.007825032230
         H           -0.413378674323     1.744398227633    -0.003389920973     1.007825032230
         H           -0.307116974323    -1.317052872367     0.000709879027     1.007825032230
         H            3.123445325677    -0.918546772367     0.009643079027     1.007825032230

  Basis Set: AUG-CC-PVTZ
    Blend: AUG-CC-PVTZ
  Basis Set: (AUG-CC-PVTZ AUX)
    Blend: AUG-CC-PVTZ-JKFIT
	 Reference Energy          =    -343.8590996010168510 [Eh]
	 Singles Energy            =      -0.0000000000000000 [Eh]
	 Same-Spin Energy          =      -0.3409078972629907 [Eh]
	 Opposite-Spin Energy      =      -1.0997290342331050 [Eh]
	 Correlation Energy        =      -1.4406369314960956 [Eh]
	 Total Energy              =    -345.2997365325129522 [Eh]

	 ================> DF-SCS-MP2 Energies <==================
	-----------------------------------------------------------
	 SCS Same-Spin Scale       =       0.3333333333333333 [-]
	 SCS Opposite-Spin Scale   =       1.2000000000000000 [-]
	 SCS Same-Spin Energy      =      -0.1136359657543302 [Eh]
	 SCS Opposite-Spin Energy  =      -1.3196748410797259 [Eh]
	 SCS Correlation Energy    =      -1.4333108068340561 [Eh]
	 SCS Total Energy          =    -345.2924104078509231 [Eh]
	-----------------------------------------------------------

  Dipole Moment: [D]
     X:    -1.8439      Y:    -0.9192      Z:    -0.0034     Total:     2.0603

*** Psi4 exiting successfully. Buy a developer a beer!
