                               Psi4 1.3.2 release

  ==> Input File <==

--------------------------------------------------------------------------
#psi4
#
memory 32 gb

molecule  {
0 1
  O        2.1793270    -1.1884030     0.0070830
  O        2.0147220     1.0703310     0.0037530
  C       -2.3341946     0.6503596    -0.0064321
  C       -2.8929490    -0.7786760    -0.0059160
  C       -0.8407100     0.7390270    -0.0031060
  C        0.0311398    -0.2790835     0.0001641
  C        1.4732850    -0.0238670     0.0030520
  H       -2.7101490     1.1874440    -0.8789970
  H       -2.7141290     1.1896330     0.8630350
  H       -3.9853730    -0.7577330    -0.0084480
  H       -2.5694230    -1.3301270     0.8805270
  H       -2.5653610    -1.3323610    -0.8894680
  H       -0.4156920     1.7426300    -0.0033930
  H       -0.2913660    -1.3244520     0.0007550
  H        3.1211320    -0.9203150     0.0096400
units angstrom
no_reorient  #important for SAPT in psi4, default
symmetry c1  #important for SAPT in psi4, default
}

set PROPERTIES_ORIGIN ["COM"]
properties('MP2/aug-cc-pvtz', properties = ['dipole'])
--------------------------------------------------------------------------

    Molecular point group: c1
  Charge       = 0
  Multiplicity = 1
  Basis Set: AUG-CC-PVTZ
    Blend: AUG-CC-PVTZ
  Basis Set: (AUG-CC-PVTZ AUX)
    Blend: AUG-CC-PVTZ-JKFIT

    Orbital Energies [Eh]
    ---------------------

    Doubly Occupied:

       1A    -20.610403     2A    -20.539573     3A    -11.384960
       4A    -11.268141     5A    -11.247297     6A    -11.240567
       7A    -11.229041     8A     -1.453033     9A     -1.347904
      10A     -1.110926    11A     -1.024164    12A     -0.917025
      13A     -0.844114    14A     -0.737873    15A     -0.706429
      16A     -0.693899    17A     -0.632947    18A     -0.621100
      19A     -0.615835    20A     -0.599057    21A     -0.568373
      22A     -0.517259    23A     -0.514315    24A     -0.500743
      25A     -0.482715    26A     -0.450881    27A     -0.381077

  @DF-RHF Final Energy:  -343.85993350677336

   => Energetics <=

    Nuclear Repulsion Energy =            285.4377218299486572
    One-Electron Energy =               -1034.1160083164468233
    Two-Electron Energy =                 404.8183529797247502
    Total Energy =                       -343.8599335067733591
  Basis Set: (AUG-CC-PVTZ AUX)
    Blend: AUG-CC-PVTZ-RI
    Molecular point group: c1

    Geometry (in Angstrom), charge = 0, multiplicity = 1:

       Center              X                  Y                   Z               Mass
    ------------   -----------------  -----------------  -----------------  -----------------
         O            2.178357222454    -1.190873672313     0.007083902396    15.994914619570
         O            2.013752222454     1.067860327687     0.003753902396    15.994914619570
         C           -2.335164377546     0.647888927687    -0.006431197604    12.000000000000
         C           -2.893918777546    -0.781146672313    -0.005915097604    12.000000000000
         C           -0.841679777546     0.736556327687    -0.003105097604    12.000000000000
         C            0.030170022454    -0.281554172313     0.000165002396    12.000000000000
         C            1.472315222454    -0.026337672313     0.003052902396    12.000000000000
         H           -2.711118777546     1.184973327687    -0.878996097604     1.007825032230
         H           -2.715098777546     1.187162327687     0.863035902396     1.007825032230
         H           -3.986342777546    -0.760203672313    -0.008447097604     1.007825032230
         H           -2.570392777546    -1.332597672313     0.880527902396     1.007825032230
         H           -2.566330777546    -1.334831672313    -0.889467097604     1.007825032230
         H           -0.416661777546     1.740159327687    -0.003392097604     1.007825032230
         H           -0.292335777546    -1.326922672313     0.000755902396     1.007825032230
         H            3.120162222454    -0.922785672313     0.009640902396     1.007825032230

  Basis Set: AUG-CC-PVTZ
    Blend: AUG-CC-PVTZ
  Basis Set: (AUG-CC-PVTZ AUX)
    Blend: AUG-CC-PVTZ-JKFIT
	 Reference Energy          =    -343.8599335067733591 [Eh]
	 Singles Energy            =      -0.0000000000000000 [Eh]
	 Same-Spin Energy          =      -0.3406109351948449 [Eh]
	 Opposite-Spin Energy      =      -1.0994171995222923 [Eh]
	 Correlation Energy        =      -1.4400281347171373 [Eh]
	 Total Energy              =    -345.2999616414904835 [Eh]

	 ================> DF-SCS-MP2 Energies <==================
	-----------------------------------------------------------
	 SCS Same-Spin Scale       =       0.3333333333333333 [-]
	 SCS Opposite-Spin Scale   =       1.2000000000000000 [-]
	 SCS Same-Spin Energy      =      -0.1135369783982816 [Eh]
	 SCS Opposite-Spin Energy  =      -1.3193006394267508 [Eh]
	 SCS Correlation Energy    =      -1.4328376178250324 [Eh]
	 SCS Total Energy          =    -345.2927711245984028 [Eh]
	-----------------------------------------------------------

  Dipole Moment: [D]
     X:    -1.8314      Y:    -0.9154      Z:    -0.0034     Total:     2.0475

*** Psi4 exiting successfully. Buy a developer a beer!
