                               Psi4 1.3.2 release

  ==> Input File <==

--------------------------------------------------------------------------
#psi4
#
memory 32 gb

molecule  {
0 1
  O        2.1793270    -1.1884030     0.0070830
  O        2.0147220     1.0703310     0.0037530
  C       -2.3333640     0.6373300    -0.0064140
  C       -2.8929490    -0.7786760    -0.0059160
  C       -0.8407100     0.7390270    -0.0031060
  C        0.0222220    -0.2866530     0.0001530
  C        1.5176349     0.0657604     0.0031094
  H       -2.7101490     1.1874440    -0.8789970
  H       -2.7141290     1.1896330     0.8630350
  H       -3.9853730    -0.7577330    -0.0084480
  H       -2.5694230    -1.3301270     0.8805270
  H       -2.5653610    -1.3323610    -0.8894680
  H       -0.4156920     1.7426300    -0.0033930
  H       -0.2913660    -1.3244520     0.0007550
  H        3.1211320    -0.9203150     0.0096400
units angstrom
no_reorient  #important for SAPT in psi4, default
symmetry c1  #important for SAPT in psi4, default
}

set PROPERTIES_ORIGIN ["COM"]
properties('MP2/aug-cc-pvtz', properties = ['dipole'])
--------------------------------------------------------------------------

    Molecular point group: c1
  Charge       = 0
  Multiplicity = 1
  Basis Set: AUG-CC-PVTZ
    Blend: AUG-CC-PVTZ
  Basis Set: (AUG-CC-PVTZ AUX)
    Blend: AUG-CC-PVTZ-JKFIT

    Orbital Energies [Eh]
    ---------------------

    Doubly Occupied:

       1A    -20.594700     2A    -20.561676     3A    -11.379994
       4A    -11.258670     5A    -11.242858     6A    -11.239966
       7A    -11.225529     8A     -1.487625     9A     -1.370093
      10A     -1.104613    11A     -1.014288    12A     -0.903584
      13A     -0.825340    14A     -0.736071    15A     -0.707033
      16A     -0.702564    17A     -0.637620    18A     -0.627686
      19A     -0.623845    20A     -0.591487    21A     -0.579435
      22A     -0.511417    23A     -0.510091    24A     -0.503209
      25A     -0.502798    26A     -0.450772    27A     -0.378190

  @DF-RHF Final Energy:  -343.84736642230575

   => Energetics <=

    Nuclear Repulsion Energy =            285.8198143345683775
    One-Electron Energy =               -1034.7920603176639816
    Two-Electron Energy =                 405.1248795607898501
    Total Energy =                       -343.8473664223057540
  Basis Set: (AUG-CC-PVTZ AUX)
    Blend: AUG-CC-PVTZ-RI
    Molecular point group: c1

    Geometry (in Angstrom), charge = 0, multiplicity = 1:

       Center              X                  Y                   Z               Mass
    ------------   -----------------  -----------------  -----------------  -----------------
         O            2.174007978741    -1.199152727646     0.007076178446    15.994914619570
         O            2.009402978741     1.059581272354     0.003746178446    15.994914619570
         C           -2.338683021259     0.626580272354    -0.006420821554    12.000000000000
         C           -2.898268021259    -0.789425727646    -0.005922821554    12.000000000000
         C           -0.846029021259     0.728277272354    -0.003112821554    12.000000000000
         C            0.016902978741    -0.297402727646     0.000146178446    12.000000000000
         C            1.512315878741     0.055010672354     0.003102578446    12.000000000000
         H           -2.715468021259     1.176694272354    -0.879003821554     1.007825032230
         H           -2.719448021259     1.178883272354     0.863028178446     1.007825032230
         H           -3.990692021259    -0.768482727646    -0.008454821554     1.007825032230
         H           -2.574742021259    -1.340876727646     0.880520178446     1.007825032230
         H           -2.570680021259    -1.343110727646    -0.889474821554     1.007825032230
         H           -0.421011021259     1.731880272354    -0.003399821554     1.007825032230
         H           -0.296685021259    -1.335201727646     0.000748178446     1.007825032230
         H            3.115812978741    -0.931064727646     0.009633178446     1.007825032230

  Basis Set: AUG-CC-PVTZ
    Blend: AUG-CC-PVTZ
  Basis Set: (AUG-CC-PVTZ AUX)
    Blend: AUG-CC-PVTZ-JKFIT
	 Reference Energy          =    -343.8473664223057540 [Eh]
	 Singles Energy            =      -0.0000000000000000 [Eh]
	 Same-Spin Energy          =      -0.3390635896783004 [Eh]
	 Opposite-Spin Energy      =      -1.0968692444952299 [Eh]
	 Correlation Energy        =      -1.4359328341735305 [Eh]
	 Total Energy              =    -345.2832992564792676 [Eh]

	 ================> DF-SCS-MP2 Energies <==================
	-----------------------------------------------------------
	 SCS Same-Spin Scale       =       0.3333333333333333 [-]
	 SCS Opposite-Spin Scale   =       1.2000000000000000 [-]
	 SCS Same-Spin Energy      =      -0.1130211965594335 [Eh]
	 SCS Opposite-Spin Energy  =      -1.3162430933942759 [Eh]
	 SCS Correlation Energy    =      -1.4292642899537094 [Eh]
	 SCS Total Energy          =    -345.2766307122594753 [Eh]
	-----------------------------------------------------------

  Dipole Moment: [D]
     X:    -1.4892      Y:    -0.2622      Z:    -0.0034     Total:     1.5121

*** Psi4 exiting successfully. Buy a developer a beer!
