                               Psi4 1.4a3.dev225

  ==> Input File <==

--------------------------------------------------------------------------
#psi4
#
memory 32 gb

molecule  {
0 1
  O       -2.3109350    -1.1403470    -0.0000450
  O       -2.1116090     1.1175510    -0.0000760
  C        2.2339710     0.6185460     0.0000510
  C        2.7736950    -0.8069580     0.0000920
  C        0.7414440     0.7423990     0.0000070
  C       -0.1379540    -0.2713190     0.0000010
  C       -1.5969631    -0.0023487    -0.0000450
  H        2.6208160     1.1641270     0.8715420
  H        2.6208650     1.1640950    -0.8714390
  H        3.8667590    -0.8011940     0.0001220
  H        2.4401730    -1.3549900    -0.8853120
  H        2.4401230    -1.3549580     0.8854960
  H        0.3318170     1.7528370    -0.0000240
  H        0.1592700    -1.3142900     0.0000290
  H       -3.2484020    -0.8568190    -0.0000760
units angstrom
no_reorient  #important for SAPT in psi4, default
symmetry c1  #important for SAPT in psi4, default
}

set PROPERTIES_ORIGIN ["COM"]
properties('MP2/aug-cc-pvtz', properties = ['dipole'])
--------------------------------------------------------------------------

    Molecular point group: c1
  Charge       = 0
  Multiplicity = 1
  Basis Set: AUG-CC-PVTZ
    Blend: AUG-CC-PVTZ
  Basis Set: (AUG-CC-PVTZ AUX)
    Blend: AUG-CC-PVTZ-JKFIT

    Orbital Energies [Eh]
    ---------------------

    Doubly Occupied:

       1A    -20.616397     2A    -20.537612     3A    -11.386819
       4A    -11.267213     5A    -11.247188     6A    -11.240738
       7A    -11.228388     8A     -1.459547     9A     -1.344218
      10A     -1.109149    11A     -1.022066    12A     -0.916267
      13A     -0.845197    14A     -0.740818    15A     -0.704755
      16A     -0.696844    17A     -0.632491    18A     -0.623441
      19A     -0.615116    20A     -0.600699    21A     -0.566237
      22A     -0.514461    23A     -0.511712    24A     -0.503495
      25A     -0.480129    26A     -0.449032    27A     -0.378994

  @DF-RHF Final Energy:  -343.85920626054747

   => Energetics <=

    Nuclear Repulsion Energy =            285.1346257624266514
    One-Electron Energy =               -1033.5096156107667866
    Two-Electron Energy =                 404.5157835877927255
    Total Energy =                       -343.8592062605474666
  Basis Set: (AUG-CC-PVTZ AUX)
    Blend: AUG-CC-PVTZ-RI
    Molecular point group: c1

    Geometry (in Angstrom), charge = 0, multiplicity = 1:

       Center              X                  Y                   Z               Mass
    ------------   -----------------  -----------------  -----------------  -----------------
         O           -2.198508028396    -1.154194641225    -0.000041774293    15.994914619570
         O           -1.999182028396     1.103703358775    -0.000072774293    15.994914619570
         C            2.346397971604     0.604698358775     0.000054225707    12.000000000000
         C            2.886121971604    -0.820805641225     0.000095225707    12.000000000000
         C            0.853870971604     0.728551358775     0.000010225707    12.000000000000
         C           -0.025527028396    -0.285166641225     0.000004225707    12.000000000000
         C           -1.484536128396    -0.016196341225    -0.000041774293    12.000000000000
         H            2.733242971604     1.150279358775     0.871545225707     1.007825032230
         H            2.733291971604     1.150247358775    -0.871435774293     1.007825032230
         H            3.979185971604    -0.815041641225     0.000125225707     1.007825032230
         H            2.552599971604    -1.368837641225    -0.885308774293     1.007825032230
         H            2.552549971604    -1.368805641225     0.885499225707     1.007825032230
         H            0.444243971604     1.738989358775    -0.000020774293     1.007825032230
         H            0.271696971604    -1.328137641225     0.000032225707     1.007825032230
         H           -3.135975028396    -0.870666641225    -0.000072774293     1.007825032230

  Basis Set: AUG-CC-PVTZ
    Blend: AUG-CC-PVTZ
  Basis Set: (AUG-CC-PVTZ AUX)
    Blend: AUG-CC-PVTZ-JKFIT
	 Reference Energy          =    -343.8592062605474666 [Eh]
	 Singles Energy            =      -0.0000000000000000 [Eh]
	 Same-Spin Energy          =      -0.3406719195274263 [Eh]
	 Opposite-Spin Energy      =      -1.0995625572960557 [Eh]
	 Correlation Energy        =      -1.4402344768234818 [Eh]
	 Total Energy              =    -345.2994407373709578 [Eh]

	 ================> DF-SCS-MP2 Energies <==================
	-----------------------------------------------------------
	 SCS Same-Spin Scale       =       0.3333333333333333 [-]
	 SCS Opposite-Spin Scale   =       1.2000000000000000 [-]
	 SCS Same-Spin Energy      =      -0.1135573065091421 [Eh]
	 SCS Opposite-Spin Energy  =      -1.3194750687552668 [Eh]
	 SCS Correlation Energy    =      -1.4330323752644087 [Eh]
	 SCS Total Energy          =    -345.2922386358118843 [Eh]
	-----------------------------------------------------------

  Dipole Moment: [D]
     X:     1.7004      Y:    -1.0933      Z:     0.0001     Total:     2.0216

*** Psi4 exiting successfully. Buy a developer a beer!
