                               Psi4 1.3.2 release

  ==> Input File <==

--------------------------------------------------------------------------
#psi4
#
memory 32 gb

molecule  {
0 1
  O        2.1793270    -1.1884030     0.0070830
  O        2.0147220     1.0703310     0.0037530
  C       -2.3360037     0.6894849    -0.0064848
  C       -2.8929490    -0.7786760    -0.0059160
  C       -0.8407100     0.7390270    -0.0031060
  C        0.0574921    -0.2559121     0.0001960
  C        1.4732850    -0.0238670     0.0030520
  H       -2.7101490     1.1874440    -0.8789970
  H       -2.7141290     1.1896330     0.8630350
  H       -3.9853730    -0.7577330    -0.0084480
  H       -2.5694230    -1.3301270     0.8805270
  H       -2.5653610    -1.3323610    -0.8894680
  H       -0.4156920     1.7426300    -0.0033930
  H       -0.2913660    -1.3244520     0.0007550
  H        3.1211320    -0.9203150     0.0096400
units angstrom
no_reorient  #important for SAPT in psi4, default
symmetry c1  #important for SAPT in psi4, default
}

set PROPERTIES_ORIGIN ["COM"]
properties('MP2/aug-cc-pvtz', properties = ['dipole'])
--------------------------------------------------------------------------

    Molecular point group: c1
  Charge       = 0
  Multiplicity = 1
  Basis Set: AUG-CC-PVTZ
    Blend: AUG-CC-PVTZ
  Basis Set: (AUG-CC-PVTZ AUX)
    Blend: AUG-CC-PVTZ-JKFIT

    Orbital Energies [Eh]
    ---------------------

    Doubly Occupied:

       1A    -20.610272     2A    -20.538098     3A    -11.383022
       4A    -11.269689     5A    -11.247545     6A    -11.241239
       7A    -11.230511     8A     -1.453235     9A     -1.347585
      10A     -1.110092    11A     -1.024692    12A     -0.919012
      13A     -0.849099    14A     -0.735727    15A     -0.708243
      16A     -0.692806    17A     -0.636786    18A     -0.622512
      19A     -0.615888    20A     -0.596119    21A     -0.562935
      22A     -0.523689    23A     -0.519797    24A     -0.487982
      25A     -0.483131    26A     -0.451038    27A     -0.382423

  @DF-RHF Final Energy:  -343.85486436309861

   => Energetics <=

    Nuclear Repulsion Energy =            285.4150280643413566
    One-Electron Energy =               -1034.0534521156514529
    Two-Electron Energy =                 404.7835596882114260
    Total Energy =                       -343.8548643630986135
  Basis Set: (AUG-CC-PVTZ AUX)
    Blend: AUG-CC-PVTZ-RI
    Molecular point group: c1

    Geometry (in Angstrom), charge = 0, multiplicity = 1:

       Center              X                  Y                   Z               Mass
    ------------   -----------------  -----------------  -----------------  -----------------
         O            2.175413581790    -1.198345358945     0.007086397088    15.994914619570
         O            2.010808581790     1.060388641055     0.003756397088    15.994914619570
         C           -2.339917118210     0.679542541055    -0.006481402912    12.000000000000
         C           -2.896862418210    -0.788618358945    -0.005912602912    12.000000000000
         C           -0.844623418210     0.729084641055    -0.003102602912    12.000000000000
         C            0.053578681790    -0.265854458945     0.000199397088    12.000000000000
         C            1.469371581790    -0.033809358945     0.003055397088    12.000000000000
         H           -2.714062418210     1.177501641055    -0.878993602912     1.007825032230
         H           -2.718042418210     1.179690641055     0.863038397088     1.007825032230
         H           -3.989286418210    -0.767675358945    -0.008444602912     1.007825032230
         H           -2.573336418210    -1.340069358945     0.880530397088     1.007825032230
         H           -2.569274418210    -1.342303358945    -0.889464602912     1.007825032230
         H           -0.419605418210     1.732687641055    -0.003389602912     1.007825032230
         H           -0.295279418210    -1.334394358945     0.000758397088     1.007825032230
         H            3.117218581790    -0.930257358945     0.009643397088     1.007825032230

  Basis Set: AUG-CC-PVTZ
    Blend: AUG-CC-PVTZ
  Basis Set: (AUG-CC-PVTZ AUX)
    Blend: AUG-CC-PVTZ-JKFIT
	 Reference Energy          =    -343.8548643630986135 [Eh]
	 Singles Energy            =      -0.0000000000000000 [Eh]
	 Same-Spin Energy          =      -0.3406626131027802 [Eh]
	 Opposite-Spin Energy      =      -1.0997475700490438 [Eh]
	 Correlation Energy        =      -1.4404101831518239 [Eh]
	 Total Energy              =    -345.2952745462504254 [Eh]

	 ================> DF-SCS-MP2 Energies <==================
	-----------------------------------------------------------
	 SCS Same-Spin Scale       =       0.3333333333333333 [-]
	 SCS Opposite-Spin Scale   =       1.2000000000000000 [-]
	 SCS Same-Spin Energy      =      -0.1135542043675934 [Eh]
	 SCS Opposite-Spin Energy  =      -1.3196970840588524 [Eh]
	 SCS Correlation Energy    =      -1.4332512884264459 [Eh]
	 SCS Total Energy          =    -345.2881156515250609 [Eh]
	-----------------------------------------------------------

  Dipole Moment: [D]
     X:    -1.8683      Y:    -0.8908      Z:    -0.0035     Total:     2.0698

*** Psi4 exiting successfully. Buy a developer a beer!
