                               Psi4 1.3.2 release

  ==> Input File <==

--------------------------------------------------------------------------
#psi4
#
memory 32 gb

molecule  {
0 1
  O        2.1793270    -1.1884030     0.0070830
  O        2.0147220     1.0703310     0.0037530
  C       -2.3333640     0.6373300    -0.0064140
  C       -2.8929490    -0.7786760    -0.0059160
  C       -0.8407100     0.7390270    -0.0031060
  C        0.0222220    -0.2866530     0.0001530
  C        1.4834742    -0.0177500     0.0030747
  H       -2.7101490     1.1874440    -0.8789970
  H       -2.7141290     1.1896330     0.8630350
  H       -3.9853730    -0.7577330    -0.0084480
  H       -2.5694230    -1.3301270     0.8805270
  H       -2.5653610    -1.3323610    -0.8894680
  H       -0.4156920     1.7426300    -0.0033930
  H       -0.2913660    -1.3244520     0.0007550
  H        3.1187567    -0.9121065     0.0096198
units angstrom
no_reorient  #important for SAPT in psi4, default
symmetry c1  #important for SAPT in psi4, default
}

set PROPERTIES_ORIGIN ["COM"]
properties('MP2/aug-cc-pvtz', properties = ['dipole'])
--------------------------------------------------------------------------

    Molecular point group: c1
  Charge       = 0
  Multiplicity = 1
  Basis Set: AUG-CC-PVTZ
    Blend: AUG-CC-PVTZ
  Basis Set: (AUG-CC-PVTZ AUX)
    Blend: AUG-CC-PVTZ-JKFIT

    Orbital Energies [Eh]
    ---------------------

    Doubly Occupied:

       1A    -20.610872     2A    -20.542265     3A    -11.385252
       4A    -11.265985     5A    -11.246468     6A    -11.240219
       7A    -11.227930     8A     -1.455995     9A     -1.354232
      10A     -1.109843    11A     -1.022116    12A     -0.914461
      13A     -0.841073    14A     -0.738224    15A     -0.704492
      16A     -0.696641    17A     -0.631840    18A     -0.621937
      19A     -0.617925    20A     -0.599619    21A     -0.570484
      22A     -0.514260    23A     -0.511588    24A     -0.504197
      25A     -0.485627    26A     -0.451549    27A     -0.379945

  @DF-RHF Final Energy:  -343.86078338908112

   => Energetics <=

    Nuclear Repulsion Energy =            285.4831295439747123
    One-Electron Energy =               -1034.1977483606242458
    Two-Electron Energy =                 404.8538354275684696
    Total Energy =                       -343.8607833890811207
  Basis Set: (AUG-CC-PVTZ AUX)
    Blend: AUG-CC-PVTZ-RI
    Molecular point group: c1

    Geometry (in Angstrom), charge = 0, multiplicity = 1:

       Center              X                  Y                   Z               Mass
    ------------   -----------------  -----------------  -----------------  -----------------
         O            2.178129040957    -1.189219414950     0.007080543738    15.994914619570
         O            2.013524040957     1.069514585050     0.003750543738    15.994914619570
         C           -2.334561959043     0.636513585050    -0.006416456262    12.000000000000
         C           -2.894146959043    -0.779492414950    -0.005918456262    12.000000000000
         C           -0.841907959043     0.738210585050    -0.003108456262    12.000000000000
         C            0.021024040957    -0.287469414950     0.000150543738    12.000000000000
         C            1.482276240957    -0.018566414950     0.003072243738    12.000000000000
         H           -2.711346959043     1.186627585050    -0.878999456262     1.007825032230
         H           -2.715326959043     1.188816585050     0.863032543738     1.007825032230
         H           -3.986570959043    -0.758549414950    -0.008450456262     1.007825032230
         H           -2.570620959043    -1.330943414950     0.880524543738     1.007825032230
         H           -2.566558959043    -1.333177414950    -0.889470456262     1.007825032230
         H           -0.416889959043     1.741813585050    -0.003395456262     1.007825032230
         H           -0.292563959043    -1.325268414950     0.000752543738     1.007825032230
         H            3.117558740957    -0.912922914950     0.009617343738     1.007825032230

  Basis Set: AUG-CC-PVTZ
    Blend: AUG-CC-PVTZ
  Basis Set: (AUG-CC-PVTZ AUX)
    Blend: AUG-CC-PVTZ-JKFIT
	 Reference Energy          =    -343.8607833890811207 [Eh]
	 Singles Energy            =      -0.0000000000000000 [Eh]
	 Same-Spin Energy          =      -0.3404298994302862 [Eh]
	 Opposite-Spin Energy      =      -1.0990432876963794 [Eh]
	 Correlation Energy        =      -1.4394731871266657 [Eh]
	 Total Energy              =    -345.3002565762078007 [Eh]

	 ================> DF-SCS-MP2 Energies <==================
	-----------------------------------------------------------
	 SCS Same-Spin Scale       =       0.3333333333333333 [-]
	 SCS Opposite-Spin Scale   =       1.2000000000000000 [-]
	 SCS Same-Spin Energy      =      -0.1134766331434287 [Eh]
	 SCS Opposite-Spin Energy  =      -1.3188519452356553 [Eh]
	 SCS Correlation Energy    =      -1.4323285783790840 [Eh]
	 SCS Total Energy          =    -345.2931119674602201 [Eh]
	-----------------------------------------------------------

  Dipole Moment: [D]
     X:    -1.7405      Y:    -0.8822      Z:    -0.0032     Total:     1.9513

*** Psi4 exiting successfully. Buy a developer a beer!
