                               Psi4 1.3.2 release

  ==> Input File <==

--------------------------------------------------------------------------
#psi4
#
memory 32 gb

molecule  {
0 1
  O        2.1793270    -1.1884030     0.0070830
  O        2.0147220     1.0703310     0.0037530
  C       -2.3333640     0.6373300    -0.0064140
  C       -2.8929490    -0.7786760    -0.0059160
  C       -0.8407100     0.7390270    -0.0031060
  C        0.0222220    -0.2866530     0.0001530
  C        1.4530686    -0.0363666     0.0030076
  H       -2.7101490     1.1874440    -0.8789970
  H       -2.7141290     1.1896330     0.8630350
  H       -3.9853730    -0.7577330    -0.0084480
  H       -2.5694230    -1.3301270     0.8805270
  H       -2.5653610    -1.3323610    -0.8894680
  H       -0.4156920     1.7426300    -0.0033930
  H       -0.2913660    -1.3244520     0.0007550
  H        3.1256672    -0.9367926     0.0096798
units angstrom
no_reorient  #important for SAPT in psi4, default
symmetry c1  #important for SAPT in psi4, default
}

set PROPERTIES_ORIGIN ["COM"]
properties('MP2/aug-cc-pvtz', properties = ['dipole'])
--------------------------------------------------------------------------

    Molecular point group: c1
  Charge       = 0
  Multiplicity = 1
  Basis Set: AUG-CC-PVTZ
    Blend: AUG-CC-PVTZ
  Basis Set: (AUG-CC-PVTZ AUX)
    Blend: AUG-CC-PVTZ-JKFIT

    Orbital Energies [Eh]
    ---------------------

    Doubly Occupied:

       1A    -20.609562     2A    -20.535583     3A    -11.386127
       4A    -11.271337     5A    -11.249136     6A    -11.240608
       7A    -11.229819     8A     -1.447511     9A     -1.335177
      10A     -1.114523    11A     -1.028343    12A     -0.920117
      13A     -0.845246    14A     -0.740843    15A     -0.708060
      16A     -0.689384    17A     -0.632762    18A     -0.617804
      19A     -0.612505    20A     -0.602960    21A     -0.566554
      22A     -0.516371    23A     -0.514076    24A     -0.506392
      25A     -0.476629    26A     -0.448096    27A     -0.381671

  @DF-RHF Final Energy:  -343.85752942864070

   => Energetics <=

    Nuclear Repulsion Energy =            285.3944744453116868
    One-Electron Energy =               -1034.0496164510316248
    Two-Electron Energy =                 404.7976125770791782
    Total Energy =                       -343.8575294286407029
  Basis Set: (AUG-CC-PVTZ AUX)
    Blend: AUG-CC-PVTZ-RI
    Molecular point group: c1

    Geometry (in Angstrom), charge = 0, multiplicity = 1:

       Center              X                  Y                   Z               Mass
    ------------   -----------------  -----------------  -----------------  -----------------
         O            2.181706191726    -1.186737931284     0.007087987140    15.994914619570
         O            2.017101191726     1.071996068716     0.003757987140    15.994914619570
         C           -2.330984808274     0.638995068716    -0.006409012860    12.000000000000
         C           -2.890569808274    -0.777010931284    -0.005911012860    12.000000000000
         C           -0.838330808274     0.740692068716    -0.003101012860    12.000000000000
         C            0.024601191726    -0.284987931284     0.000157987140    12.000000000000
         C            1.455447791726    -0.034701531284     0.003012587140    12.000000000000
         H           -2.707769808274     1.189109068716    -0.878992012860     1.007825032230
         H           -2.711749808274     1.191298068716     0.863039987140     1.007825032230
         H           -3.982993808274    -0.756067931284    -0.008443012860     1.007825032230
         H           -2.567043808274    -1.328461931284     0.880531987140     1.007825032230
         H           -2.562981808274    -1.330695931284    -0.889463012860     1.007825032230
         H           -0.413312808274     1.744295068716    -0.003388012860     1.007825032230
         H           -0.288986808274    -1.322786931284     0.000759987140     1.007825032230
         H            3.128046391726    -0.935127531284     0.009684787140     1.007825032230

  Basis Set: AUG-CC-PVTZ
    Blend: AUG-CC-PVTZ
  Basis Set: (AUG-CC-PVTZ AUX)
    Blend: AUG-CC-PVTZ-JKFIT
	 Reference Energy          =    -343.8575294286407029 [Eh]
	 Singles Energy            =      -0.0000000000000000 [Eh]
	 Same-Spin Energy          =      -0.3410985221640219 [Eh]
	 Opposite-Spin Energy      =      -1.1001941400761424 [Eh]
	 Correlation Energy        =      -1.4412926622401643 [Eh]
	 Total Energy              =    -345.2988220908808898 [Eh]

	 ================> DF-SCS-MP2 Energies <==================
	-----------------------------------------------------------
	 SCS Same-Spin Scale       =       0.3333333333333333 [-]
	 SCS Opposite-Spin Scale   =       1.2000000000000000 [-]
	 SCS Same-Spin Energy      =      -0.1136995073880073 [Eh]
	 SCS Opposite-Spin Energy  =      -1.3202329680913707 [Eh]
	 SCS Correlation Energy    =      -1.4339324754793781 [Eh]
	 SCS Total Energy          =    -345.2914619041200694 [Eh]
	-----------------------------------------------------------

  Dipole Moment: [D]
     X:    -1.9737      Y:    -1.0042      Z:    -0.0036     Total:     2.2145

*** Psi4 exiting successfully. Buy a developer a beer!
