                               Psi4 1.3.2 release

  ==> Input File <==

--------------------------------------------------------------------------
#psi4
#
memory 32 gb

molecule  {
0 1
  O        2.1793270    -1.1884030     0.0070830
  O        2.0147220     1.0703310     0.0037530
  C       -2.3333640     0.6373300    -0.0064140
  C       -2.8929490    -0.7786760    -0.0059160
  C       -0.8407100     0.7390270    -0.0031060
  C        0.0222220    -0.2866530     0.0001530
  C        1.4632301     0.0266143     0.0029664
  H       -2.7101490     1.1874440    -0.8789970
  H       -2.7141290     1.1896330     0.8630350
  H       -3.9853730    -0.7577330    -0.0084480
  H       -2.5694230    -1.3301270     0.8805270
  H       -2.5653610    -1.3323610    -0.8894680
  H       -0.4156920     1.7426300    -0.0033930
  H       -0.3273935    -1.3128758     0.0006604
  H        3.1211320    -0.9203150     0.0096400
units angstrom
no_reorient  #important for SAPT in psi4, default
symmetry c1  #important for SAPT in psi4, default
}

set PROPERTIES_ORIGIN ["COM"]
properties('MP2/aug-cc-pvtz', properties = ['dipole'])
--------------------------------------------------------------------------

    Molecular point group: c1
  Charge       = 0
  Multiplicity = 1
  Basis Set: AUG-CC-PVTZ
    Blend: AUG-CC-PVTZ
  Basis Set: (AUG-CC-PVTZ AUX)
    Blend: AUG-CC-PVTZ-JKFIT

    Orbital Energies [Eh]
    ---------------------

    Doubly Occupied:

       1A    -20.595982     2A    -20.550195     3A    -11.384263
       4A    -11.267386     5A    -11.247673     6A    -11.241159
       7A    -11.229198     8A     -1.451739     9A     -1.355177
      10A     -1.113116    11A     -1.025073    12A     -0.913497
      13A     -0.834299    14A     -0.736798    15A     -0.703901
      16A     -0.693331    17A     -0.631898    18A     -0.619362
      19A     -0.616874    20A     -0.596470    21A     -0.576994
      22A     -0.515431    23A     -0.512902    24A     -0.506306
      25A     -0.489921    26A     -0.454474    27A     -0.383004

  @DF-RHF Final Energy:  -343.85792756598460

   => Energetics <=

    Nuclear Repulsion Energy =            285.6180072095330615
    One-Electron Energy =               -1034.4590267347921326
    Two-Electron Energy =                 404.9830919592744749
    Total Energy =                       -343.8579275659845962
  Basis Set: (AUG-CC-PVTZ AUX)
    Blend: AUG-CC-PVTZ-RI
    Molecular point group: c1

    Geometry (in Angstrom), charge = 0, multiplicity = 1:

       Center              X                  Y                   Z               Mass
    ------------   -----------------  -----------------  -----------------  -----------------
         O            2.180896037530    -1.194574263953     0.007094282357    15.994914619570
         O            2.016291037530     1.064159736047     0.003764282357    15.994914619570
         C           -2.331794962470     0.631158736047    -0.006402717643    12.000000000000
         C           -2.891379962470    -0.784847263953    -0.005904717643    12.000000000000
         C           -0.839140962470     0.732855736047    -0.003094717643    12.000000000000
         C            0.023791037530    -0.292824263953     0.000164282357    12.000000000000
         C            1.464799137530     0.020443036047     0.002977682357    12.000000000000
         H           -2.708579962470     1.181272736047    -0.878985717643     1.007825032230
         H           -2.712559962470     1.183461736047     0.863046282357     1.007825032230
         H           -3.983803962470    -0.763904263953    -0.008436717643     1.007825032230
         H           -2.567853962470    -1.336298263953     0.880538282357     1.007825032230
         H           -2.563791962470    -1.338532263953    -0.889456717643     1.007825032230
         H           -0.414122962470     1.736458736047    -0.003381717643     1.007825032230
         H           -0.325824462470    -1.319047063953     0.000671682357     1.007825032230
         H            3.122701037530    -0.926486263953     0.009651282357     1.007825032230

  Basis Set: AUG-CC-PVTZ
    Blend: AUG-CC-PVTZ
  Basis Set: (AUG-CC-PVTZ AUX)
    Blend: AUG-CC-PVTZ-JKFIT
	 Reference Energy          =    -343.8579275659845962 [Eh]
	 Singles Energy            =      -0.0000000000000000 [Eh]
	 Same-Spin Energy          =      -0.3403401487739415 [Eh]
	 Opposite-Spin Energy      =      -1.0990097466025524 [Eh]
	 Correlation Energy        =      -1.4393498953764938 [Eh]
	 Total Energy              =    -345.2972774613610909 [Eh]

	 ================> DF-SCS-MP2 Energies <==================
	-----------------------------------------------------------
	 SCS Same-Spin Scale       =       0.3333333333333333 [-]
	 SCS Opposite-Spin Scale   =       1.2000000000000000 [-]
	 SCS Same-Spin Energy      =      -0.1134467162579805 [Eh]
	 SCS Opposite-Spin Energy  =      -1.3188116959230627 [Eh]
	 SCS Correlation Energy    =      -1.4322584121810431 [Eh]
	 SCS Total Energy          =    -345.2901859781656526 [Eh]
	-----------------------------------------------------------

  Dipole Moment: [D]
     X:    -1.9688      Y:    -0.5033      Z:    -0.0043     Total:     2.0321

*** Psi4 exiting successfully. Buy a developer a beer!
