                               Psi4 1.3.2 release

  ==> Input File <==

--------------------------------------------------------------------------
#psi4
#
memory 32 gb

molecule  {
0 1
  O        2.1793270    -1.1884030     0.0070830
  O        2.0147220     1.0703310     0.0037530
  C       -2.3360037     0.6894849    -0.0064858
  C       -2.8929490    -0.7786760    -0.0059160
  C       -0.8407100     0.7390270    -0.0031060
  C        0.0222220    -0.2866530     0.0001530
  C        1.4732850    -0.0238670     0.0030520
  H       -2.7101490     1.1874440    -0.8789970
  H       -2.7141290     1.1896330     0.8630350
  H       -3.9853730    -0.7577330    -0.0084480
  H       -2.5694230    -1.3301270     0.8805270
  H       -2.5653610    -1.3323610    -0.8894680
  H       -0.4509760     1.7568515    -0.0034922
  H       -0.2913660    -1.3244520     0.0007550
  H        3.1211320    -0.9203150     0.0096400
units angstrom
no_reorient  #important for SAPT in psi4, default
symmetry c1  #important for SAPT in psi4, default
}

set PROPERTIES_ORIGIN ["COM"]
properties('MP2/aug-cc-pvtz', properties = ['dipole'])
--------------------------------------------------------------------------

    Molecular point group: c1
  Charge       = 0
  Multiplicity = 1
  Basis Set: AUG-CC-PVTZ
    Blend: AUG-CC-PVTZ
  Basis Set: (AUG-CC-PVTZ AUX)
    Blend: AUG-CC-PVTZ-JKFIT

    Orbital Energies [Eh]
    ---------------------

    Doubly Occupied:

       1A    -20.610706     2A    -20.540114     3A    -11.385947
       4A    -11.268016     5A    -11.244586     6A    -11.242184
       7A    -11.229330     8A     -1.453150     9A     -1.348034
      10A     -1.108838    11A     -1.019821    12A     -0.915783
      13A     -0.845646    14A     -0.740518    15A     -0.704936
      16A     -0.694187    17A     -0.635241    18A     -0.621532
      19A     -0.614346    20A     -0.601634    21A     -0.566254
      22A     -0.522496    23A     -0.516536    24A     -0.489277
      25A     -0.482838    26A     -0.450805    27A     -0.382530

  @DF-RHF Final Energy:  -343.85771463651753

   => Energetics <=

    Nuclear Repulsion Energy =            284.9840647642863019
    One-Electron Energy =               -1033.2129846409416132
    Two-Electron Energy =                 404.3712052401377264
    Total Energy =                       -343.8577146365175281
  Basis Set: (AUG-CC-PVTZ AUX)
    Blend: AUG-CC-PVTZ-RI
    Molecular point group: c1

    Geometry (in Angstrom), charge = 0, multiplicity = 1:

       Center              X                  Y                   Z               Mass
    ------------   -----------------  -----------------  -----------------  -----------------
         O            2.179999190563    -1.194801636738     0.007092673560    15.994914619570
         O            2.015394190563     1.063932363262     0.003762673560    15.994914619570
         C           -2.335331509437     0.683086263262    -0.006476126440    12.000000000000
         C           -2.892276809437    -0.785074636738    -0.005906326440    12.000000000000
         C           -0.840037809437     0.732628363262    -0.003096326440    12.000000000000
         C            0.022894190563    -0.293051636738     0.000162673560    12.000000000000
         C            1.473957190563    -0.030265636738     0.003061673560    12.000000000000
         H           -2.709476809437     1.181045363262    -0.878987326440     1.007825032230
         H           -2.713456809437     1.183234363262     0.863044673560     1.007825032230
         H           -3.984700809437    -0.764131636738    -0.008438326440     1.007825032230
         H           -2.568750809437    -1.336525636738     0.880536673560     1.007825032230
         H           -2.564688809437    -1.338759636738    -0.889458326440     1.007825032230
         H           -0.450303809437     1.750452863262    -0.003482526440     1.007825032230
         H           -0.290693809437    -1.330850636738     0.000764673560     1.007825032230
         H            3.121804190563    -0.926713636738     0.009649673560     1.007825032230

  Basis Set: AUG-CC-PVTZ
    Blend: AUG-CC-PVTZ
  Basis Set: (AUG-CC-PVTZ AUX)
    Blend: AUG-CC-PVTZ-JKFIT
	 Reference Energy          =    -343.8577146365175281 [Eh]
	 Singles Energy            =      -0.0000000000000000 [Eh]
	 Same-Spin Energy          =      -0.3402912238393394 [Eh]
	 Opposite-Spin Energy      =      -1.0993347052344453 [Eh]
	 Correlation Energy        =      -1.4396259290737847 [Eh]
	 Total Energy              =    -345.2973405655912984 [Eh]

	 ================> DF-SCS-MP2 Energies <==================
	-----------------------------------------------------------
	 SCS Same-Spin Scale       =       0.3333333333333333 [-]
	 SCS Opposite-Spin Scale   =       1.2000000000000000 [-]
	 SCS Same-Spin Energy      =      -0.1134304079464465 [Eh]
	 SCS Opposite-Spin Energy  =      -1.3192016462813343 [Eh]
	 SCS Correlation Energy    =      -1.4326320542277808 [Eh]
	 SCS Total Energy          =    -345.2903466907453094 [Eh]
	-----------------------------------------------------------

  Dipole Moment: [D]
     X:    -1.7843      Y:    -0.8961      Z:    -0.0033     Total:     1.9966

*** Psi4 exiting successfully. Buy a developer a beer!
