                               Psi4 1.3.2 release

  ==> Input File <==

--------------------------------------------------------------------------
#psi4
#
memory 32 gb

molecule  {
0 1
  O        2.1793270    -1.1884030     0.0070830
  O        2.0147220     1.0703310     0.0037530
  C       -2.3333640     0.6373300    -0.0064140
  C       -2.8929490    -0.7786760    -0.0059160
  C       -0.8407100     0.7390270    -0.0031060
  C        0.0222220    -0.2866530     0.0001530
  C        1.4214410     0.0616439     0.0027560
  H       -2.7101490     1.1874440    -0.8789970
  H       -2.7141290     1.1896330     0.8630350
  H       -3.9853730    -0.7577330    -0.0084480
  H       -2.5694230    -1.3301270     0.8805270
  H       -2.5653610    -1.3323610    -0.8894680
  H       -0.4156920     1.7426300    -0.0033930
  H       -0.2913660    -1.3244520     0.0007550
  H        3.1211320    -0.9203150     0.0096400
units angstrom
no_reorient  #important for SAPT in psi4, default
symmetry c1  #important for SAPT in psi4, default
}

set PROPERTIES_ORIGIN ["COM"]
properties('MP2/aug-cc-pvtz', properties = ['dipole'])
--------------------------------------------------------------------------

    Molecular point group: c1
  Charge       = 0
  Multiplicity = 1
  Basis Set: AUG-CC-PVTZ
    Blend: AUG-CC-PVTZ
  Basis Set: (AUG-CC-PVTZ AUX)
    Blend: AUG-CC-PVTZ-JKFIT

    Orbital Energies [Eh]
    ---------------------

    Doubly Occupied:

       1A    -20.579605     2A    -20.553947     3A    -11.383088
       4A    -11.273950     5A    -11.250799     6A    -11.243482
       7A    -11.231493     8A     -1.449234     9A     -1.337669
      10A     -1.120052    11A     -1.032917    12A     -0.917383
      13A     -0.830969    14A     -0.739530    15A     -0.700762
      16A     -0.687240    17A     -0.634262    18A     -0.616596
      19A     -0.610662    20A     -0.598243    21A     -0.581059
      22A     -0.517873    23A     -0.515654    24A     -0.510907
      25A     -0.484927    26A     -0.451501    27A     -0.388375

  @DF-RHF Final Energy:  -343.85023845255205

   => Energetics <=

    Nuclear Repulsion Energy =            285.7358548360761006
    One-Electron Energy =               -1034.6878271746595601
    Two-Electron Energy =                 405.1017338860314112
    Total Energy =                       -343.8502384525520483
  Basis Set: (AUG-CC-PVTZ AUX)
    Blend: AUG-CC-PVTZ-RI
    Molecular point group: c1

    Geometry (in Angstrom), charge = 0, multiplicity = 1:

       Center              X                  Y                   Z               Mass
    ------------   -----------------  -----------------  -----------------  -----------------
         O            2.185545197835    -1.198659006501     0.007118564223    15.994914619570
         O            2.020940197835     1.060074993499     0.003788564223    15.994914619570
         C           -2.327145802165     0.627073993499    -0.006378435777    12.000000000000
         C           -2.886730802165    -0.788932006501    -0.005880435777    12.000000000000
         C           -0.834491802165     0.728770993499    -0.003070435777    12.000000000000
         C            0.028440197835    -0.296909006501     0.000188564223    12.000000000000
         C            1.427659197835     0.051387893499     0.002791564223    12.000000000000
         H           -2.703930802165     1.177187993499    -0.878961435777     1.007825032230
         H           -2.707910802165     1.179376993499     0.863070564223     1.007825032230
         H           -3.979154802165    -0.767989006501    -0.008412435777     1.007825032230
         H           -2.563204802165    -1.340383006501     0.880562564223     1.007825032230
         H           -2.559142802165    -1.342617006501    -0.889432435777     1.007825032230
         H           -0.409473802165     1.732373993499    -0.003357435777     1.007825032230
         H           -0.285147802165    -1.334708006501     0.000790564223     1.007825032230
         H            3.127350197835    -0.930571006501     0.009675564223     1.007825032230

  Basis Set: AUG-CC-PVTZ
    Blend: AUG-CC-PVTZ
  Basis Set: (AUG-CC-PVTZ AUX)
    Blend: AUG-CC-PVTZ-JKFIT
	 Reference Energy          =    -343.8502384525520483 [Eh]
	 Singles Energy            =      -0.0000000000000000 [Eh]
	 Same-Spin Energy          =      -0.3407967938853242 [Eh]
	 Opposite-Spin Energy      =      -1.0999699381147732 [Eh]
	 Correlation Energy        =      -1.4407667320000974 [Eh]
	 Total Energy              =    -345.2910051845521480 [Eh]

	 ================> DF-SCS-MP2 Energies <==================
	-----------------------------------------------------------
	 SCS Same-Spin Scale       =       0.3333333333333333 [-]
	 SCS Opposite-Spin Scale   =       1.2000000000000000 [-]
	 SCS Same-Spin Energy      =      -0.1135989312951081 [Eh]
	 SCS Opposite-Spin Energy  =      -1.3199639257377278 [Eh]
	 SCS Correlation Energy    =      -1.4335628570328358 [Eh]
	 SCS Total Energy          =    -345.2838013095848737 [Eh]
	-----------------------------------------------------------

  Dipole Moment: [D]
     X:    -2.3902      Y:    -0.1629      Z:    -0.0059     Total:     2.3958

*** Psi4 exiting successfully. Buy a developer a beer!
