                               Psi4 1.3.2 release

  ==> Input File <==

--------------------------------------------------------------------------
#psi4
#
memory 32 gb

molecule  {
0 1
  O        2.1588955    -1.2005479     0.0070593
  O        2.0147220     1.0703310     0.0037530
  C       -2.3333640     0.6373300    -0.0064140
  C       -2.8929490    -0.7786760    -0.0059160
  C       -0.8407100     0.7390270    -0.0031060
  C        0.0270291    -0.3119375     0.0002156
  C        1.4732850    -0.0238670     0.0030520
  H       -2.7101490     1.1874440    -0.8789970
  H       -2.7141290     1.1896330     0.8630350
  H       -3.9853730    -0.7577330    -0.0084480
  H       -2.5694230    -1.3301270     0.8805270
  H       -2.5653610    -1.3323610    -0.8894680
  H       -0.4156920     1.7426300    -0.0033930
  H       -0.2913660    -1.3244520     0.0007550
  H        3.1211320    -0.9203150     0.0096400
units angstrom
no_reorient  #important for SAPT in psi4, default
symmetry c1  #important for SAPT in psi4, default
}

set PROPERTIES_ORIGIN ["COM"]
properties('MP2/aug-cc-pvtz', properties = ['dipole'])
--------------------------------------------------------------------------

    Molecular point group: c1
  Charge       = 0
  Multiplicity = 1
  Basis Set: AUG-CC-PVTZ
    Blend: AUG-CC-PVTZ
  Basis Set: (AUG-CC-PVTZ AUX)
    Blend: AUG-CC-PVTZ-JKFIT

    Orbital Energies [Eh]
    ---------------------

    Doubly Occupied:

       1A    -20.612028     2A    -20.540825     3A    -11.385101
       4A    -11.271588     5A    -11.247418     6A    -11.240004
       7A    -11.228697     8A     -1.450054     9A     -1.347315
      10A     -1.108465    11A     -1.022513    12A     -0.915777
      13A     -0.837420    14A     -0.741222    15A     -0.701963
      16A     -0.693745    17A     -0.631708    18A     -0.620269
      19A     -0.615713    20A     -0.598857    21A     -0.571353
      22A     -0.514839    23A     -0.511311    24A     -0.506914
      25A     -0.482487    26A     -0.451302    27A     -0.375783

  @DF-RHF Final Energy:  -343.85588348723348

   => Energetics <=

    Nuclear Repulsion Energy =            285.2181064980007363
    One-Electron Energy =               -1033.6986341218407688
    Two-Electron Energy =                 404.6246441366066051
    Total Energy =                       -343.8558834872334842
  Basis Set: (AUG-CC-PVTZ AUX)
    Blend: AUG-CC-PVTZ-RI
    Molecular point group: c1

    Geometry (in Angstrom), charge = 0, multiplicity = 1:

       Center              X                  Y                   Z               Mass
    ------------   -----------------  -----------------  -----------------  -----------------
         O            2.161585416676    -1.195573877144     0.007055643581    15.994914619570
         O            2.017411916676     1.075305022856     0.003749343581    15.994914619570
         C           -2.330674083324     0.642304022856    -0.006417656419    12.000000000000
         C           -2.890259083324    -0.773701977144    -0.005919656419    12.000000000000
         C           -0.838020083324     0.744001022856    -0.003109656419    12.000000000000
         C            0.029719016676    -0.306963477144     0.000211943581    12.000000000000
         C            1.475974916676    -0.018892977144     0.003048343581    12.000000000000
         H           -2.707459083324     1.192418022856    -0.879000656419     1.007825032230
         H           -2.711439083324     1.194607022856     0.863031343581     1.007825032230
         H           -3.982683083324    -0.752758977144    -0.008451656419     1.007825032230
         H           -2.566733083324    -1.325152977144     0.880523343581     1.007825032230
         H           -2.562671083324    -1.327386977144    -0.889471656419     1.007825032230
         H           -0.413002083324     1.747604022856    -0.003396656419     1.007825032230
         H           -0.288676083324    -1.319477977144     0.000751343581     1.007825032230
         H            3.123821916676    -0.915340977144     0.009636343581     1.007825032230

  Basis Set: AUG-CC-PVTZ
    Blend: AUG-CC-PVTZ
  Basis Set: (AUG-CC-PVTZ AUX)
    Blend: AUG-CC-PVTZ-JKFIT
	 Reference Energy          =    -343.8558834872334842 [Eh]
	 Singles Energy            =      -0.0000000000000000 [Eh]
	 Same-Spin Energy          =      -0.3413005493708233 [Eh]
	 Opposite-Spin Energy      =      -1.1008650960614399 [Eh]
	 Correlation Energy        =      -1.4421656454322633 [Eh]
	 Total Energy              =    -345.2980491326657670 [Eh]

	 ================> DF-SCS-MP2 Energies <==================
	-----------------------------------------------------------
	 SCS Same-Spin Scale       =       0.3333333333333333 [-]
	 SCS Opposite-Spin Scale   =       1.2000000000000000 [-]
	 SCS Same-Spin Energy      =      -0.1137668497902744 [Eh]
	 SCS Opposite-Spin Energy  =      -1.3210381152737278 [Eh]
	 SCS Correlation Energy    =      -1.4348049650640022 [Eh]
	 SCS Total Energy          =    -345.2906884522975020 [Eh]
	-----------------------------------------------------------

  Dipole Moment: [D]
     X:    -1.8014      Y:    -0.9164      Z:    -0.0033     Total:     2.0211

*** Psi4 exiting successfully. Buy a developer a beer!
