                               Psi4 1.3.2 release

  ==> Input File <==

--------------------------------------------------------------------------
#psi4
#
memory 32 gb

molecule  {
0 1
  O        2.1793270    -1.1884030     0.0070830
  O        2.0147220     1.0703310     0.0037530
  C       -2.3333640     0.6373300    -0.0064140
  C       -2.9060897    -0.7732415    -0.0283645
  C       -0.8407100     0.7390270    -0.0031060
  C        0.0222220    -0.2866530     0.0001530
  C        1.4732850    -0.0238670     0.0030520
  H       -2.7199596     1.1718778    -0.8843638
  H       -2.7141290     1.1896330     0.8630350
  H       -3.9853730    -0.7577330    -0.0084480
  H       -2.5694230    -1.3301270     0.8805270
  H       -2.5653610    -1.3323610    -0.8894680
  H       -0.4156920     1.7426300    -0.0033930
  H       -0.2913660    -1.3244520     0.0007550
  H        3.1211320    -0.9203150     0.0096400
units angstrom
no_reorient  #important for SAPT in psi4, default
symmetry c1  #important for SAPT in psi4, default
}

set PROPERTIES_ORIGIN ["COM"]
properties('MP2/aug-cc-pvtz', properties = ['dipole'])
--------------------------------------------------------------------------

    Molecular point group: c1
  Charge       = 0
  Multiplicity = 1
  Basis Set: AUG-CC-PVTZ
    Blend: AUG-CC-PVTZ
  Basis Set: (AUG-CC-PVTZ AUX)
    Blend: AUG-CC-PVTZ-JKFIT

    Orbital Energies [Eh]
    ---------------------

    Doubly Occupied:

       1A    -20.610575     2A    -20.540251     3A    -11.385733
       4A    -11.268103     5A    -11.247271     6A    -11.240733
       7A    -11.228440     8A     -1.453112     9A     -1.348178
      10A     -1.111273    11A     -1.024564    12A     -0.916352
      13A     -0.842182    14A     -0.739326    15A     -0.705790
      16A     -0.694419    17A     -0.631562    18A     -0.620720
      19A     -0.616781    20A     -0.600746    21A     -0.570962
      22A     -0.517442    23A     -0.510299    24A     -0.502205
      25A     -0.482670    26A     -0.450851    27A     -0.380902

  @DF-RHF Final Energy:  -343.85936976940872

   => Energetics <=

    Nuclear Repulsion Energy =            285.3653302407631145
    One-Electron Energy =               -1033.9665192931358888
    Two-Electron Energy =                 404.7418192829640589
    Total Energy =                       -343.8593697694087155
  Basis Set: (AUG-CC-PVTZ AUX)
    Blend: AUG-CC-PVTZ-RI
    Molecular point group: c1

    Geometry (in Angstrom), charge = 0, multiplicity = 1:

       Center              X                  Y                   Z               Mass
    ------------   -----------------  -----------------  -----------------  -----------------
         O            2.181002057463    -1.188898076048     0.009829530831    15.994914619570
         O            2.016397057463     1.069835923952     0.006499530831    15.994914619570
         C           -2.331688942537     0.636834923952    -0.003667469169    12.000000000000
         C           -2.904414642537    -0.773736576048    -0.025617969169    12.000000000000
         C           -0.839034942537     0.738531923952    -0.000359469169    12.000000000000
         C            0.023897057463    -0.287148076048     0.002899530831    12.000000000000
         C            1.474960057463    -0.024362076048     0.005798530831    12.000000000000
         H           -2.718284542537     1.171382723952    -0.881617269169     1.007825032230
         H           -2.712453942537     1.189137923952     0.865781530831     1.007825032230
         H           -3.983697942537    -0.758228076048    -0.005701469169     1.007825032230
         H           -2.567747942537    -1.330622076048     0.883273530831     1.007825032230
         H           -2.563685942537    -1.332856076048    -0.886721469169     1.007825032230
         H           -0.414016942537     1.742134923952    -0.000646469169     1.007825032230
         H           -0.289690942537    -1.324947076048     0.003501530831     1.007825032230
         H            3.122807057463    -0.920810076048     0.012386530831     1.007825032230

  Basis Set: AUG-CC-PVTZ
    Blend: AUG-CC-PVTZ
  Basis Set: (AUG-CC-PVTZ AUX)
    Blend: AUG-CC-PVTZ-JKFIT
	 Reference Energy          =    -343.8593697694087155 [Eh]
	 Singles Energy            =      -0.0000000000000000 [Eh]
	 Same-Spin Energy          =      -0.3406349579951354 [Eh]
	 Opposite-Spin Energy      =      -1.0994363942348024 [Eh]
	 Correlation Energy        =      -1.4400713522299378 [Eh]
	 Total Energy              =    -345.2994411216386652 [Eh]

	 ================> DF-SCS-MP2 Energies <==================
	-----------------------------------------------------------
	 SCS Same-Spin Scale       =       0.3333333333333333 [-]
	 SCS Opposite-Spin Scale   =       1.2000000000000000 [-]
	 SCS Same-Spin Energy      =      -0.1135449859983785 [Eh]
	 SCS Opposite-Spin Energy  =      -1.3193236730817628 [Eh]
	 SCS Correlation Energy    =      -1.4328686590801412 [Eh]
	 SCS Total Energy          =    -345.2922384284888722 [Eh]
	-----------------------------------------------------------

  Dipole Moment: [D]
     X:    -1.8119      Y:    -0.9243      Z:    -0.0147     Total:     2.0341

*** Psi4 exiting successfully. Buy a developer a beer!
