                               Psi4 1.4a3.dev225

  ==> Input File <==

--------------------------------------------------------------------------
#psi4
#
memory 32 gb

molecule  {
0 1
  O       -2.3109350    -1.1403470    -0.0000450
  O       -2.1116090     1.1175510    -0.0000760
  C        2.2339710     0.6185460     0.0000510
  C        2.7736950    -0.8069580     0.0000920
  C        0.7414440     0.7423990     0.0000070
  C       -0.1379540    -0.2713190     0.0000010
  C       -1.6059554     0.0184663    -0.0000456
  H        2.6208160     1.1641270     0.8715420
  H        2.6208650     1.1640950    -0.8714390
  H        3.8667590    -0.8011940     0.0001220
  H        2.4401730    -1.3549900    -0.8853120
  H        2.4401230    -1.3549580     0.8854960
  H        0.3318170     1.7528370    -0.0000240
  H        0.1592700    -1.3142900     0.0000290
  H       -3.2484020    -0.8568190    -0.0000760
units angstrom
no_reorient  #important for SAPT in psi4, default
symmetry c1  #important for SAPT in psi4, default
}

set PROPERTIES_ORIGIN ["COM"]
properties('MP2/aug-cc-pvtz', properties = ['dipole'])
--------------------------------------------------------------------------

    Molecular point group: c1
  Charge       = 0
  Multiplicity = 1
  Basis Set: AUG-CC-PVTZ
    Blend: AUG-CC-PVTZ
  Basis Set: (AUG-CC-PVTZ AUX)
    Blend: AUG-CC-PVTZ-JKFIT

    Orbital Energies [Eh]
    ---------------------

    Doubly Occupied:

       1A    -20.612949     2A    -20.542590     3A    -11.385827
       4A    -11.265171     5A    -11.246199     6A    -11.240628
       7A    -11.227735     8A     -1.458455     9A     -1.356321
      10A     -1.107717    11A     -1.019896    12A     -0.913237
      13A     -0.841436    14A     -0.738473    15A     -0.703777
      16A     -0.697831    17A     -0.631844    18A     -0.622815
      19A     -0.618190    20A     -0.598655    21A     -0.569749
      22A     -0.513710    23A     -0.510877    24A     -0.503195
      25A     -0.486368    26A     -0.451178    27A     -0.378795

  @DF-RHF Final Energy:  -343.86063310804752

   => Energetics <=

    Nuclear Repulsion Energy =            285.1855646696416215
    One-Electron Energy =               -1033.6051576682375526
    Two-Electron Energy =                 404.5589598905484081
    Total Energy =                       -343.8606331080475229
  Basis Set: (AUG-CC-PVTZ AUX)
    Blend: AUG-CC-PVTZ-RI
    Molecular point group: c1

    Geometry (in Angstrom), charge = 0, multiplicity = 1:

       Center              X                  Y                   Z               Mass
    ------------   -----------------  -----------------  -----------------  -----------------
         O           -2.197429517854    -1.156691132327    -0.000041702331    15.994914619570
         O           -1.998103517854     1.101206867673    -0.000072702331    15.994914619570
         C            2.347476482146     0.602201867673     0.000054297669    12.000000000000
         C            2.887200482146    -0.823302132327     0.000095297669    12.000000000000
         C            0.854949482146     0.726054867673     0.000010297669    12.000000000000
         C           -0.024448517854    -0.287663132327     0.000004297669    12.000000000000
         C           -1.492449917854     0.002122167673    -0.000042302331    12.000000000000
         H            2.734321482146     1.147782867673     0.871545297669     1.007825032230
         H            2.734370482146     1.147750867673    -0.871435702331     1.007825032230
         H            3.980264482146    -0.817538132327     0.000125297669     1.007825032230
         H            2.553678482146    -1.371334132327    -0.885308702331     1.007825032230
         H            2.553628482146    -1.371302132327     0.885499297669     1.007825032230
         H            0.445322482146     1.736492867673    -0.000020702331     1.007825032230
         H            0.272775482146    -1.330634132327     0.000032297669     1.007825032230
         H           -3.134896517854    -0.873163132327    -0.000072702331     1.007825032230

  Basis Set: AUG-CC-PVTZ
    Blend: AUG-CC-PVTZ
  Basis Set: (AUG-CC-PVTZ AUX)
    Blend: AUG-CC-PVTZ-JKFIT
	 Reference Energy          =    -343.8606331080475229 [Eh]
	 Singles Energy            =      -0.0000000000000000 [Eh]
	 Same-Spin Energy          =      -0.3402899671861129 [Eh]
	 Opposite-Spin Energy      =      -1.0989441050364528 [Eh]
	 Correlation Energy        =      -1.4392340722225656 [Eh]
	 Total Energy              =    -345.2998671802700983 [Eh]

	 ================> DF-SCS-MP2 Energies <==================
	-----------------------------------------------------------
	 SCS Same-Spin Scale       =       0.3333333333333333 [-]
	 SCS Opposite-Spin Scale   =       1.2000000000000000 [-]
	 SCS Same-Spin Energy      =      -0.1134299890620376 [Eh]
	 SCS Opposite-Spin Energy  =      -1.3187329260437433 [Eh]
	 SCS Correlation Energy    =      -1.4321629151057809 [Eh]
	 SCS Total Energy          =    -345.2927960231533007 [Eh]
	-----------------------------------------------------------

  Dipole Moment: [D]
     X:     1.6370      Y:    -0.9486      Z:     0.0001     Total:     1.8920

*** Psi4 exiting successfully. Buy a developer a beer!
