                               Psi4 1.3.2 release

  ==> Input File <==

--------------------------------------------------------------------------
#psi4
#
memory 32 gb

molecule  {
0 1
  O        2.2393066    -1.1498553     0.0071467
  O        2.0147220     1.0703310     0.0037530
  C       -2.3333640     0.6373300    -0.0064140
  C       -2.8929490    -0.7786760    -0.0059160
  C       -0.8407100     0.7390270    -0.0031060
  C        0.0104578    -0.2103501    -0.0000295
  C        1.4732850    -0.0238670     0.0030520
  H       -2.7101490     1.1874440    -0.8789970
  H       -2.7141290     1.1896330     0.8630350
  H       -3.9853730    -0.7577330    -0.0084480
  H       -2.5694230    -1.3301270     0.8805270
  H       -2.5653610    -1.3323610    -0.8894680
  H       -0.4156920     1.7426300    -0.0033930
  H       -0.2913660    -1.3244520     0.0007550
  H        3.1211320    -0.9203150     0.0096400
units angstrom
no_reorient  #important for SAPT in psi4, default
symmetry c1  #important for SAPT in psi4, default
}

set PROPERTIES_ORIGIN ["COM"]
properties('MP2/aug-cc-pvtz', properties = ['dipole'])
--------------------------------------------------------------------------

    Molecular point group: c1
  Charge       = 0
  Multiplicity = 1
  Basis Set: AUG-CC-PVTZ
    Blend: AUG-CC-PVTZ
  Basis Set: (AUG-CC-PVTZ AUX)
    Blend: AUG-CC-PVTZ-JKFIT

    Orbital Energies [Eh]
    ---------------------

    Doubly Occupied:

       1A    -20.604891     2A    -20.538250     3A    -11.387940
       4A    -11.256313     5A    -11.247440     6A    -11.242052
       7A    -11.228108     8A     -1.463388     9A     -1.351129
      10A     -1.121666    11A     -1.028834    12A     -0.920084
      13A     -0.857682    14A     -0.742147    15A     -0.712117
      16A     -0.694273    17A     -0.633047    18A     -0.622077
      19A     -0.619679    20A     -0.605563    21A     -0.558808
      22A     -0.515626    23A     -0.514834    24A     -0.496921
      25A     -0.483497    26A     -0.447561    27A     -0.395374

  @DF-RHF Final Energy:  -343.85173057416631

   => Energetics <=

    Nuclear Repulsion Energy =            286.2591979939369935
    One-Electron Energy =               -1035.6432524679119069
    Two-Electron Energy =                 405.5323238998085458
    Total Energy =                       -343.8517305741663108
  Basis Set: (AUG-CC-PVTZ AUX)
    Blend: AUG-CC-PVTZ-RI
    Molecular point group: c1

    Geometry (in Angstrom), charge = 0, multiplicity = 1:

       Center              X                  Y                   Z               Mass
    ------------   -----------------  -----------------  -----------------  -----------------
         O            2.231129083626    -1.165169366289     0.007158467939    15.994914619570
         O            2.006544483626     1.055016933711     0.003764767939    15.994914619570
         C           -2.341541516374     0.622015933711    -0.006402232061    12.000000000000
         C           -2.901126516374    -0.793990066289    -0.005904232061    12.000000000000
         C           -0.848887516374     0.723712933711    -0.003094232061    12.000000000000
         C            0.002280283626    -0.225664166289    -0.000017732061    12.000000000000
         C            1.465107483626    -0.039181066289     0.003063767939    12.000000000000
         H           -2.718326516374     1.172129933711    -0.878985232061     1.007825032230
         H           -2.722306516374     1.174318933711     0.863046767939     1.007825032230
         H           -3.993550516374    -0.773047066289    -0.008436232061     1.007825032230
         H           -2.577600516374    -1.345441066289     0.880538767939     1.007825032230
         H           -2.573538516374    -1.347675066289    -0.889456232061     1.007825032230
         H           -0.423869516374     1.727315933711    -0.003381232061     1.007825032230
         H           -0.299543516374    -1.339766066289     0.000766767939     1.007825032230
         H            3.112954483626    -0.935629066289     0.009651767939     1.007825032230

  Basis Set: AUG-CC-PVTZ
    Blend: AUG-CC-PVTZ
  Basis Set: (AUG-CC-PVTZ AUX)
    Blend: AUG-CC-PVTZ-JKFIT
	 Reference Energy          =    -343.8517305741663108 [Eh]
	 Singles Energy            =      -0.0000000000000000 [Eh]
	 Same-Spin Energy          =      -0.3390961728267859 [Eh]
	 Opposite-Spin Energy      =      -1.0960521648872827 [Eh]
	 Correlation Energy        =      -1.4351483377140686 [Eh]
	 Total Energy              =    -345.2868789118803647 [Eh]

	 ================> DF-SCS-MP2 Energies <==================
	-----------------------------------------------------------
	 SCS Same-Spin Scale       =       0.3333333333333333 [-]
	 SCS Opposite-Spin Scale   =       1.2000000000000000 [-]
	 SCS Same-Spin Energy      =      -0.1130320576089286 [Eh]
	 SCS Opposite-Spin Energy  =      -1.3152625978647392 [Eh]
	 SCS Correlation Energy    =      -1.4282946554736680 [Eh]
	 SCS Total Energy          =    -345.2800252296399890 [Eh]
	-----------------------------------------------------------

  Dipole Moment: [D]
     X:    -1.8632      Y:    -0.9273      Z:    -0.0034     Total:     2.0812

*** Psi4 exiting successfully. Buy a developer a beer!
