                               Psi4 1.3.2 release

  ==> Input File <==

--------------------------------------------------------------------------
#psi4
#
memory 32 gb

molecule  {
0 1
  O        2.1793270    -1.1884030     0.0070830
  O        2.0147220     1.0703310     0.0037530
  C       -2.3333640     0.6373300    -0.0064140
  C       -2.9052845    -0.7737389    -0.0059506
  C       -0.8416543     0.7520488    -0.0031246
  C        0.0222220    -0.2866530     0.0001530
  C        1.4732850    -0.0238670     0.0030520
  H       -2.7101490     1.1874440    -0.8789970
  H       -2.7141290     1.1896330     0.8630350
  H       -3.9853730    -0.7577330    -0.0084480
  H       -2.5694230    -1.3301270     0.8805270
  H       -2.5653610    -1.3323610    -0.8894680
  H       -0.4156920     1.7426300    -0.0033930
  H       -0.2913660    -1.3244520     0.0007550
  H        3.1211320    -0.9203150     0.0096400
units angstrom
no_reorient  #important for SAPT in psi4, default
symmetry c1  #important for SAPT in psi4, default
}

set PROPERTIES_ORIGIN ["COM"]
properties('MP2/aug-cc-pvtz', properties = ['dipole'])
--------------------------------------------------------------------------

    Molecular point group: c1
  Charge       = 0
  Multiplicity = 1
  Basis Set: AUG-CC-PVTZ
    Blend: AUG-CC-PVTZ
  Basis Set: (AUG-CC-PVTZ AUX)
    Blend: AUG-CC-PVTZ-JKFIT

    Orbital Energies [Eh]
    ---------------------

    Doubly Occupied:

       1A    -20.610117     2A    -20.539653     3A    -11.385167
       4A    -11.269181     5A    -11.247529     6A    -11.241627
       7A    -11.229000     8A     -1.452651     9A     -1.347712
      10A     -1.110144    11A     -1.023428    12A     -0.917397
      13A     -0.841368    14A     -0.741073    15A     -0.704905
      16A     -0.694408    17A     -0.630968    18A     -0.620125
      19A     -0.616326    20A     -0.600385    21A     -0.570913
      22A     -0.513810    23A     -0.512505    24A     -0.507566
      25A     -0.482282    26A     -0.450334    27A     -0.378263

  @DF-RHF Final Energy:  -343.85951652172622

   => Energetics <=

    Nuclear Repulsion Energy =            285.2273200444162171
    One-Electron Energy =               -1033.6960005603546051
    Two-Electron Energy =                 404.6091639942121105
    Total Energy =                       -343.8595165217262206
  Basis Set: (AUG-CC-PVTZ AUX)
    Blend: AUG-CC-PVTZ-RI
    Molecular point group: c1

    Geometry (in Angstrom), charge = 0, multiplicity = 1:

       Center              X                  Y                   Z               Mass
    ------------   -----------------  -----------------  -----------------  -----------------
         O            2.180919918846    -1.190557014335     0.007089443491    15.994914619570
         O            2.016314918846     1.068176985665     0.003759443491    15.994914619570
         C           -2.331771081154     0.635175985665    -0.006407556509    12.000000000000
         C           -2.903691581154    -0.775892914335    -0.005944156509    12.000000000000
         C           -0.840061381154     0.749894785665    -0.003118156509    12.000000000000
         C            0.023814918846    -0.288807014335     0.000159443491    12.000000000000
         C            1.474877918846    -0.026021014335     0.003058443491    12.000000000000
         H           -2.708556081154     1.185289985665    -0.878990556509     1.007825032230
         H           -2.712536081154     1.187478985665     0.863041443491     1.007825032230
         H           -3.983780081154    -0.759887014335    -0.008441556509     1.007825032230
         H           -2.567830081154    -1.332281014335     0.880533443491     1.007825032230
         H           -2.563768081154    -1.334515014335    -0.889461556509     1.007825032230
         H           -0.414099081154     1.740475985665    -0.003386556509     1.007825032230
         H           -0.289773081154    -1.326606014335     0.000761443491     1.007825032230
         H            3.122724918846    -0.922469014335     0.009646443491     1.007825032230

  Basis Set: AUG-CC-PVTZ
    Blend: AUG-CC-PVTZ
  Basis Set: (AUG-CC-PVTZ AUX)
    Blend: AUG-CC-PVTZ-JKFIT
	 Reference Energy          =    -343.8595165217262206 [Eh]
	 Singles Energy            =      -0.0000000000000000 [Eh]
	 Same-Spin Energy          =      -0.3406893976995999 [Eh]
	 Opposite-Spin Energy      =      -1.0995395241904435 [Eh]
	 Correlation Energy        =      -1.4402289218900435 [Eh]
	 Total Energy              =    -345.2997454436162457 [Eh]

	 ================> DF-SCS-MP2 Energies <==================
	-----------------------------------------------------------
	 SCS Same-Spin Scale       =       0.3333333333333333 [-]
	 SCS Opposite-Spin Scale   =       1.2000000000000000 [-]
	 SCS Same-Spin Energy      =      -0.1135631325665333 [Eh]
	 SCS Opposite-Spin Energy  =      -1.3194474290285323 [Eh]
	 SCS Correlation Energy    =      -1.4330105615950657 [Eh]
	 SCS Total Energy          =    -345.2925270833212608 [Eh]
	-----------------------------------------------------------

  Dipole Moment: [D]
     X:    -1.8329      Y:    -0.9184      Z:    -0.0034     Total:     2.0501

*** Psi4 exiting successfully. Buy a developer a beer!
