                               Psi4 1.3.2 release

  ==> Input File <==

--------------------------------------------------------------------------
#psi4
#
memory 32 gb

molecule  {
0 1
  O        2.1793270    -1.1884030     0.0070830
  O        2.0147220     1.0703310     0.0037530
  C       -2.3313619     0.6112950    -0.0063766
  C       -2.8929490    -0.7786760    -0.0059160
  C       -0.8407100     0.7390270    -0.0031060
  C        0.0222220    -0.2866530     0.0001530
  C        1.4732850    -0.0238670     0.0030520
  H       -2.7101490     1.1874440    -0.8789970
  H       -2.7141290     1.1896330     0.8630350
  H       -3.9853730    -0.7577330    -0.0084480
  H       -2.5694230    -1.3301270     0.8805270
  H       -2.5653610    -1.3323610    -0.8894680
  H       -0.3982415     1.7350596    -0.0033433
  H       -0.2913660    -1.3244520     0.0007550
  H        3.1211320    -0.9203150     0.0096400
units angstrom
no_reorient  #important for SAPT in psi4, default
symmetry c1  #important for SAPT in psi4, default
}

set PROPERTIES_ORIGIN ["COM"]
properties('MP2/aug-cc-pvtz', properties = ['dipole'])
--------------------------------------------------------------------------

    Molecular point group: c1
  Charge       = 0
  Multiplicity = 1
  Basis Set: AUG-CC-PVTZ
    Blend: AUG-CC-PVTZ
  Basis Set: (AUG-CC-PVTZ AUX)
    Blend: AUG-CC-PVTZ-JKFIT

    Orbital Energies [Eh]
    ---------------------

    Doubly Occupied:

       1A    -20.610314     2A    -20.540057     3A    -11.385373
       4A    -11.267720     5A    -11.249062     6A    -11.239538
       7A    -11.228125     8A     -1.452884     9A     -1.348029
      10A     -1.112955    11A     -1.026713    12A     -0.916586
      13A     -0.840825    14A     -0.738446    15A     -0.705860
      16A     -0.694268    17A     -0.630949    18A     -0.620302
      19A     -0.616844    20A     -0.600766    21A     -0.571088
      22A     -0.512057    23A     -0.510751    24A     -0.509783
      25A     -0.482404    26A     -0.450623    27A     -0.379536

  @DF-RHF Final Energy:  -343.85909940931873

   => Energetics <=

    Nuclear Repulsion Energy =            285.6940645686253220
    One-Electron Energy =               -1034.6226194477633271
    Two-Electron Energy =                 405.0694554698192746
    Total Energy =                       -343.8590994093187305
  Basis Set: (AUG-CC-PVTZ AUX)
    Blend: AUG-CC-PVTZ-RI
    Molecular point group: c1

    Geometry (in Angstrom), charge = 0, multiplicity = 1:

       Center              X                  Y                   Z               Mass
    ------------   -----------------  -----------------  -----------------  -----------------
         O            2.178911273461    -1.185204256373     0.007078076562    15.994914619570
         O            2.014306273461     1.073529743627     0.003748076562    15.994914619570
         C           -2.331777626539     0.614493743627    -0.006381523438    12.000000000000
         C           -2.893364726539    -0.775477256373    -0.005920923438    12.000000000000
         C           -0.841125726539     0.742225743627    -0.003110923438    12.000000000000
         C            0.021806273461    -0.283454256373     0.000148076562    12.000000000000
         C            1.472869273461    -0.020668256373     0.003047076562    12.000000000000
         H           -2.710564726539     1.190642743627    -0.879001923438     1.007825032230
         H           -2.714544726539     1.192831743627     0.863030076562     1.007825032230
         H           -3.985788726539    -0.754534256373    -0.008452923438     1.007825032230
         H           -2.569838726539    -1.326928256373     0.880522076562     1.007825032230
         H           -2.565776726539    -1.329162256373    -0.889472923438     1.007825032230
         H           -0.398657226539     1.738258343627    -0.003348223438     1.007825032230
         H           -0.291781726539    -1.321253256373     0.000750076562     1.007825032230
         H            3.120716273461    -0.917116256373     0.009635076562     1.007825032230

  Basis Set: AUG-CC-PVTZ
    Blend: AUG-CC-PVTZ
  Basis Set: (AUG-CC-PVTZ AUX)
    Blend: AUG-CC-PVTZ-JKFIT
	 Reference Energy          =    -343.8590994093187305 [Eh]
	 Singles Energy            =      -0.0000000000000000 [Eh]
	 Same-Spin Energy          =      -0.3408964993732281 [Eh]
	 Opposite-Spin Energy      =      -1.0995951711634859 [Eh]
	 Correlation Energy        =      -1.4404916705367139 [Eh]
	 Total Energy              =    -345.2995910798554178 [Eh]

	 ================> DF-SCS-MP2 Energies <==================
	-----------------------------------------------------------
	 SCS Same-Spin Scale       =       0.3333333333333333 [-]
	 SCS Opposite-Spin Scale   =       1.2000000000000000 [-]
	 SCS Same-Spin Energy      =      -0.1136321664577427 [Eh]
	 SCS Opposite-Spin Energy  =      -1.3195142053961830 [Eh]
	 SCS Correlation Energy    =      -1.4331463718539257 [Eh]
	 SCS Total Energy          =    -345.2922457811726531 [Eh]
	-----------------------------------------------------------

  Dipole Moment: [D]
     X:    -1.8359      Y:    -0.9383      Z:    -0.0033     Total:     2.0617

*** Psi4 exiting successfully. Buy a developer a beer!
