                               Psi4 1.3.2 release

  ==> Input File <==

--------------------------------------------------------------------------
#psi4
#
memory 32 gb

molecule  {
0 1
  O        2.1793270    -1.1884030     0.0070830
  O        2.0147220     1.0703310     0.0037530
  C       -2.3333640     0.6373300    -0.0064140
  C       -2.8929490    -0.7786760    -0.0059160
  C       -0.7409415     0.7458244    -0.0028849
  C        0.0222220    -0.2866530     0.0001530
  C        1.4732850    -0.0238670     0.0030520
  H       -2.7101490     1.1874440    -0.8789970
  H       -2.7141290     1.1896330     0.8630350
  H       -3.9853730    -0.7577330    -0.0084480
  H       -2.5694230    -1.3301270     0.8805270
  H       -2.5653610    -1.3323610    -0.8894680
  H       -0.4156920     1.7426300    -0.0033930
  H       -0.2913660    -1.3244520     0.0007550
  H        3.1211320    -0.9203150     0.0096400
units angstrom
no_reorient  #important for SAPT in psi4, default
symmetry c1  #important for SAPT in psi4, default
}

set PROPERTIES_ORIGIN ["COM"]
properties('MP2/aug-cc-pvtz', properties = ['dipole'])
--------------------------------------------------------------------------

    Molecular point group: c1
  Charge       = 0
  Multiplicity = 1
  Basis Set: AUG-CC-PVTZ
    Blend: AUG-CC-PVTZ
  Basis Set: (AUG-CC-PVTZ AUX)
    Blend: AUG-CC-PVTZ-JKFIT

    Orbital Energies [Eh]
    ---------------------

    Doubly Occupied:

       1A    -20.610941     2A    -20.540895     3A    -11.384981
       4A    -11.258489     5A    -11.248495     6A    -11.235661
       7A    -11.226883     8A     -1.453802     9A     -1.349108
      10A     -1.111689    11A     -1.025741    12A     -0.907847
      13A     -0.841044    14A     -0.747062    15A     -0.705011
      16A     -0.697674    17A     -0.628330    18A     -0.618626
      19A     -0.615071    20A     -0.608488    21A     -0.567012
      22A     -0.514594    23A     -0.509767    24A     -0.486547
      25A     -0.484186    26A     -0.449824    27A     -0.396515

  @DF-RHF Final Energy:  -343.85159590271098

   => Energetics <=

    Nuclear Repulsion Energy =            285.7741927260974535
    One-Electron Energy =               -1034.8030165246650540
    Two-Electron Energy =                 405.1772278958566176
    Total Energy =                       -343.8515959027109830
  Basis Set: (AUG-CC-PVTZ AUX)
    Blend: AUG-CC-PVTZ-RI
    Molecular point group: c1

    Geometry (in Angstrom), charge = 0, multiplicity = 1:

       Center              X                  Y                   Z               Mass
    ------------   -----------------  -----------------  -----------------  -----------------
         O            2.167361231597    -1.189218336197     0.007056544740    15.994914619570
         O            2.002756231597     1.069515663803     0.003726544740    15.994914619570
         C           -2.345329768403     0.636514663803    -0.006440455260    12.000000000000
         C           -2.904914768403    -0.779491336197    -0.005942455260    12.000000000000
         C           -0.752907268403     0.745009063803    -0.002911355260    12.000000000000
         C            0.010256231597    -0.287468336197     0.000126544740    12.000000000000
         C            1.461319231597    -0.024682336197     0.003025544740    12.000000000000
         H           -2.722114768403     1.186628663803    -0.879023455260     1.007825032230
         H           -2.726094768403     1.188817663803     0.863008544740     1.007825032230
         H           -3.997338768403    -0.758548336197    -0.008474455260     1.007825032230
         H           -2.581388768403    -1.330942336197     0.880500544740     1.007825032230
         H           -2.577326768403    -1.333176336197    -0.889494455260     1.007825032230
         H           -0.427657768403     1.741814663803    -0.003419455260     1.007825032230
         H           -0.303331768403    -1.325267336197     0.000728544740     1.007825032230
         H            3.109166231597    -0.921130336197     0.009613544740     1.007825032230

  Basis Set: AUG-CC-PVTZ
    Blend: AUG-CC-PVTZ
  Basis Set: (AUG-CC-PVTZ AUX)
    Blend: AUG-CC-PVTZ-JKFIT
	 Reference Energy          =    -343.8515959027109830 [Eh]
	 Singles Energy            =      -0.0000000000000000 [Eh]
	 Same-Spin Energy          =      -0.3396825092722220 [Eh]
	 Opposite-Spin Energy      =      -1.0981534227465535 [Eh]
	 Correlation Energy        =      -1.4378359320187755 [Eh]
	 Total Energy              =    -345.2894318347297826 [Eh]

	 ================> DF-SCS-MP2 Energies <==================
	-----------------------------------------------------------
	 SCS Same-Spin Scale       =       0.3333333333333333 [-]
	 SCS Opposite-Spin Scale   =       1.2000000000000000 [-]
	 SCS Same-Spin Energy      =      -0.1132275030907407 [Eh]
	 SCS Opposite-Spin Energy  =      -1.3177841072958640 [Eh]
	 SCS Correlation Energy    =      -1.4310116103866046 [Eh]
	 SCS Total Energy          =    -345.2826075130975596 [Eh]
	-----------------------------------------------------------

  Dipole Moment: [D]
     X:    -1.6487      Y:    -0.9509      Z:    -0.0029     Total:     1.9033

*** Psi4 exiting successfully. Buy a developer a beer!
