                               Psi4 1.3.2 release

  ==> Input File <==

--------------------------------------------------------------------------
#psi4
#
memory 32 gb

molecule  {
0 1
  O        2.1793270    -1.1884030     0.0070830
  O        2.0147220     1.0703310     0.0037530
  C       -2.3341946     0.6503596    -0.0064323
  C       -2.8929490    -0.7786760    -0.0059160
  C       -0.8407100     0.7390270    -0.0031060
  C        0.0222220    -0.2866530     0.0001530
  C        1.4732850    -0.0238670     0.0030520
  H       -2.7101490     1.1874440    -0.8789970
  H       -2.7141290     1.1896330     0.8630350
  H       -3.9853730    -0.7577330    -0.0084480
  H       -2.5694230    -1.3301270     0.8805270
  H       -2.5653610    -1.3323610    -0.8894680
  H       -0.4244661     1.7463007    -0.0034178
  H       -0.2913660    -1.3244520     0.0007550
  H        3.1211320    -0.9203150     0.0096400
units angstrom
no_reorient  #important for SAPT in psi4, default
symmetry c1  #important for SAPT in psi4, default
}

set PROPERTIES_ORIGIN ["COM"]
properties('MP2/aug-cc-pvtz', properties = ['dipole'])
--------------------------------------------------------------------------

    Molecular point group: c1
  Charge       = 0
  Multiplicity = 1
  Basis Set: AUG-CC-PVTZ
    Blend: AUG-CC-PVTZ
  Basis Set: (AUG-CC-PVTZ AUX)
    Blend: AUG-CC-PVTZ-JKFIT

    Orbital Energies [Eh]
    ---------------------

    Doubly Occupied:

       1A    -20.610499     2A    -20.540066     3A    -11.385649
       4A    -11.267780     5A    -11.246572     6A    -11.240839
       7A    -11.228761     8A     -1.453003     9A     -1.348014
      10A     -1.110668    11A     -1.022986    12A     -0.916211
      13A     -0.843298    14A     -0.739348    15A     -0.705378
      16A     -0.694218    17A     -0.632585    18A     -0.620862
      19A     -0.615487    20A     -0.600944    21A     -0.568549
      22A     -0.516961    23A     -0.513524    24A     -0.501157
      25A     -0.482654    26A     -0.450711    27A     -0.381107

  @DF-RHF Final Energy:  -343.86017670594310

   => Energetics <=

    Nuclear Repulsion Energy =            285.3320252185881145
    One-Electron Energy =               -1033.9087408761306506
    Two-Electron Energy =                 404.7165389515994320
    Total Energy =                       -343.8601767059431040
  Basis Set: (AUG-CC-PVTZ AUX)
    Blend: AUG-CC-PVTZ-RI
    Molecular point group: c1

    Geometry (in Angstrom), charge = 0, multiplicity = 1:

       Center              X                  Y                   Z               Mass
    ------------   -----------------  -----------------  -----------------  -----------------
         O            2.179515178920    -1.190002783149     0.007085507496    15.994914619570
         O            2.014910178920     1.068731216851     0.003755507496    15.994914619570
         C           -2.334006421080     0.648759816851    -0.006429792504    12.000000000000
         C           -2.892760821080    -0.780275783149    -0.005913492504    12.000000000000
         C           -0.840521821080     0.737427216851    -0.003103492504    12.000000000000
         C            0.022410178920    -0.288252783149     0.000155507496    12.000000000000
         C            1.473473178920    -0.025466783149     0.003054507496    12.000000000000
         H           -2.709960821080     1.185844216851    -0.878994492504     1.007825032230
         H           -2.713940821080     1.188033216851     0.863037507496     1.007825032230
         H           -3.985184821080    -0.759332783149    -0.008445492504     1.007825032230
         H           -2.569234821080    -1.331726783149     0.880529507496     1.007825032230
         H           -2.565172821080    -1.333960783149    -0.889465492504     1.007825032230
         H           -0.424277921080     1.744700916851    -0.003415292504     1.007825032230
         H           -0.291177821080    -1.326051783149     0.000757507496     1.007825032230
         H            3.121320178920    -0.921914783149     0.009642507496     1.007825032230

  Basis Set: AUG-CC-PVTZ
    Blend: AUG-CC-PVTZ
  Basis Set: (AUG-CC-PVTZ AUX)
    Blend: AUG-CC-PVTZ-JKFIT
	 Reference Energy          =    -343.8601767059431040 [Eh]
	 Singles Energy            =      -0.0000000000000000 [Eh]
	 Same-Spin Energy          =      -0.3405307466099489 [Eh]
	 Opposite-Spin Energy      =      -1.0993461483821736 [Eh]
	 Correlation Energy        =      -1.4398768949921226 [Eh]
	 Total Energy              =    -345.3000536009352004 [Eh]

	 ================> DF-SCS-MP2 Energies <==================
	-----------------------------------------------------------
	 SCS Same-Spin Scale       =       0.3333333333333333 [-]
	 SCS Opposite-Spin Scale   =       1.2000000000000000 [-]
	 SCS Same-Spin Energy      =      -0.1135102488699830 [Eh]
	 SCS Opposite-Spin Energy  =      -1.3192153780586082 [Eh]
	 SCS Correlation Energy    =      -1.4327256269285913 [Eh]
	 SCS Total Energy          =    -345.2929023328716767 [Eh]
	-----------------------------------------------------------

  Dipole Moment: [D]
     X:    -1.8105      Y:    -0.9159      Z:    -0.0033     Total:     2.0290

*** Psi4 exiting successfully. Buy a developer a beer!
