                               Psi4 1.3.2 release

  ==> Input File <==

--------------------------------------------------------------------------
#psi4
#
memory 32 gb

molecule  {
0 1
  O        2.1793270    -1.1884030     0.0070830
  O        2.0147220     1.0703310     0.0037530
  C       -2.3333640     0.6373300    -0.0064140
  C       -2.8929490    -0.7786760    -0.0059160
  C       -0.8407100     0.7390270    -0.0031060
  C        0.0222220    -0.2866530     0.0001530
  C        1.3695969     0.1471547     0.0024600
  H       -2.7101490     1.1874440    -0.8789970
  H       -2.7141290     1.1896330     0.8630350
  H       -3.9853730    -0.7577330    -0.0084480
  H       -2.5694230    -1.3301270     0.8805270
  H       -2.5653610    -1.3323610    -0.8894680
  H       -0.4156920     1.7426300    -0.0033930
  H       -0.2913660    -1.3244520     0.0007550
  H        3.1211320    -0.9203150     0.0096400
units angstrom
no_reorient  #important for SAPT in psi4, default
symmetry c1  #important for SAPT in psi4, default
}

set PROPERTIES_ORIGIN ["COM"]
properties('MP2/aug-cc-pvtz', properties = ['dipole'])
--------------------------------------------------------------------------

    Molecular point group: c1
  Charge       = 0
  Multiplicity = 1
  Basis Set: AUG-CC-PVTZ
    Blend: AUG-CC-PVTZ
  Basis Set: (AUG-CC-PVTZ AUX)
    Blend: AUG-CC-PVTZ-JKFIT

    Orbital Energies [Eh]
    ---------------------

    Doubly Occupied:

       1A    -20.569226     2A    -20.545775     3A    -11.383621
       4A    -11.281096     5A    -11.254761     6A    -11.249400
       7A    -11.234811     8A     -1.479196     9A     -1.299876
      10A     -1.130697    11A     -1.042265    12A     -0.920359
      13A     -0.824929    14A     -0.749759    15A     -0.707847
      16A     -0.678348    17A     -0.639056    18A     -0.619642
      19A     -0.618336    20A     -0.598414    21A     -0.579867
      22A     -0.521457    23A     -0.519233    24A     -0.516451
      25A     -0.469068    26A     -0.438095    27A     -0.397087

  @DF-RHF Final Energy:  -343.82258117513021

   => Energetics <=

    Nuclear Repulsion Energy =            286.0998031540048601
    One-Electron Energy =               -1035.3074245196269203
    Two-Electron Energy =                 405.3850401904919067
    Total Energy =                       -343.8225811751302103
  Basis Set: (AUG-CC-PVTZ AUX)
    Blend: AUG-CC-PVTZ-RI
    Molecular point group: c1

    Geometry (in Angstrom), charge = 0, multiplicity = 1:

       Center              X                  Y                   Z               Mass
    ------------   -----------------  -----------------  -----------------  -----------------
         O            2.191763229752    -1.208914925375     0.007154065610    15.994914619570
         O            2.027158229752     1.049819074625     0.003824065610    15.994914619570
         C           -2.320927770248     0.616818074625    -0.006342934390    12.000000000000
         C           -2.880512770248    -0.799187925375    -0.005844934390    12.000000000000
         C           -0.828273770248     0.718515074625    -0.003034934390    12.000000000000
         C            0.034658229752    -0.307164925375     0.000224065610    12.000000000000
         C            1.382033129752     0.126642774625     0.002531065610    12.000000000000
         H           -2.697712770248     1.166932074625    -0.878925934390     1.007825032230
         H           -2.701692770248     1.169121074625     0.863106065610     1.007825032230
         H           -3.972936770248    -0.778244925375    -0.008376934390     1.007825032230
         H           -2.556986770248    -1.350638925375     0.880598065610     1.007825032230
         H           -2.552924770248    -1.352872925375    -0.889396934390     1.007825032230
         H           -0.403255770248     1.722118074625    -0.003321934390     1.007825032230
         H           -0.278929770248    -1.344963925375     0.000826065610     1.007825032230
         H            3.133568229752    -0.940826925375     0.009711065610     1.007825032230

  Basis Set: AUG-CC-PVTZ
    Blend: AUG-CC-PVTZ
  Basis Set: (AUG-CC-PVTZ AUX)
    Blend: AUG-CC-PVTZ-JKFIT
	 Reference Energy          =    -343.8225811751302103 [Eh]
	 Singles Energy            =      -0.0000000000000000 [Eh]
	 Same-Spin Energy          =      -0.3414782428627581 [Eh]
	 Opposite-Spin Energy      =      -1.1014264684577362 [Eh]
	 Correlation Energy        =      -1.4429047113204942 [Eh]
	 Total Energy              =    -345.2654858864506764 [Eh]

	 ================> DF-SCS-MP2 Energies <==================
	-----------------------------------------------------------
	 SCS Same-Spin Scale       =       0.3333333333333333 [-]
	 SCS Opposite-Spin Scale   =       1.2000000000000000 [-]
	 SCS Same-Spin Energy      =      -0.1138260809542527 [Eh]
	 SCS Opposite-Spin Energy  =      -1.3217117621492833 [Eh]
	 SCS Correlation Energy    =      -1.4355378431035359 [Eh]
	 SCS Total Energy          =    -345.2581190182337423 [Eh]
	-----------------------------------------------------------

  Dipole Moment: [D]
     X:    -3.0117      Y:     0.6393      Z:    -0.0087     Total:     3.0788

*** Psi4 exiting successfully. Buy a developer a beer!
