                               Psi4 1.3.2 release

  ==> Input File <==

--------------------------------------------------------------------------
#psi4
#
memory 32 gb

molecule  {
0 1
  O        2.1793270    -1.1884030     0.0070830
  O        2.0147220     1.0703310     0.0037530
  C       -2.3366405     0.7155890    -0.0065202
  C       -2.8929490    -0.7786760    -0.0059160
  C       -0.8407100     0.7390270    -0.0031060
  C        0.0222220    -0.2866530     0.0001530
  C        1.4732850    -0.0238670     0.0030520
  H       -2.7101490     1.1874440    -0.8789970
  H       -2.7141290     1.1896330     0.8630350
  H       -3.9853730    -0.7577330    -0.0084480
  H       -2.5694230    -1.3301270     0.8805270
  H       -2.5653610    -1.3323610    -0.8894680
  H       -0.4687988     1.7634982    -0.0035416
  H       -0.2913660    -1.3244520     0.0007550
  H        3.1211320    -0.9203150     0.0096400
units angstrom
no_reorient  #important for SAPT in psi4, default
symmetry c1  #important for SAPT in psi4, default
}

set PROPERTIES_ORIGIN ["COM"]
properties('MP2/aug-cc-pvtz', properties = ['dipole'])
--------------------------------------------------------------------------

    Molecular point group: c1
  Charge       = 0
  Multiplicity = 1
  Basis Set: AUG-CC-PVTZ
    Blend: AUG-CC-PVTZ
  Basis Set: (AUG-CC-PVTZ AUX)
    Blend: AUG-CC-PVTZ-JKFIT

    Orbital Energies [Eh]
    ---------------------

    Doubly Occupied:

       1A    -20.610854     2A    -20.540165     3A    -11.386157
       4A    -11.268268     5A    -11.243560     6A    -11.243102
       7A    -11.229661     8A     -1.453261     9A     -1.348066
      10A     -1.107847    11A     -1.018028    12A     -0.915470
      13A     -0.847135    14A     -0.741433    15A     -0.704673
      16A     -0.694178    17A     -0.637618    18A     -0.621970
      19A     -0.613762    20A     -0.602247    21A     -0.564821
      22A     -0.525735    23A     -0.518168    24A     -0.482946
      25A     -0.480940    26A     -0.450873    27A     -0.383411

  @DF-RHF Final Energy:  -343.85422563008126

   => Energetics <=

    Nuclear Repulsion Energy =            284.7595422482438607
    One-Electron Energy =               -1032.7588312329946802
    Two-Electron Energy =                 404.1450633546695599
    Total Energy =                       -343.8542256300812596
  Basis Set: (AUG-CC-PVTZ AUX)
    Blend: AUG-CC-PVTZ-RI
    Molecular point group: c1

    Geometry (in Angstrom), charge = 0, multiplicity = 1:

       Center              X                  Y                   Z               Mass
    ------------   -----------------  -----------------  -----------------  -----------------
         O            2.180255095034    -1.197999439253     0.007097297002    15.994914619570
         O            2.015650095034     1.060734560747     0.003767297002    15.994914619570
         C           -2.335712404966     0.705992560747    -0.006505902998    12.000000000000
         C           -2.892020904966    -0.788272439253    -0.005901702998    12.000000000000
         C           -0.839781904966     0.729430560747    -0.003091702998    12.000000000000
         C            0.023150095034    -0.296249439253     0.000167297002    12.000000000000
         C            1.474213095034    -0.033463439253     0.003066297002    12.000000000000
         H           -2.709220904966     1.177847560747    -0.878982702998     1.007825032230
         H           -2.713200904966     1.180036560747     0.863049297002     1.007825032230
         H           -3.984444904966    -0.767329439253    -0.008433702998     1.007825032230
         H           -2.568494904966    -1.339723439253     0.880541297002     1.007825032230
         H           -2.564432904966    -1.341957439253    -0.889453702998     1.007825032230
         H           -0.467870704966     1.753901760747    -0.003527302998     1.007825032230
         H           -0.290437904966    -1.334048439253     0.000769297002     1.007825032230
         H            3.122060095034    -0.929911439253     0.009654297002     1.007825032230

  Basis Set: AUG-CC-PVTZ
    Blend: AUG-CC-PVTZ
  Basis Set: (AUG-CC-PVTZ AUX)
    Blend: AUG-CC-PVTZ-JKFIT
	 Reference Energy          =    -343.8542256300812596 [Eh]
	 Singles Energy            =      -0.0000000000000000 [Eh]
	 Same-Spin Energy          =      -0.3402011643247350 [Eh]
	 Opposite-Spin Energy      =      -1.0994574535869241 [Eh]
	 Correlation Energy        =      -1.4396586179116593 [Eh]
	 Total Energy              =    -345.2938842479929349 [Eh]

	 ================> DF-SCS-MP2 Energies <==================
	-----------------------------------------------------------
	 SCS Same-Spin Scale       =       0.3333333333333333 [-]
	 SCS Opposite-Spin Scale   =       1.2000000000000000 [-]
	 SCS Same-Spin Energy      =      -0.1134003881082450 [Eh]
	 SCS Opposite-Spin Energy  =      -1.3193489443043089 [Eh]
	 SCS Correlation Energy    =      -1.4327493324125540 [Eh]
	 SCS Total Energy          =    -345.2869749624937867 [Eh]
	-----------------------------------------------------------

  Dipole Moment: [D]
     X:    -1.7663      Y:    -0.8840      Z:    -0.0032     Total:     1.9752

*** Psi4 exiting successfully. Buy a developer a beer!
