                               Psi4 1.3.2 release

  ==> Input File <==

--------------------------------------------------------------------------
#psi4
#
memory 32 gb

molecule  {
0 1
  O        2.1793270    -1.1884030     0.0070830
  O        2.0147220     1.0703310     0.0037530
  C       -2.3333640     0.6373300    -0.0064140
  C       -2.8863145    -0.7812316     0.0053086
  C       -0.8407100     0.7390270    -0.0031060
  C        0.0222220    -0.2866530     0.0001530
  C        1.4732850    -0.0238670     0.0030520
  H       -2.7052005     1.1951646    -0.8762138
  H       -2.7141290     1.1896330     0.8630350
  H       -3.9853730    -0.7577330    -0.0084480
  H       -2.5694230    -1.3301270     0.8805270
  H       -2.5653610    -1.3323610    -0.8894680
  H       -0.4156920     1.7426300    -0.0033930
  H       -0.2913660    -1.3244520     0.0007550
  H        3.1211320    -0.9203150     0.0096400
units angstrom
no_reorient  #important for SAPT in psi4, default
symmetry c1  #important for SAPT in psi4, default
}

set PROPERTIES_ORIGIN ["COM"]
properties('MP2/aug-cc-pvtz', properties = ['dipole'])
--------------------------------------------------------------------------

    Molecular point group: c1
  Charge       = 0
  Multiplicity = 1
  Basis Set: AUG-CC-PVTZ
    Blend: AUG-CC-PVTZ
  Basis Set: (AUG-CC-PVTZ AUX)
    Blend: AUG-CC-PVTZ-JKFIT

    Orbital Energies [Eh]
    ---------------------

    Doubly Occupied:

       1A    -20.610368     2A    -20.539968     3A    -11.385469
       4A    -11.267566     5A    -11.247431     6A    -11.240241
       7A    -11.228718     8A     -1.452888     9A     -1.347937
      10A     -1.111455    11A     -1.024008    12A     -0.916398
      13A     -0.842684    14A     -0.738895    15A     -0.705419
      16A     -0.694148    17A     -0.632273    18A     -0.620756
      19A     -0.615375    20A     -0.600961    21A     -0.568582
      22A     -0.517843    23A     -0.510938    24A     -0.504234
      25A     -0.482518    26A     -0.450600    27A     -0.380452

  @DF-RHF Final Energy:  -343.85999870928640

   => Energetics <=

    Nuclear Repulsion Energy =            285.4951001999918958
    One-Electron Energy =               -1034.2339535352316489
    Two-Electron Energy =                 404.8788546259534087
    Total Energy =                       -343.8599987092864012
  Basis Set: (AUG-CC-PVTZ AUX)
    Blend: AUG-CC-PVTZ-RI
    Molecular point group: c1

    Geometry (in Angstrom), charge = 0, multiplicity = 1:

       Center              X                  Y                   Z               Mass
    ------------   -----------------  -----------------  -----------------  -----------------
         O            2.178481609017    -1.188174333702     0.005708781579    15.994914619570
         O            2.013876609017     1.070559666298     0.002378781579    15.994914619570
         C           -2.334209390983     0.637558666298    -0.007788218421    12.000000000000
         C           -2.887159890983    -0.781002933702     0.003934381579    12.000000000000
         C           -0.841555390983     0.739255666298    -0.004480218421    12.000000000000
         C            0.021376609017    -0.286424333702    -0.001221218421    12.000000000000
         C            1.472439609017    -0.023638333702     0.001677781579    12.000000000000
         H           -2.706045890983     1.195393266298    -0.877588018421     1.007825032230
         H           -2.714974390983     1.189861666298     0.861660781579     1.007825032230
         H           -3.986218390983    -0.757504333702    -0.009822218421     1.007825032230
         H           -2.570268390983    -1.329898333702     0.879152781579     1.007825032230
         H           -2.566206390983    -1.332132333702    -0.890842218421     1.007825032230
         H           -0.416537390983     1.742858666298    -0.004767218421     1.007825032230
         H           -0.292211390983    -1.324223333702    -0.000619218421     1.007825032230
         H            3.120286609017    -0.920086333702     0.008265781579     1.007825032230

  Basis Set: AUG-CC-PVTZ
    Blend: AUG-CC-PVTZ
  Basis Set: (AUG-CC-PVTZ AUX)
    Blend: AUG-CC-PVTZ-JKFIT
	 Reference Energy          =    -343.8599987092864012 [Eh]
	 Singles Energy            =      -0.0000000000000000 [Eh]
	 Same-Spin Energy          =      -0.3406528852433628 [Eh]
	 Opposite-Spin Energy      =      -1.0994160502380561 [Eh]
	 Correlation Energy        =      -1.4400689354814189 [Eh]
	 Total Energy              =    -345.3000676447678075 [Eh]

	 ================> DF-SCS-MP2 Energies <==================
	-----------------------------------------------------------
	 SCS Same-Spin Scale       =       0.3333333333333333 [-]
	 SCS Opposite-Spin Scale   =       1.2000000000000000 [-]
	 SCS Same-Spin Energy      =      -0.1135509617477876 [Eh]
	 SCS Opposite-Spin Energy  =      -1.3192992602856672 [Eh]
	 SCS Correlation Energy    =      -1.4328502220334549 [Eh]
	 SCS Total Energy          =    -345.2928489313198384 [Eh]
	-----------------------------------------------------------

  Dipole Moment: [D]
     X:    -1.8224      Y:    -0.9216      Z:     0.0018     Total:     2.0422

*** Psi4 exiting successfully. Buy a developer a beer!
