                               Psi4 1.3.2 release

  ==> Input File <==

--------------------------------------------------------------------------
#psi4
#
memory 32 gb

molecule  {
0 1
  O        2.1793270    -1.1884030     0.0070830
  O        2.0147220     1.0703310     0.0037530
  C       -2.3333640     0.6373300    -0.0064140
  C       -2.8929490    -0.7786760    -0.0059160
  C       -0.8407100     0.7390270    -0.0031060
  C        0.0222220    -0.2866530     0.0001530
  C        1.4289351    -0.1134944     0.0029946
  H       -2.7101490     1.1874440    -0.8789970
  H       -2.7141290     1.1896330     0.8630350
  H       -3.9853730    -0.7577330    -0.0084480
  H       -2.5694230    -1.3301270     0.8805270
  H       -2.5653610    -1.3323610    -0.8894680
  H       -0.4156920     1.7426300    -0.0033930
  H       -0.2913660    -1.3244520     0.0007550
  H        3.1211320    -0.9203150     0.0096400
units angstrom
no_reorient  #important for SAPT in psi4, default
symmetry c1  #important for SAPT in psi4, default
}

set PROPERTIES_ORIGIN ["COM"]
properties('MP2/aug-cc-pvtz', properties = ['dipole'])
--------------------------------------------------------------------------

    Molecular point group: c1
  Charge       = 0
  Multiplicity = 1
  Basis Set: AUG-CC-PVTZ
    Blend: AUG-CC-PVTZ
  Basis Set: (AUG-CC-PVTZ AUX)
    Blend: AUG-CC-PVTZ-JKFIT

    Orbital Energies [Eh]
    ---------------------

    Doubly Occupied:

       1A    -20.623519     2A    -20.517703     3A    -11.388236
       4A    -11.278045     5A    -11.252240     6A    -11.240172
       7A    -11.231753     8A     -1.466229     9A     -1.288604
      10A     -1.118451    11A     -1.034838    12A     -0.929951
      13A     -0.857381    14A     -0.753603    15A     -0.712612
      16A     -0.691879    17A     -0.636536    18A     -0.626032
      19A     -0.613717    20A     -0.603197    21A     -0.546532
      22A     -0.518669    23A     -0.517533    24A     -0.505916
      25A     -0.457027    26A     -0.433648    27A     -0.378874

  @DF-RHF Final Energy:  -343.83891810089887

   => Energetics <=

    Nuclear Repulsion Energy =            285.3359130869399678
    One-Electron Energy =               -1033.9038660875173719
    Two-Electron Energy =                 404.7290348996785383
    Total Energy =                       -343.8389181008988658
  Basis Set: (AUG-CC-PVTZ AUX)
    Blend: AUG-CC-PVTZ-RI
    Molecular point group: c1

    Geometry (in Angstrom), charge = 0, multiplicity = 1:

       Center              X                  Y                   Z               Mass
    ------------   -----------------  -----------------  -----------------  -----------------
         O            2.184646377082    -1.177653423623     0.007089947227    15.994914619570
         O            2.020041377082     1.081080576377     0.003759947227    15.994914619570
         C           -2.328044622918     0.648079576377    -0.006407052773    12.000000000000
         C           -2.887629622918    -0.767926423623    -0.005909052773    12.000000000000
         C           -0.835390622918     0.749776576377    -0.003099052773    12.000000000000
         C            0.027541377082    -0.275903423623     0.000159947227    12.000000000000
         C            1.434254477082    -0.102744823623     0.003001547227    12.000000000000
         H           -2.704829622918     1.198193576377    -0.878990052773     1.007825032230
         H           -2.708809622918     1.200382576377     0.863041947227     1.007825032230
         H           -3.980053622918    -0.746983423623    -0.008441052773     1.007825032230
         H           -2.564103622918    -1.319377423623     0.880533947227     1.007825032230
         H           -2.560041622918    -1.321611423623    -0.889461052773     1.007825032230
         H           -0.410372622918     1.753379576377    -0.003386052773     1.007825032230
         H           -0.286046622918    -1.313702423623     0.000761947227     1.007825032230
         H            3.126451377082    -0.909565423623     0.009646947227     1.007825032230

  Basis Set: AUG-CC-PVTZ
    Blend: AUG-CC-PVTZ
  Basis Set: (AUG-CC-PVTZ AUX)
    Blend: AUG-CC-PVTZ-JKFIT
	 Reference Energy          =    -343.8389181008988658 [Eh]
	 Singles Energy            =      -0.0000000000000000 [Eh]
	 Same-Spin Energy          =      -0.3425342027526324 [Eh]
	 Opposite-Spin Energy      =      -1.1025021144096354 [Eh]
	 Correlation Energy        =      -1.4450363171622678 [Eh]
	 Total Energy              =    -345.2839544180611142 [Eh]

	 ================> DF-SCS-MP2 Energies <==================
	-----------------------------------------------------------
	 SCS Same-Spin Scale       =       0.3333333333333333 [-]
	 SCS Opposite-Spin Scale   =       1.2000000000000000 [-]
	 SCS Same-Spin Energy      =      -0.1141780675842108 [Eh]
	 SCS Opposite-Spin Energy  =      -1.3230025372915624 [Eh]
	 SCS Correlation Energy    =      -1.4371806048757731 [Eh]
	 SCS Total Energy          =    -345.2760987057746433 [Eh]
	-----------------------------------------------------------

  Dipole Moment: [D]
     X:    -2.1243      Y:    -1.4989      Z:    -0.0032     Total:     2.5999

*** Psi4 exiting successfully. Buy a developer a beer!
