                               Psi4 1.3.2 release

  ==> Input File <==

--------------------------------------------------------------------------
#psi4
#
memory 32 gb

molecule  {
0 1
  O        2.1793270    -1.1884030     0.0070830
  O        2.0147220     1.0703310     0.0037530
  C       -2.3333640     0.6373300    -0.0064140
  C       -2.8929490    -0.7786760    -0.0059160
  C       -0.8407100     0.7390270    -0.0031060
  C        0.0222220    -0.2866530     0.0001530
  C        1.5619849     0.1553879     0.0031668
  H       -2.7101490     1.1874440    -0.8789970
  H       -2.7141290     1.1896330     0.8630350
  H       -3.9853730    -0.7577330    -0.0084480
  H       -2.5694230    -1.3301270     0.8805270
  H       -2.5653610    -1.3323610    -0.8894680
  H       -0.4156920     1.7426300    -0.0033930
  H       -0.2913660    -1.3244520     0.0007550
  H        3.1211320    -0.9203150     0.0096400
units angstrom
no_reorient  #important for SAPT in psi4, default
symmetry c1  #important for SAPT in psi4, default
}

set PROPERTIES_ORIGIN ["COM"]
properties('MP2/aug-cc-pvtz', properties = ['dipole'])
--------------------------------------------------------------------------

    Molecular point group: c1
  Charge       = 0
  Multiplicity = 1
  Basis Set: AUG-CC-PVTZ
    Blend: AUG-CC-PVTZ
  Basis Set: (AUG-CC-PVTZ AUX)
    Blend: AUG-CC-PVTZ-JKFIT

    Orbital Energies [Eh]
    ---------------------

    Doubly Occupied:

       1A    -20.583458     2A    -20.575726     3A    -11.372737
       4A    -11.250868     5A    -11.239054     6A    -11.238807
       7A    -11.222713     8A     -1.571731     9A     -1.351375
      10A     -1.098571    11A     -1.005690    12A     -0.892792
      13A     -0.807179    14A     -0.750612    15A     -0.730567
      16A     -0.707248    17A     -0.680910    18A     -0.629273
      19A     -0.621875    20A     -0.586780    21A     -0.580461
      22A     -0.509969    23A     -0.508171    24A     -0.504453
      25A     -0.499988    26A     -0.432818    27A     -0.374031

  @DF-RHF Final Energy:  -343.77832052454403

   => Energetics <=

    Nuclear Repulsion Energy =            286.5493157283360688
    One-Electron Energy =               -1035.9995600350714540
    Two-Electron Energy =                 405.6719237821913566
    Total Energy =                       -343.7783205245440286
  Basis Set: (AUG-CC-PVTZ AUX)
    Blend: AUG-CC-PVTZ-RI
    Molecular point group: c1

    Geometry (in Angstrom), charge = 0, multiplicity = 1:

       Center              X                  Y                   Z               Mass
    ------------   -----------------  -----------------  -----------------  -----------------
         O            2.168688767577    -1.209902391651     0.007069294056    15.994914619570
         O            2.004083767577     1.048831608349     0.003739294056    15.994914619570
         C           -2.344002232423     0.615830608349    -0.006427705944    12.000000000000
         C           -2.903587232423    -0.800175391651    -0.005929705944    12.000000000000
         C           -0.851348232423     0.717527608349    -0.003119705944    12.000000000000
         C            0.011583767577    -0.308152391651     0.000139294056    12.000000000000
         C            1.551346667577     0.133888508349     0.003153094056    12.000000000000
         H           -2.720787232423     1.165944608349    -0.879010705944     1.007825032230
         H           -2.724767232423     1.168133608349     0.863021294056     1.007825032230
         H           -3.996011232423    -0.779232391651    -0.008461705944     1.007825032230
         H           -2.580061232423    -1.351626391651     0.880513294056     1.007825032230
         H           -2.575999232423    -1.353860391651    -0.889481705944     1.007825032230
         H           -0.426330232423     1.721130608349    -0.003406705944     1.007825032230
         H           -0.302004232423    -1.345951391651     0.000741294056     1.007825032230
         H            3.110493767577    -0.941814391651     0.009626294056     1.007825032230

  Basis Set: AUG-CC-PVTZ
    Blend: AUG-CC-PVTZ
  Basis Set: (AUG-CC-PVTZ AUX)
    Blend: AUG-CC-PVTZ-JKFIT
	 Reference Energy          =    -343.7783205245440286 [Eh]
	 Singles Energy            =      -0.0000000000000000 [Eh]
	 Same-Spin Energy          =      -0.3378740574671149 [Eh]
	 Opposite-Spin Energy      =      -1.0950078569124604 [Eh]
	 Correlation Energy        =      -1.4328819143795752 [Eh]
	 Total Energy              =    -345.2112024389235785 [Eh]

	 ================> DF-SCS-MP2 Energies <==================
	-----------------------------------------------------------
	 SCS Same-Spin Scale       =       0.3333333333333333 [-]
	 SCS Opposite-Spin Scale   =       1.2000000000000000 [-]
	 SCS Same-Spin Energy      =      -0.1126246858223716 [Eh]
	 SCS Opposite-Spin Energy  =      -1.3140094282949524 [Eh]
	 SCS Correlation Energy    =      -1.4266341141173240 [Eh]
	 SCS Total Energy          =    -345.2049546386613770 [Eh]
	-----------------------------------------------------------

  Dipole Moment: [D]
     X:    -1.1498      Y:     0.4870      Z:    -0.0035     Total:     1.2487

*** Psi4 exiting successfully. Buy a developer a beer!
