                               Psi4 1.3.2 release

  ==> Input File <==

--------------------------------------------------------------------------
#psi4
#
memory 32 gb

molecule  {
0 1
  O        2.1995435    -1.1759034     0.0071055
  O        2.0147220     1.0703310     0.0037530
  C       -2.3333640     0.6373300    -0.0064140
  C       -2.8929490    -0.7786760    -0.0059160
  C       -0.8407100     0.7390270    -0.0031060
  C        0.0178569    -0.2612884     0.0000912
  C        1.4732850    -0.0238670     0.0030520
  H       -2.7101490     1.1874440    -0.8789970
  H       -2.7141290     1.1896330     0.8630350
  H       -3.9853730    -0.7577330    -0.0084480
  H       -2.5694230    -1.3301270     0.8805270
  H       -2.5653610    -1.3323610    -0.8894680
  H       -0.4156920     1.7426300    -0.0033930
  H       -0.2913660    -1.3244520     0.0007550
  H        3.1211320    -0.9203150     0.0096400
units angstrom
no_reorient  #important for SAPT in psi4, default
symmetry c1  #important for SAPT in psi4, default
}

set PROPERTIES_ORIGIN ["COM"]
properties('MP2/aug-cc-pvtz', properties = ['dipole'])
--------------------------------------------------------------------------

    Molecular point group: c1
  Charge       = 0
  Multiplicity = 1
  Basis Set: AUG-CC-PVTZ
    Blend: AUG-CC-PVTZ
  Basis Set: (AUG-CC-PVTZ AUX)
    Blend: AUG-CC-PVTZ-JKFIT

    Orbital Energies [Eh]
    ---------------------

    Doubly Occupied:

       1A    -20.608718     2A    -20.539374     3A    -11.386175
       4A    -11.263889     5A    -11.247325     6A    -11.240873
       7A    -11.228409     8A     -1.456151     9A     -1.348884
      10A     -1.114547    11A     -1.025776    12A     -0.917203
      13A     -0.847621    14A     -0.738143    15A     -0.708838
      16A     -0.694381    17A     -0.632227    18A     -0.621091
      19A     -0.616516    20A     -0.603032    21A     -0.566237
      22A     -0.515120    23A     -0.513295    24A     -0.502584
      25A     -0.482780    26A     -0.449864    27A     -0.385482

  @DF-RHF Final Energy:  -343.86107430057228

   => Energetics <=

    Nuclear Repulsion Energy =            285.7025807637234038
    One-Electron Energy =               -1034.6182394677971388
    Two-Electron Energy =                 405.0545844035014511
    Total Energy =                       -343.8610743005722838
  Basis Set: (AUG-CC-PVTZ AUX)
    Blend: AUG-CC-PVTZ-RI
    Molecular point group: c1

    Geometry (in Angstrom), charge = 0, multiplicity = 1:

       Center              X                  Y                   Z               Mass
    ------------   -----------------  -----------------  -----------------  -----------------
         O            2.196835297988    -1.180943885321     0.007109377981    15.994914619570
         O            2.012013797988     1.065290514679     0.003756877981    15.994914619570
         C           -2.336072202012     0.632289514679    -0.006410122019    12.000000000000
         C           -2.895657202012    -0.783716485321    -0.005912122019    12.000000000000
         C           -0.843418202012     0.733986514679    -0.003102122019    12.000000000000
         C            0.015148697988    -0.266328885321     0.000095077981    12.000000000000
         C            1.470576797988    -0.028907485321     0.003055877981    12.000000000000
         H           -2.712857202012     1.182403514679    -0.878993122019     1.007825032230
         H           -2.716837202012     1.184592514679     0.863038877981     1.007825032230
         H           -3.988081202012    -0.762773485321    -0.008444122019     1.007825032230
         H           -2.572131202012    -1.335167485321     0.880530877981     1.007825032230
         H           -2.568069202012    -1.337401485321    -0.889464122019     1.007825032230
         H           -0.418400202012     1.737589514679    -0.003389122019     1.007825032230
         H           -0.294074202012    -1.329492485321     0.000758877981     1.007825032230
         H            3.118423797988    -0.925355485321     0.009643877981     1.007825032230

  Basis Set: AUG-CC-PVTZ
    Blend: AUG-CC-PVTZ
  Basis Set: (AUG-CC-PVTZ AUX)
    Blend: AUG-CC-PVTZ-JKFIT
	 Reference Energy          =    -343.8610743005722838 [Eh]
	 Singles Energy            =      -0.0000000000000000 [Eh]
	 Same-Spin Energy          =      -0.3400507475801636 [Eh]
	 Opposite-Spin Energy      =      -1.0981157302338567 [Eh]
	 Correlation Energy        =      -1.4381664778140202 [Eh]
	 Total Energy              =    -345.2992407783863200 [Eh]

	 ================> DF-SCS-MP2 Energies <==================
	-----------------------------------------------------------
	 SCS Same-Spin Scale       =       0.3333333333333333 [-]
	 SCS Opposite-Spin Scale   =       1.2000000000000000 [-]
	 SCS Same-Spin Energy      =      -0.1133502491933879 [Eh]
	 SCS Opposite-Spin Energy  =      -1.3177388762806279 [Eh]
	 SCS Correlation Energy    =      -1.4310891254740157 [Eh]
	 SCS Total Energy          =    -345.2921634260462724 [Eh]
	-----------------------------------------------------------

  Dipole Moment: [D]
     X:    -1.8351      Y:    -0.9275      Z:    -0.0033     Total:     2.0561

*** Psi4 exiting successfully. Buy a developer a beer!
