                               Psi4 1.3.2 release

  ==> Input File <==

--------------------------------------------------------------------------
#psi4
#
memory 32 gb

molecule  {
0 1
  O        2.1793270    -1.1884030     0.0070830
  O        2.0147220     1.0703310     0.0037530
  C       -2.3333640     0.6373300    -0.0064140
  C       -2.8929490    -0.7786760    -0.0059160
  C       -0.8407100     0.7390270    -0.0031060
  C        0.0222220    -0.2866530     0.0001530
  C        1.4732850    -0.0238670     0.0030520
  H       -2.7101490     1.1874440    -0.8789970
  H       -2.7141290     1.1896330     0.8630350
  H       -3.9853730    -0.7577330    -0.0084480
  H       -2.5694230    -1.3301270     0.8805270
  H       -2.5653610    -1.3323610    -0.8894680
  H       -0.4156920     1.7426300    -0.0033930
  H       -0.2913660    -1.3244520     0.0007550
  H        2.9287741    -0.9750703     0.0091177
units angstrom
no_reorient  #important for SAPT in psi4, default
symmetry c1  #important for SAPT in psi4, default
}

set PROPERTIES_ORIGIN ["COM"]
properties('MP2/aug-cc-pvtz', properties = ['dipole'])
--------------------------------------------------------------------------

    Molecular point group: c1
  Charge       = 0
  Multiplicity = 1
  Basis Set: AUG-CC-PVTZ
    Blend: AUG-CC-PVTZ
  Basis Set: (AUG-CC-PVTZ AUX)
    Blend: AUG-CC-PVTZ-JKFIT

    Orbital Energies [Eh]
    ---------------------

    Doubly Occupied:

       1A    -20.593086     2A    -20.543959     3A    -11.389361
       4A    -11.269285     5A    -11.248387     6A    -11.241378
       7A    -11.229421     8A     -1.499039     9A     -1.367010
      10A     -1.113536    11A     -1.029407    12A     -0.931929
      13A     -0.865877    14A     -0.747916    15A     -0.721109
      16A     -0.703461    17A     -0.635335    18A     -0.626094
      19A     -0.621346    20A     -0.606904    21A     -0.574801
      22A     -0.516043    23A     -0.513986    24A     -0.506189
      25A     -0.489346    26A     -0.454319    27A     -0.382012

  @DF-RHF Final Energy:  -343.81617522914001

   => Energetics <=

    Nuclear Repulsion Energy =            286.8717057089021978
    One-Electron Energy =               -1036.5346866463482911
    Two-Electron Energy =                 405.8468057083060216
    Total Energy =                       -343.8161752291400148
  Basis Set: (AUG-CC-PVTZ AUX)
    Blend: AUG-CC-PVTZ-RI
    Molecular point group: c1

    Geometry (in Angstrom), charge = 0, multiplicity = 1:

       Center              X                  Y                   Z               Mass
    ------------   -----------------  -----------------  -----------------  -----------------
         O            2.181264793097    -1.187851527189     0.007088323948    15.994914619570
         O            2.016659793097     1.070882472811     0.003758323948    15.994914619570
         C           -2.331426206903     0.637881472811    -0.006408676052    12.000000000000
         C           -2.891011206903    -0.778124527189    -0.005910676052    12.000000000000
         C           -0.838772206903     0.739578472811    -0.003100676052    12.000000000000
         C            0.024159793097    -0.286101527189     0.000158323948    12.000000000000
         C            1.475222793097    -0.023315527189     0.003057323948    12.000000000000
         H           -2.708211206903     1.187995472811    -0.878991676052     1.007825032230
         H           -2.712191206903     1.190184472811     0.863040323948     1.007825032230
         H           -3.983435206903    -0.757181527189    -0.008442676052     1.007825032230
         H           -2.567485206903    -1.329575527189     0.880532323948     1.007825032230
         H           -2.563423206903    -1.331809527189    -0.889462676052     1.007825032230
         H           -0.413754206903     1.743181472811    -0.003387676052     1.007825032230
         H           -0.289428206903    -1.323900527189     0.000760323948     1.007825032230
         H            2.930711893097    -0.974518827189     0.009123023948     1.007825032230

  Basis Set: AUG-CC-PVTZ
    Blend: AUG-CC-PVTZ
  Basis Set: (AUG-CC-PVTZ AUX)
    Blend: AUG-CC-PVTZ-JKFIT
	 Reference Energy          =    -343.8161752291400148 [Eh]
	 Singles Energy            =      -0.0000000000000000 [Eh]
	 Same-Spin Energy          =      -0.3381955223703873 [Eh]
	 Opposite-Spin Energy      =      -1.0940435598674667 [Eh]
	 Correlation Energy        =      -1.4322390822378539 [Eh]
	 Total Energy              =    -345.2484143113778714 [Eh]

	 ================> DF-SCS-MP2 Energies <==================
	-----------------------------------------------------------
	 SCS Same-Spin Scale       =       0.3333333333333333 [-]
	 SCS Opposite-Spin Scale   =       1.2000000000000000 [-]
	 SCS Same-Spin Energy      =      -0.1127318407901291 [Eh]
	 SCS Opposite-Spin Energy  =      -1.3128522718409601 [Eh]
	 SCS Correlation Energy    =      -1.4255841126310891 [Eh]
	 SCS Total Energy          =    -345.2417593417711146 [Eh]
	-----------------------------------------------------------

  Dipole Moment: [D]
     X:    -2.0929      Y:    -0.8935      Z:    -0.0042     Total:     2.2757

*** Psi4 exiting successfully. Buy a developer a beer!
