                               Psi4 1.3.2 release

  ==> Input File <==

--------------------------------------------------------------------------
#psi4
#
memory 32 gb

molecule  {
0 1
  O        2.1793270    -1.1884030     0.0070830
  O        2.0147220     1.0703310     0.0037530
  C       -2.3313619     0.6112950    -0.0063771
  C       -2.8929490    -0.7786760    -0.0059160
  C       -0.8407100     0.7390270    -0.0031060
  C        0.0041900    -0.3015571     0.0001300
  C        1.4732850    -0.0238670     0.0030520
  H       -2.7101490     1.1874440    -0.8789970
  H       -2.7141290     1.1896330     0.8630350
  H       -3.9853730    -0.7577330    -0.0084480
  H       -2.5694230    -1.3301270     0.8805270
  H       -2.5653610    -1.3323610    -0.8894680
  H       -0.4156920     1.7426300    -0.0033930
  H       -0.2913660    -1.3244520     0.0007550
  H        3.1211320    -0.9203150     0.0096400
units angstrom
no_reorient  #important for SAPT in psi4, default
symmetry c1  #important for SAPT in psi4, default
}

set PROPERTIES_ORIGIN ["COM"]
properties('MP2/aug-cc-pvtz', properties = ['dipole'])
--------------------------------------------------------------------------

    Molecular point group: c1
  Charge       = 0
  Multiplicity = 1
  Basis Set: AUG-CC-PVTZ
    Blend: AUG-CC-PVTZ
  Basis Set: (AUG-CC-PVTZ AUX)
    Blend: AUG-CC-PVTZ-JKFIT

    Orbital Energies [Eh]
    ---------------------

    Doubly Occupied:

       1A    -20.610477     2A    -20.541013     3A    -11.386653
       4A    -11.267117     5A    -11.247648     6A    -11.240159
       7A    -11.227599     8A     -1.452802     9A     -1.348233
      10A     -1.112554    11A     -1.024448    12A     -0.914950
      13A     -0.839295    14A     -0.741815    15A     -0.703450
      16A     -0.694843    17A     -0.630276    18A     -0.619838
      19A     -0.616263    20A     -0.605291    21A     -0.570315
      22A     -0.513540    23A     -0.510164    24A     -0.507840
      25A     -0.482300    26A     -0.450028    27A     -0.379600

  @DF-RHF Final Energy:  -343.85863935888693

   => Energetics <=

    Nuclear Repulsion Energy =            285.4870446238601289
    One-Electron Energy =               -1034.2143466526376869
    Two-Electron Energy =                 404.8686626698906252
    Total Energy =                       -343.8586393588869328
  Basis Set: (AUG-CC-PVTZ AUX)
    Blend: AUG-CC-PVTZ-RI
    Molecular point group: c1

    Geometry (in Angstrom), charge = 0, multiplicity = 1:

       Center              X                  Y                   Z               Mass
    ------------   -----------------  -----------------  -----------------  -----------------
         O            2.181249757913    -1.183492957984     0.007081395711    15.994914619570
         O            2.016644757913     1.075241042016     0.003751395711    15.994914619570
         C           -2.329439142087     0.616205042016    -0.006378704289    12.000000000000
         C           -2.891026242087    -0.773765957984    -0.005917604289    12.000000000000
         C           -0.838787242087     0.743937042016    -0.003107604289    12.000000000000
         C            0.006112757913    -0.296647057984     0.000128395711    12.000000000000
         C            1.475207757913    -0.018956957984     0.003050395711    12.000000000000
         H           -2.708226242087     1.192354042016    -0.878998604289     1.007825032230
         H           -2.712206242087     1.194543042016     0.863033395711     1.007825032230
         H           -3.983450242087    -0.752822957984    -0.008449604289     1.007825032230
         H           -2.567500242087    -1.325216957984     0.880525395711     1.007825032230
         H           -2.563438242087    -1.327450957984    -0.889469604289     1.007825032230
         H           -0.413769242087     1.747540042016    -0.003394604289     1.007825032230
         H           -0.289443242087    -1.319541957984     0.000753395711     1.007825032230
         H            3.123054757913    -0.915404957984     0.009638395711     1.007825032230

  Basis Set: AUG-CC-PVTZ
    Blend: AUG-CC-PVTZ
  Basis Set: (AUG-CC-PVTZ AUX)
    Blend: AUG-CC-PVTZ-JKFIT
	 Reference Energy          =    -343.8586393588869328 [Eh]
	 Singles Energy            =      -0.0000000000000000 [Eh]
	 Same-Spin Energy          =      -0.3407618685434005 [Eh]
	 Opposite-Spin Energy      =      -1.0995184767028969 [Eh]
	 Correlation Energy        =      -1.4402803452462973 [Eh]
	 Total Energy              =    -345.2989197041332545 [Eh]

	 ================> DF-SCS-MP2 Energies <==================
	-----------------------------------------------------------
	 SCS Same-Spin Scale       =       0.3333333333333333 [-]
	 SCS Opposite-Spin Scale   =       1.2000000000000000 [-]
	 SCS Same-Spin Energy      =      -0.1135872895144668 [Eh]
	 SCS Opposite-Spin Energy  =      -1.3194221720434762 [Eh]
	 SCS Correlation Energy    =      -1.4330094615579430 [Eh]
	 SCS Total Energy          =    -345.2916488204448910 [Eh]
	-----------------------------------------------------------

  Dipole Moment: [D]
     X:    -1.7947      Y:    -0.9379      Z:    -0.0032     Total:     2.0250

*** Psi4 exiting successfully. Buy a developer a beer!
