                               Psi4 1.3.2 release

  ==> Input File <==

--------------------------------------------------------------------------
#psi4
#
memory 32 gb

molecule  {
0 1
  O        2.1793270    -1.1884030     0.0070830
  O        2.0147220     1.0703310     0.0037530
  C       -2.3333640     0.6373300    -0.0064140
  C       -2.8929490    -0.7786760    -0.0059160
  C       -0.8407100     0.7390270    -0.0031060
  C       -0.0421565    -0.2101328    -0.0000901
  C        1.4732850    -0.0238670     0.0030520
  H       -2.7101490     1.1874440    -0.8789970
  H       -2.7141290     1.1896330     0.8630350
  H       -3.9853730    -0.7577330    -0.0084480
  H       -2.5694230    -1.3301270     0.8805270
  H       -2.5653610    -1.3323610    -0.8894680
  H       -0.4156920     1.7426300    -0.0033930
  H       -0.2913660    -1.3244520     0.0007550
  H        3.1211320    -0.9203150     0.0096400
units angstrom
no_reorient  #important for SAPT in psi4, default
symmetry c1  #important for SAPT in psi4, default
}

set PROPERTIES_ORIGIN ["COM"]
properties('MP2/aug-cc-pvtz', properties = ['dipole'])
--------------------------------------------------------------------------

    Molecular point group: c1
  Charge       = 0
  Multiplicity = 1
  Basis Set: AUG-CC-PVTZ
    Blend: AUG-CC-PVTZ
  Basis Set: (AUG-CC-PVTZ AUX)
    Blend: AUG-CC-PVTZ-JKFIT

    Orbital Energies [Eh]
    ---------------------

    Doubly Occupied:

       1A    -20.616925     2A    -20.543956     3A    -11.390571
       4A    -11.244464     5A    -11.242799     6A    -11.237483
       7A    -11.225755     8A     -1.456278     9A     -1.351722
      10A     -1.124427    11A     -1.023700    12A     -0.908276
      13A     -0.847547    14A     -0.732252    15A     -0.705760
      16A     -0.697213    17A     -0.631340    18A     -0.621107
      19A     -0.620498    20A     -0.607411    21A     -0.557847
      22A     -0.513459    23A     -0.511069    24A     -0.496169
      25A     -0.485491    26A     -0.445024    27A     -0.401827

  @DF-RHF Final Energy:  -343.84618176741202

   => Energetics <=

    Nuclear Repulsion Energy =            286.0643404129012879
    One-Electron Energy =               -1035.3403072615960809
    Two-Electron Energy =                 405.4297850812827733
    Total Energy =                       -343.8461817674120198
  Basis Set: (AUG-CC-PVTZ AUX)
    Blend: AUG-CC-PVTZ-RI
    Molecular point group: c1

    Geometry (in Angstrom), charge = 0, multiplicity = 1:

       Center              X                  Y                   Z               Mass
    ------------   -----------------  -----------------  -----------------  -----------------
         O            2.187048549635    -1.197580687859     0.007112219550    15.994914619570
         O            2.022443549635     1.061153312141     0.003782219550    15.994914619570
         C           -2.325642450365     0.628152312141    -0.006384780450    12.000000000000
         C           -2.885227450365    -0.787853687859    -0.005886780450    12.000000000000
         C           -0.832988450365     0.729849312141    -0.003076780450    12.000000000000
         C           -0.034434950365    -0.219310487859    -0.000060880450    12.000000000000
         C            1.481006549635    -0.033044687859     0.003081219550    12.000000000000
         H           -2.702427450365     1.178266312141    -0.878967780450     1.007825032230
         H           -2.706407450365     1.180455312141     0.863064219550     1.007825032230
         H           -3.977651450365    -0.766910687859    -0.008418780450     1.007825032230
         H           -2.561701450365    -1.339304687859     0.880556219550     1.007825032230
         H           -2.557639450365    -1.341538687859    -0.889438780450     1.007825032230
         H           -0.407970450365     1.733452312141    -0.003363780450     1.007825032230
         H           -0.283644450365    -1.333629687859     0.000784219550     1.007825032230
         H            3.128853549635    -0.929492687859     0.009669219550     1.007825032230

  Basis Set: AUG-CC-PVTZ
    Blend: AUG-CC-PVTZ
  Basis Set: (AUG-CC-PVTZ AUX)
    Blend: AUG-CC-PVTZ-JKFIT
	 Reference Energy          =    -343.8461817674120198 [Eh]
	 Singles Energy            =      -0.0000000000000000 [Eh]
	 Same-Spin Energy          =      -0.3399403363782265 [Eh]
	 Opposite-Spin Energy      =      -1.0979502059283484 [Eh]
	 Correlation Energy        =      -1.4378905423065749 [Eh]
	 Total Energy              =    -345.2840723097185673 [Eh]

	 ================> DF-SCS-MP2 Energies <==================
	-----------------------------------------------------------
	 SCS Same-Spin Scale       =       0.3333333333333333 [-]
	 SCS Opposite-Spin Scale   =       1.2000000000000000 [-]
	 SCS Same-Spin Energy      =      -0.1133134454594088 [Eh]
	 SCS Opposite-Spin Energy  =      -1.3175402471140181 [Eh]
	 SCS Correlation Energy    =      -1.4308536925734270 [Eh]
	 SCS Total Energy          =    -345.2770354599854272 [Eh]
	-----------------------------------------------------------

  Dipole Moment: [D]
     X:    -1.5367      Y:    -0.9532      Z:    -0.0026     Total:     1.8083

*** Psi4 exiting successfully. Buy a developer a beer!
