                               Psi4 1.3.2 release

  ==> Input File <==

--------------------------------------------------------------------------
#psi4
#
memory 32 gb

molecule  {
0 1
  O        2.1793270    -1.1884030     0.0070830
  O        2.0147220     1.0703310     0.0037530
  C       -2.3333640     0.6373300    -0.0064140
  C       -2.8929490    -0.7786760    -0.0059160
  C       -0.8226780     0.7539311    -0.0030851
  C        0.0222220    -0.2866530     0.0001530
  C        1.4684778     0.0014175     0.0030084
  H       -2.7101490     1.1874440    -0.8789970
  H       -2.7141290     1.1896330     0.8630350
  H       -3.9853730    -0.7577330    -0.0084480
  H       -2.5694230    -1.3301270     0.8805270
  H       -2.5653610    -1.3323610    -0.8894680
  H       -0.4156920     1.7426300    -0.0033930
  H       -0.2913660    -1.3244520     0.0007550
  H        3.1211320    -0.9203150     0.0096400
units angstrom
no_reorient  #important for SAPT in psi4, default
symmetry c1  #important for SAPT in psi4, default
}

set PROPERTIES_ORIGIN ["COM"]
properties('MP2/aug-cc-pvtz', properties = ['dipole'])
--------------------------------------------------------------------------

    Molecular point group: c1
  Charge       = 0
  Multiplicity = 1
  Basis Set: AUG-CC-PVTZ
    Blend: AUG-CC-PVTZ
  Basis Set: (AUG-CC-PVTZ AUX)
    Blend: AUG-CC-PVTZ-JKFIT

    Orbital Energies [Eh]
    ---------------------

    Doubly Occupied:

       1A    -20.603095     2A    -20.544651     3A    -11.383939
       4A    -11.267150     5A    -11.247976     6A    -11.241176
       7A    -11.228788     8A     -1.449456     9A     -1.353757
      10A     -1.110107    11A     -1.024293    12A     -0.913956
      13A     -0.837157    14A     -0.740912    15A     -0.703481
      16A     -0.694022    17A     -0.630433    18A     -0.617729
      19A     -0.615726    20A     -0.601598    21A     -0.572765
      22A     -0.514185    23A     -0.510909    24A     -0.507885
      25A     -0.486788    26A     -0.452185    27A     -0.382404

  @DF-RHF Final Energy:  -343.85986884315582

   => Energetics <=

    Nuclear Repulsion Energy =            285.4206366964464792
    One-Electron Energy =               -1034.0879652257367525
    Two-Electron Energy =                 404.8074596861343935
    Total Energy =                       -343.8598688431558230
  Basis Set: (AUG-CC-PVTZ AUX)
    Blend: AUG-CC-PVTZ-RI
    Molecular point group: c1

    Geometry (in Angstrom), charge = 0, multiplicity = 1:

       Center              X                  Y                   Z               Mass
    ------------   -----------------  -----------------  -----------------  -----------------
         O            2.177741033519    -1.193223180478     0.007085785409    15.994914619570
         O            2.013136033519     1.065510819522     0.003755785409    15.994914619570
         C           -2.334949966481     0.632509819522    -0.006411214591    12.000000000000
         C           -2.894534966481    -0.783496180478    -0.005913214591    12.000000000000
         C           -0.824263966481     0.749110919522    -0.003082314591    12.000000000000
         C            0.020636033519    -0.291473180478     0.000155785409    12.000000000000
         C            1.466891833519    -0.003402680478     0.003011185409    12.000000000000
         H           -2.711734966481     1.182623819522    -0.878994214591     1.007825032230
         H           -2.715714966481     1.184812819522     0.863037785409     1.007825032230
         H           -3.986958966481    -0.762553180478    -0.008445214591     1.007825032230
         H           -2.571008966481    -1.334947180478     0.880529785409     1.007825032230
         H           -2.566946966481    -1.337181180478    -0.889465214591     1.007825032230
         H           -0.417277966481     1.737809819522    -0.003390214591     1.007825032230
         H           -0.292951966481    -1.329272180478     0.000757785409     1.007825032230
         H            3.119546033519    -0.925135180478     0.009642785409     1.007825032230

  Basis Set: AUG-CC-PVTZ
    Blend: AUG-CC-PVTZ
  Basis Set: (AUG-CC-PVTZ AUX)
    Blend: AUG-CC-PVTZ-JKFIT
	 Reference Energy          =    -343.8598688431558230 [Eh]
	 Singles Energy            =      -0.0000000000000000 [Eh]
	 Same-Spin Energy          =      -0.3402423192805738 [Eh]
	 Opposite-Spin Energy      =      -1.0989342750187796 [Eh]
	 Correlation Energy        =      -1.4391765942993535 [Eh]
	 Total Energy              =    -345.2990454374551632 [Eh]

	 ================> DF-SCS-MP2 Energies <==================
	-----------------------------------------------------------
	 SCS Same-Spin Scale       =       0.3333333333333333 [-]
	 SCS Opposite-Spin Scale   =       1.2000000000000000 [-]
	 SCS Same-Spin Energy      =      -0.1134141064268579 [Eh]
	 SCS Opposite-Spin Energy  =      -1.3187211300225354 [Eh]
	 SCS Correlation Energy    =      -1.4321352364493933 [Eh]
	 SCS Total Energy          =    -345.2920040796051921 [Eh]
	-----------------------------------------------------------

  Dipole Moment: [D]
     X:    -1.8655      Y:    -0.7209      Z:    -0.0037     Total:     2.0000

*** Psi4 exiting successfully. Buy a developer a beer!
