                               Psi4 1.4a3.dev225

  ==> Input File <==

--------------------------------------------------------------------------
#psi4
#
memory 32 gb

molecule  {
0 1
  O       -2.3109350    -1.1403470    -0.0000450
  O       -2.1116090     1.1175510    -0.0000760
  C        2.2339710     0.6185460     0.0000510
  C        2.7736950    -0.8069580     0.0000920
  C        0.7414440     0.7423990     0.0000070
  C       -0.1379540    -0.2713190     0.0000010
  C       -1.5777346    -0.0034638    -0.0000445
  H        2.6208160     1.1641270     0.8715420
  H        2.6208650     1.1640950    -0.8714390
  H        3.8667590    -0.8011940     0.0001220
  H        2.4401730    -1.3549900    -0.8853120
  H        2.4401230    -1.3549580     0.8854960
  H        0.3318170     1.7528370    -0.0000240
  H        0.1592700    -1.3142900     0.0000290
  H       -3.2484020    -0.8568190    -0.0000760
units angstrom
no_reorient  #important for SAPT in psi4, default
symmetry c1  #important for SAPT in psi4, default
}

set PROPERTIES_ORIGIN ["COM"]
properties('MP2/aug-cc-pvtz', properties = ['dipole'])
--------------------------------------------------------------------------

    Molecular point group: c1
  Charge       = 0
  Multiplicity = 1
  Basis Set: AUG-CC-PVTZ
    Blend: AUG-CC-PVTZ
  Basis Set: (AUG-CC-PVTZ AUX)
    Blend: AUG-CC-PVTZ-JKFIT

    Orbital Energies [Eh]
    ---------------------

    Doubly Occupied:

       1A    -20.613261     2A    -20.536003     3A    -11.386910
       4A    -11.270336     5A    -11.248784     6A    -11.241095
       7A    -11.229568     8A     -1.452914     9A     -1.336912
      10A     -1.112101    11A     -1.025794    12A     -0.918733
      13A     -0.845273    14A     -0.741007    15A     -0.706330
      16A     -0.692904    17A     -0.632259    18A     -0.620564
      19A     -0.613201    20A     -0.602459    21A     -0.566011
      22A     -0.515762    23A     -0.513241    24A     -0.505176
      25A     -0.477226    26A     -0.448372    27A     -0.380538

  @DF-RHF Final Energy:  -343.85787712635016

   => Energetics <=

    Nuclear Repulsion Energy =            285.1344960987836998
    One-Electron Energy =               -1033.5192780463796680
    Two-Electron Energy =                 404.5269048212457506
    Total Energy =                       -343.8578771263501608
  Basis Set: (AUG-CC-PVTZ AUX)
    Blend: AUG-CC-PVTZ-RI
    Molecular point group: c1

    Geometry (in Angstrom), charge = 0, multiplicity = 1:

       Center              X                  Y                   Z               Mass
    ------------   -----------------  -----------------  -----------------  -----------------
         O           -2.200814239261    -1.154060899345    -0.000041834262    15.994914619570
         O           -2.001488239261     1.103837100655    -0.000072834262    15.994914619570
         C            2.344091760739     0.604832100655     0.000054165738    12.000000000000
         C            2.883815760739    -0.820671899345     0.000095165738    12.000000000000
         C            0.851564760739     0.728685100655     0.000010165738    12.000000000000
         C           -0.027833239261    -0.285032899345     0.000004165738    12.000000000000
         C           -1.467613839261    -0.017177699345    -0.000041334262    12.000000000000
         H            2.730936760739     1.150413100655     0.871545165738     1.007825032230
         H            2.730985760739     1.150381100655    -0.871435834262     1.007825032230
         H            3.976879760739    -0.814907899345     0.000125165738     1.007825032230
         H            2.550293760739    -1.368703899345    -0.885308834262     1.007825032230
         H            2.550243760739    -1.368671899345     0.885499165738     1.007825032230
         H            0.441937760739     1.739123100655    -0.000020834262     1.007825032230
         H            0.269390760739    -1.328003899345     0.000032165738     1.007825032230
         H           -3.138281239261    -0.870532899345    -0.000072834262     1.007825032230

  Basis Set: AUG-CC-PVTZ
    Blend: AUG-CC-PVTZ
  Basis Set: (AUG-CC-PVTZ AUX)
    Blend: AUG-CC-PVTZ-JKFIT
	 Reference Energy          =    -343.8578771263501608 [Eh]
	 Singles Energy            =      -0.0000000000000000 [Eh]
	 Same-Spin Energy          =      -0.3409979469277067 [Eh]
	 Opposite-Spin Energy      =      -1.1001401961787491 [Eh]
	 Correlation Energy        =      -1.4411381431064558 [Eh]
	 Total Energy              =    -345.2990152694566177 [Eh]

	 ================> DF-SCS-MP2 Energies <==================
	-----------------------------------------------------------
	 SCS Same-Spin Scale       =       0.3333333333333333 [-]
	 SCS Opposite-Spin Scale   =       1.2000000000000000 [-]
	 SCS Same-Spin Energy      =      -0.1136659823092356 [Eh]
	 SCS Opposite-Spin Energy  =      -1.3201682354144990 [Eh]
	 SCS Correlation Energy    =      -1.4338342177237346 [Eh]
	 SCS Total Energy          =    -345.2917113440739172 [Eh]
	-----------------------------------------------------------

  Dipole Moment: [D]
     X:     1.8715      Y:    -1.0682      Z:     0.0001     Total:     2.1549

*** Psi4 exiting successfully. Buy a developer a beer!
