                               Psi4 1.3.2 release

  ==> Input File <==

--------------------------------------------------------------------------
#psi4
#
memory 32 gb

molecule  {
0 1
  O        2.1793270    -1.1884030     0.0070830
  O        2.0525790     1.0507686     0.0038387
  C       -2.3333640     0.6373300    -0.0064140
  C       -2.8929490    -0.7786760    -0.0059160
  C       -0.8407100     0.7390270    -0.0031060
  C        0.0322770    -0.3371344     0.0001931
  C        1.4732850    -0.0238670     0.0030520
  H       -2.7101490     1.1874440    -0.8789970
  H       -2.7141290     1.1896330     0.8630350
  H       -3.9853730    -0.7577330    -0.0084480
  H       -2.5694230    -1.3301270     0.8805270
  H       -2.5653610    -1.3323610    -0.8894680
  H       -0.4156920     1.7426300    -0.0033930
  H       -0.2913660    -1.3244520     0.0007550
  H        3.1211320    -0.9203150     0.0096400
units angstrom
no_reorient  #important for SAPT in psi4, default
symmetry c1  #important for SAPT in psi4, default
}

set PROPERTIES_ORIGIN ["COM"]
properties('MP2/aug-cc-pvtz', properties = ['dipole'])
--------------------------------------------------------------------------

    Molecular point group: c1
  Charge       = 0
  Multiplicity = 1
  Basis Set: AUG-CC-PVTZ
    Blend: AUG-CC-PVTZ
  Basis Set: (AUG-CC-PVTZ AUX)
    Blend: AUG-CC-PVTZ-JKFIT

    Orbital Energies [Eh]
    ---------------------

    Doubly Occupied:

       1A    -20.603827     2A    -20.538664     3A    -11.384329
       4A    -11.278904     5A    -11.249569     6A    -11.243863
       7A    -11.230360     8A     -1.451117     9A     -1.343244
      10A     -1.108656    11A     -1.023898    12A     -0.918556
      13A     -0.838322    14A     -0.747592    15A     -0.703164
      16A     -0.691810    17A     -0.632805    18A     -0.618782
      19A     -0.615175    20A     -0.601507    21A     -0.572747
      22A     -0.516414    23A     -0.512622    24A     -0.510691
      25A     -0.478981    26A     -0.450483    27A     -0.373944

  @DF-RHF Final Energy:  -343.85428107904312

   => Energetics <=

    Nuclear Repulsion Energy =            284.8797946497449516
    One-Electron Energy =               -1032.9881038105884272
    Two-Electron Energy =                 404.2540280818002998
    Total Energy =                       -343.8542810790431190
  Basis Set: (AUG-CC-PVTZ AUX)
    Blend: AUG-CC-PVTZ-RI
    Molecular point group: c1

    Geometry (in Angstrom), charge = 0, multiplicity = 1:

       Center              X                  Y                   Z               Mass
    ------------   -----------------  -----------------  -----------------  -----------------
         O            2.172069188412    -1.179221132503     0.007064552899    15.994914619570
         O            2.045321188412     1.059950467497     0.003820252899    15.994914619570
         C           -2.340621811588     0.646511867497    -0.006432447101    12.000000000000
         C           -2.900206811588    -0.769494132503    -0.005934447101    12.000000000000
         C           -0.847967811588     0.748208867497    -0.003124447101    12.000000000000
         C            0.025019188412    -0.327952532503     0.000174652899    12.000000000000
         C            1.466027188412    -0.014685132503     0.003033552899    12.000000000000
         H           -2.717406811588     1.196625867497    -0.879015447101     1.007825032230
         H           -2.721386811588     1.198814867497     0.863016552899     1.007825032230
         H           -3.992630811588    -0.748551132503    -0.008466447101     1.007825032230
         H           -2.576680811588    -1.320945132503     0.880508552899     1.007825032230
         H           -2.572618811588    -1.323179132503    -0.889486447101     1.007825032230
         H           -0.422949811588     1.751811867497    -0.003411447101     1.007825032230
         H           -0.298623811588    -1.315270132503     0.000736552899     1.007825032230
         H            3.113874188412    -0.911133132503     0.009621552899     1.007825032230

  Basis Set: AUG-CC-PVTZ
    Blend: AUG-CC-PVTZ
  Basis Set: (AUG-CC-PVTZ AUX)
    Blend: AUG-CC-PVTZ-JKFIT
	 Reference Energy          =    -343.8542810790431190 [Eh]
	 Singles Energy            =      -0.0000000000000000 [Eh]
	 Same-Spin Energy          =      -0.3409949202028768 [Eh]
	 Opposite-Spin Energy      =      -1.1002276778923439 [Eh]
	 Correlation Energy        =      -1.4412225980952207 [Eh]
	 Total Energy              =    -345.2955036771383561 [Eh]

	 ================> DF-SCS-MP2 Energies <==================
	-----------------------------------------------------------
	 SCS Same-Spin Scale       =       0.3333333333333333 [-]
	 SCS Opposite-Spin Scale   =       1.2000000000000000 [-]
	 SCS Same-Spin Energy      =      -0.1136649734009589 [Eh]
	 SCS Opposite-Spin Energy  =      -1.3202732134708126 [Eh]
	 SCS Correlation Energy    =      -1.4339381868717715 [Eh]
	 SCS Total Energy          =    -345.2882192659149041 [Eh]
	-----------------------------------------------------------

  Dipole Moment: [D]
     X:    -2.0396      Y:    -0.8665      Z:    -0.0038     Total:     2.2160

*** Psi4 exiting successfully. Buy a developer a beer!
