                               Psi4 1.3.2 release

  ==> Input File <==

--------------------------------------------------------------------------
#psi4
#
memory 32 gb

molecule  {
0 1
  O        2.1793270    -1.1884030     0.0070830
  O        2.0147220     1.0703310     0.0037530
  C       -2.3333640     0.6373300    -0.0064140
  C       -2.8929490    -0.7786760    -0.0059160
  C       -0.8407100     0.7390270    -0.0031060
  C        0.0222220    -0.2866530     0.0001530
  C        1.5351997     0.0114889     0.0031926
  H       -2.7101490     1.1874440    -0.8789970
  H       -2.7141290     1.1896330     0.8630350
  H       -3.9853730    -0.7577330    -0.0084480
  H       -2.5694230    -1.3301270     0.8805270
  H       -2.5653610    -1.3323610    -0.8894680
  H       -0.4156920     1.7426300    -0.0033930
  H       -0.2913660    -1.3244520     0.0007550
  H        3.1058109    -0.8713920     0.0095159
units angstrom
no_reorient  #important for SAPT in psi4, default
symmetry c1  #important for SAPT in psi4, default
}

set PROPERTIES_ORIGIN ["COM"]
properties('MP2/aug-cc-pvtz', properties = ['dipole'])
--------------------------------------------------------------------------

    Molecular point group: c1
  Charge       = 0
  Multiplicity = 1
  Basis Set: AUG-CC-PVTZ
    Blend: AUG-CC-PVTZ
  Basis Set: (AUG-CC-PVTZ AUX)
    Blend: AUG-CC-PVTZ-JKFIT

    Orbital Energies [Eh]
    ---------------------

    Doubly Occupied:

       1A    -20.613186     2A    -20.553138     3A    -11.383884
       4A    -11.257578     5A    -11.242179     6A    -11.238437
       7A    -11.224837     8A     -1.475177     9A     -1.382346
      10A     -1.102541    11A     -1.012265    12A     -0.905192
      13A     -0.833655    14A     -0.735986    15A     -0.707903
      16A     -0.702396    17A     -0.638285    18A     -0.628080
      19A     -0.623444    20A     -0.593483    21A     -0.574862
      22A     -0.510974    23A     -0.508612    24A     -0.501014
      25A     -0.500916    26A     -0.450894    27A     -0.375730

  @DF-RHF Final Energy:  -343.85538966980602

   => Energetics <=

    Nuclear Repulsion Energy =            285.6787508552034183
    One-Electron Energy =               -1034.5142946208852663
    Two-Electron Energy =                 404.9801540958758892
    Total Energy =                       -343.8553896698060157
  Basis Set: (AUG-CC-PVTZ AUX)
    Blend: AUG-CC-PVTZ-RI
    Molecular point group: c1

    Geometry (in Angstrom), charge = 0, multiplicity = 1:

       Center              X                  Y                   Z               Mass
    ------------   -----------------  -----------------  -----------------  -----------------
         O            2.172055636225    -1.193136360238     0.007067449733    15.994914619570
         O            2.007450636225     1.065597639762     0.003737449733    15.994914619570
         C           -2.340635363775     0.632596639762    -0.006429550267    12.000000000000
         C           -2.900220363775    -0.783409360238    -0.005931550267    12.000000000000
         C           -0.847981363775     0.734293639762    -0.003121550267    12.000000000000
         C            0.014950636225    -0.291386360238     0.000137449733    12.000000000000
         C            1.527928336225     0.006755539762     0.003177049733    12.000000000000
         H           -2.717420363775     1.182710639762    -0.879012550267     1.007825032230
         H           -2.721400363775     1.184899639762     0.863019449733     1.007825032230
         H           -3.992644363775    -0.762466360238    -0.008463550267     1.007825032230
         H           -2.576694363775    -1.334860360238     0.880511449733     1.007825032230
         H           -2.572632363775    -1.337094360238    -0.889483550267     1.007825032230
         H           -0.422963363775     1.737896639762    -0.003408550267     1.007825032230
         H           -0.298637363775    -1.329185360238     0.000739449733     1.007825032230
         H            3.098539536225    -0.876125360238     0.009500349733     1.007825032230

  Basis Set: AUG-CC-PVTZ
    Blend: AUG-CC-PVTZ
  Basis Set: (AUG-CC-PVTZ AUX)
    Blend: AUG-CC-PVTZ-JKFIT
	 Reference Energy          =    -343.8553896698060157 [Eh]
	 Singles Energy            =      -0.0000000000000000 [Eh]
	 Same-Spin Energy          =      -0.3396217217210120 [Eh]
	 Opposite-Spin Energy      =      -1.0976502493248512 [Eh]
	 Correlation Energy        =      -1.4372719710458632 [Eh]
	 Total Energy              =    -345.2926616408518612 [Eh]

	 ================> DF-SCS-MP2 Energies <==================
	-----------------------------------------------------------
	 SCS Same-Spin Scale       =       0.3333333333333333 [-]
	 SCS Opposite-Spin Scale   =       1.2000000000000000 [-]
	 SCS Same-Spin Energy      =      -0.1132072405736707 [Eh]
	 SCS Opposite-Spin Energy  =      -1.3171802991898214 [Eh]
	 SCS Correlation Energy    =      -1.4303875397634920 [Eh]
	 SCS Total Energy          =    -345.2857772095695168 [Eh]
	-----------------------------------------------------------

  Dipole Moment: [D]
     X:    -1.3336      Y:    -0.6758      Z:    -0.0025     Total:     1.4950

*** Psi4 exiting successfully. Buy a developer a beer!
