                               Psi4 1.3.2 release

  ==> Input File <==

--------------------------------------------------------------------------
#psi4
#
memory 32 gb

molecule  {
0 1
  O        2.1793270    -1.1884030     0.0070830
  O        2.0147220     1.0703310     0.0037530
  C       -2.3333640     0.6373300    -0.0064140
  C       -2.8929490    -0.7786760    -0.0059160
  C       -0.7858474     0.7827839    -0.0030403
  C        0.0222220    -0.2866530     0.0001530
  C        1.4575435     0.0517157     0.0029187
  H       -2.7101490     1.1874440    -0.8789970
  H       -2.7141290     1.1896330     0.8630350
  H       -3.9853730    -0.7577330    -0.0084480
  H       -2.5694230    -1.3301270     0.8805270
  H       -2.5653610    -1.3323610    -0.8894680
  H       -0.4156920     1.7426300    -0.0033930
  H       -0.2913660    -1.3244520     0.0007550
  H        3.1211320    -0.9203150     0.0096400
units angstrom
no_reorient  #important for SAPT in psi4, default
symmetry c1  #important for SAPT in psi4, default
}

set PROPERTIES_ORIGIN ["COM"]
properties('MP2/aug-cc-pvtz', properties = ['dipole'])
--------------------------------------------------------------------------

    Molecular point group: c1
  Charge       = 0
  Multiplicity = 1
  Basis Set: AUG-CC-PVTZ
    Blend: AUG-CC-PVTZ
  Basis Set: (AUG-CC-PVTZ AUX)
    Blend: AUG-CC-PVTZ-JKFIT

    Orbital Energies [Eh]
    ---------------------

    Doubly Occupied:

       1A    -20.587607     2A    -20.553778     3A    -11.380920
       4A    -11.266518     5A    -11.249326     6A    -11.243691
       7A    -11.229383     8A     -1.457991     9A     -1.351145
      10A     -1.108822    11A     -1.024890    12A     -0.909810
      13A     -0.828002    14A     -0.748333    15A     -0.699398
      16A     -0.696066    17A     -0.628739    18A     -0.616449
      19A     -0.615572    20A     -0.605047    21A     -0.575902
      22A     -0.517560    23A     -0.512741    24A     -0.502096
      25A     -0.490859    26A     -0.451310    27A     -0.386339

  @DF-RHF Final Energy:  -343.84924450104734

   => Energetics <=

    Nuclear Repulsion Energy =            285.4275804876556890
    One-Electron Energy =               -1034.0770641870860800
    Two-Electron Energy =                 404.8002391983831103
    Total Energy =                       -343.8492445010473375
  Basis Set: (AUG-CC-PVTZ AUX)
    Blend: AUG-CC-PVTZ-RI
    Molecular point group: c1

    Geometry (in Angstrom), charge = 0, multiplicity = 1:

       Center              X                  Y                   Z               Mass
    ------------   -----------------  -----------------  -----------------  -----------------
         O            2.174635105941    -1.202716323271     0.007091170586    15.994914619570
         O            2.010030105941     1.056017676729     0.003761170586    15.994914619570
         C           -2.338055894059     0.623016676729    -0.006405829414    12.000000000000
         C           -2.897640894059    -0.792989323271    -0.005907829414    12.000000000000
         C           -0.790539294059     0.768470576729    -0.003032129414    12.000000000000
         C            0.017530105941    -0.300966323271     0.000161170586    12.000000000000
         C            1.452851605941     0.037402376729     0.002926870586    12.000000000000
         H           -2.714840894059     1.173130676729    -0.878988829414     1.007825032230
         H           -2.718820894059     1.175319676729     0.863043170586     1.007825032230
         H           -3.990064894059    -0.772046323271    -0.008439829414     1.007825032230
         H           -2.574114894059    -1.344440323271     0.880535170586     1.007825032230
         H           -2.570052894059    -1.346674323271    -0.889459829414     1.007825032230
         H           -0.420383894059     1.728316676729    -0.003384829414     1.007825032230
         H           -0.296057894059    -1.338765323271     0.000763170586     1.007825032230
         H            3.116440105941    -0.934628323271     0.009648170586     1.007825032230

  Basis Set: AUG-CC-PVTZ
    Blend: AUG-CC-PVTZ
  Basis Set: (AUG-CC-PVTZ AUX)
    Blend: AUG-CC-PVTZ-JKFIT
	 Reference Energy          =    -343.8492445010473375 [Eh]
	 Singles Energy            =      -0.0000000000000000 [Eh]
	 Same-Spin Energy          =      -0.3396941510128275 [Eh]
	 Opposite-Spin Energy      =      -1.0984786069056198 [Eh]
	 Correlation Energy        =      -1.4381727579184473 [Eh]
	 Total Energy              =    -345.2874172589657746 [Eh]

	 ================> DF-SCS-MP2 Energies <==================
	-----------------------------------------------------------
	 SCS Same-Spin Scale       =       0.3333333333333333 [-]
	 SCS Opposite-Spin Scale   =       1.2000000000000000 [-]
	 SCS Same-Spin Energy      =      -0.1132313836709425 [Eh]
	 SCS Opposite-Spin Energy  =      -1.3181743282867437 [Eh]
	 SCS Correlation Energy    =      -1.4314057119576862 [Eh]
	 SCS Total Energy          =    -345.2806502130050035 [Eh]
	-----------------------------------------------------------

  Dipole Moment: [D]
     X:    -1.9748      Y:    -0.3071      Z:    -0.0046     Total:     1.9985

*** Psi4 exiting successfully. Buy a developer a beer!
