                               Psi4 1.3.2 release

  ==> Input File <==

--------------------------------------------------------------------------
#psi4
#
memory 32 gb

molecule  {
0 1
  O        2.1793270    -1.1884030     0.0070830
  O        2.0147220     1.0703310     0.0037530
  C       -2.3333640     0.6373300    -0.0064140
  C       -2.8929490    -0.7786760    -0.0059160
  C       -0.8407100     0.7390270    -0.0031060
  C        0.0222220    -0.2866530     0.0001530
  C        1.5769731    -0.1948887     0.0036440
  H       -2.7101490     1.1874440    -0.8789970
  H       -2.7141290     1.1896330     0.8630350
  H       -3.9853730    -0.7577330    -0.0084480
  H       -2.5694230    -1.3301270     0.8805270
  H       -2.5653610    -1.3323610    -0.8894680
  H       -0.4156920     1.7426300    -0.0033930
  H       -0.2913660    -1.3244520     0.0007550
  H        3.1211320    -0.9203150     0.0096400
units angstrom
no_reorient  #important for SAPT in psi4, default
symmetry c1  #important for SAPT in psi4, default
}

set PROPERTIES_ORIGIN ["COM"]
properties('MP2/aug-cc-pvtz', properties = ['dipole'])
--------------------------------------------------------------------------

    Molecular point group: c1
  Charge       = 0
  Multiplicity = 1
  Basis Set: AUG-CC-PVTZ
    Blend: AUG-CC-PVTZ
  Basis Set: (AUG-CC-PVTZ AUX)
    Blend: AUG-CC-PVTZ-JKFIT

    Orbital Energies [Eh]
    ---------------------

    Doubly Occupied:

       1A    -20.669394     2A    -20.509817     3A    -11.391960
       4A    -11.256638     5A    -11.241003     6A    -11.238962
       7A    -11.223225     8A     -1.579730     9A     -1.280856
      10A     -1.097924    11A     -1.011007    12A     -0.937816
      13A     -0.873767    14A     -0.775214    15A     -0.735252
      16A     -0.700018    17A     -0.688612    18A     -0.622953
      19A     -0.608115    20A     -0.593550    21A     -0.531368
      22A     -0.509063    23A     -0.505474    24A     -0.486105
      25A     -0.445606    26A     -0.419004    27A     -0.366926

  @DF-RHF Final Energy:  -343.79763390275872

   => Energetics <=

    Nuclear Repulsion Energy =            285.4526702564439233
    One-Electron Energy =               -1033.9018886508329160
    Two-Electron Energy =                 404.6515844916302171
    Total Energy =                       -343.7976339027587187
  Basis Set: (AUG-CC-PVTZ AUX)
    Blend: AUG-CC-PVTZ-RI
    Molecular point group: c1

    Geometry (in Angstrom), charge = 0, multiplicity = 1:

       Center              X                  Y                   Z               Mass
    ------------   -----------------  -----------------  -----------------  -----------------
         O            2.166891126071    -1.167891225894     0.007012060063    15.994914619570
         O            2.002286126071     1.090842774106     0.003682060063    15.994914619570
         C           -2.345799873929     0.657841774106    -0.006484939937    12.000000000000
         C           -2.905384873929    -0.758164225894    -0.005986939937    12.000000000000
         C           -0.853145873929     0.759538774106    -0.003176939937    12.000000000000
         C            0.009786126071    -0.266141225894     0.000082060063    12.000000000000
         C            1.564537226071    -0.174376925894     0.003573060063    12.000000000000
         H           -2.722584873929     1.207955774106    -0.879067939937     1.007825032230
         H           -2.726564873929     1.210144774106     0.862964060063     1.007825032230
         H           -3.997808873929    -0.737221225894    -0.008518939937     1.007825032230
         H           -2.581858873929    -1.309615225894     0.880456060063     1.007825032230
         H           -2.577796873929    -1.311849225894    -0.889538939937     1.007825032230
         H           -0.428127873929     1.763141774106    -0.003463939937     1.007825032230
         H           -0.303801873929    -1.303940225894     0.000684060063     1.007825032230
         H            3.108696126071    -0.899803225894     0.009569060063     1.007825032230

  Basis Set: AUG-CC-PVTZ
    Blend: AUG-CC-PVTZ
  Basis Set: (AUG-CC-PVTZ AUX)
    Blend: AUG-CC-PVTZ-JKFIT
	 Reference Energy          =    -343.7976339027587187 [Eh]
	 Singles Energy            =      -0.0000000000000000 [Eh]
	 Same-Spin Energy          =      -0.3415235293440535 [Eh]
	 Opposite-Spin Energy      =      -1.1005615720108111 [Eh]
	 Correlation Energy        =      -1.4420851013548646 [Eh]
	 Total Energy              =    -345.2397190041135673 [Eh]

	 ================> DF-SCS-MP2 Energies <==================
	-----------------------------------------------------------
	 SCS Same-Spin Scale       =       0.3333333333333333 [-]
	 SCS Opposite-Spin Scale   =       1.2000000000000000 [-]
	 SCS Same-Spin Energy      =      -0.1138411764480178 [Eh]
	 SCS Opposite-Spin Energy  =      -1.3206738864129732 [Eh]
	 SCS Correlation Energy    =      -1.4345150628609911 [Eh]
	 SCS Total Energy          =    -345.2321489656197286 [Eh]
	-----------------------------------------------------------

  Dipole Moment: [D]
     X:    -0.8583      Y:    -2.4307      Z:     0.0014     Total:     2.5777

*** Psi4 exiting successfully. Buy a developer a beer!
