                               Psi4 1.3.2 release

  ==> Input File <==

--------------------------------------------------------------------------
#psi4
#
memory 32 gb

molecule  {
0 1
  O        2.1995434    -1.1759033     0.0071433
  O        2.0337358     1.0607150     0.0038354
  C       -2.3333640     0.6373300    -0.0064140
  C       -2.8929490    -0.7786760    -0.0059160
  C       -0.8407100     0.7390270    -0.0031060
  C        0.0222220    -0.2866530     0.0001530
  C        1.4732850    -0.0238670     0.0030520
  H       -2.7101490     1.1874440    -0.8789970
  H       -2.7141290     1.1896330     0.8630350
  H       -3.9853730    -0.7577330    -0.0084480
  H       -2.5694230    -1.3301270     0.8805270
  H       -2.5653610    -1.3323610    -0.8894680
  H       -0.4156920     1.7426300    -0.0033930
  H       -0.2913660    -1.3244520     0.0007550
  H        3.1211320    -0.9203150     0.0096400
units angstrom
no_reorient  #important for SAPT in psi4, default
symmetry c1  #important for SAPT in psi4, default
}

set PROPERTIES_ORIGIN ["COM"]
properties('MP2/aug-cc-pvtz', properties = ['dipole'])
--------------------------------------------------------------------------

    Molecular point group: c1
  Charge       = 0
  Multiplicity = 1
  Basis Set: AUG-CC-PVTZ
    Blend: AUG-CC-PVTZ
  Basis Set: (AUG-CC-PVTZ AUX)
    Blend: AUG-CC-PVTZ-JKFIT

    Orbital Energies [Eh]
    ---------------------

    Doubly Occupied:

       1A    -20.605408     2A    -20.538588     3A    -11.385427
       4A    -11.269485     5A    -11.248364     6A    -11.242537
       7A    -11.229327     8A     -1.455118     9A     -1.346407
      10A     -1.112853    11A     -1.025649    12A     -0.918111
      13A     -0.845596    14A     -0.741291    15A     -0.707939
      16A     -0.693205    17A     -0.632490    18A     -0.620209
      19A     -0.615518    20A     -0.602960    21A     -0.569279
      22A     -0.515782    23A     -0.513454    24A     -0.506028
      25A     -0.480888    26A     -0.450066    27A     -0.382025

  @DF-RHF Final Energy:  -343.86143698265664

   => Energetics <=

    Nuclear Repulsion Energy =            285.4032161086983592
    One-Electron Energy =               -1034.0213019412706217
    Two-Electron Energy =                 404.7566488499155639
    Total Energy =                       -343.8614369826566417
  Basis Set: (AUG-CC-PVTZ AUX)
    Blend: AUG-CC-PVTZ-RI
    Molecular point group: c1

    Geometry (in Angstrom), charge = 0, multiplicity = 1:

       Center              X                  Y                   Z               Mass
    ------------   -----------------  -----------------  -----------------  -----------------
         O            2.193272029058    -1.176364379285     0.007120550054    15.994914619570
         O            2.027464429058     1.060253920715     0.003812650054    15.994914619570
         C           -2.339635370942     0.636868920715    -0.006436749946    12.000000000000
         C           -2.899220370942    -0.779137079285    -0.005938749946    12.000000000000
         C           -0.846981370942     0.738565920715    -0.003128749946    12.000000000000
         C            0.015950629058    -0.287114079285     0.000130250054    12.000000000000
         C            1.467013629058    -0.024328079285     0.003029250054    12.000000000000
         H           -2.716420370942     1.186982920715    -0.879019749946     1.007825032230
         H           -2.720400370942     1.189171920715     0.863012250054     1.007825032230
         H           -3.991644370942    -0.758194079285    -0.008470749946     1.007825032230
         H           -2.575694370942    -1.330588079285     0.880504250054     1.007825032230
         H           -2.571632370942    -1.332822079285    -0.889490749946     1.007825032230
         H           -0.421963370942     1.742168920715    -0.003415749946     1.007825032230
         H           -0.297637370942    -1.324913079285     0.000732250054     1.007825032230
         H            3.114860629058    -0.920776079285     0.009617250054     1.007825032230

  Basis Set: AUG-CC-PVTZ
    Blend: AUG-CC-PVTZ
  Basis Set: (AUG-CC-PVTZ AUX)
    Blend: AUG-CC-PVTZ-JKFIT
	 Reference Energy          =    -343.8614369826566417 [Eh]
	 Singles Energy            =      -0.0000000000000000 [Eh]
	 Same-Spin Energy          =      -0.3401534251879471 [Eh]
	 Opposite-Spin Energy      =      -1.0983566762590824 [Eh]
	 Correlation Energy        =      -1.4385101014470294 [Eh]
	 Total Energy              =    -345.2999470841036782 [Eh]

	 ================> DF-SCS-MP2 Energies <==================
	-----------------------------------------------------------
	 SCS Same-Spin Scale       =       0.3333333333333333 [-]
	 SCS Opposite-Spin Scale   =       1.2000000000000000 [-]
	 SCS Same-Spin Energy      =      -0.1133844750626490 [Eh]
	 SCS Opposite-Spin Energy  =      -1.3180280115108989 [Eh]
	 SCS Correlation Energy    =      -1.4314124865735478 [Eh]
	 SCS Total Energy          =    -345.2928494692301911 [Eh]
	-----------------------------------------------------------

  Dipole Moment: [D]
     X:    -1.9513      Y:    -0.9029      Z:    -0.0038     Total:     2.1500

*** Psi4 exiting successfully. Buy a developer a beer!
