                               Psi4 1.4a3.dev225

  ==> Input File <==

--------------------------------------------------------------------------
#psi4
#
memory 32 gb

molecule  {
0 1
  O       -2.3109350    -1.1403470    -0.0000450
  O       -2.1116090     1.1175510    -0.0000760
  C        2.2339710     0.6185460     0.0000510
  C        2.7736950    -0.8069580     0.0000920
  C        0.7414440     0.7423990     0.0000070
  C       -0.1707184    -0.3090879     0.0000008
  C       -1.5863340     0.0145930    -0.0000450
  H        2.6208160     1.1641270     0.8715420
  H        2.6208650     1.1640950    -0.8714390
  H        3.8667590    -0.8011940     0.0001220
  H        2.4401730    -1.3549900    -0.8853120
  H        2.4401230    -1.3549580     0.8854960
  H        0.3318170     1.7528370    -0.0000240
  H        0.1592700    -1.3142900     0.0000290
  H       -3.2484020    -0.8568190    -0.0000760
units angstrom
no_reorient  #important for SAPT in psi4, default
symmetry c1  #important for SAPT in psi4, default
}

set PROPERTIES_ORIGIN ["COM"]
properties('MP2/aug-cc-pvtz', properties = ['dipole'])
--------------------------------------------------------------------------

    Molecular point group: c1
  Charge       = 0
  Multiplicity = 1
  Basis Set: AUG-CC-PVTZ
    Blend: AUG-CC-PVTZ
  Basis Set: (AUG-CC-PVTZ AUX)
    Blend: AUG-CC-PVTZ-JKFIT

    Orbital Energies [Eh]
    ---------------------

    Doubly Occupied:

       1A    -20.606688     2A    -20.538057     3A    -11.383091
       4A    -11.279786     5A    -11.250530     6A    -11.242019
       7A    -11.230515     8A     -1.450274     9A     -1.345439
      10A     -1.106714    11A     -1.024625    12A     -0.919608
      13A     -0.839302    14A     -0.742889    15A     -0.705298
      16A     -0.692245    17A     -0.632602    18A     -0.619519
      19A     -0.615019    20A     -0.595361    21A     -0.574269
      22A     -0.516377    23A     -0.513409    24A     -0.508279
      25A     -0.480786    26A     -0.451186    27A     -0.371222

  @DF-RHF Final Energy:  -343.85422053503004

   => Energetics <=

    Nuclear Repulsion Energy =            284.9358825966148174
    One-Electron Energy =               -1033.1099908976098050
    Two-Electron Energy =                 404.3198877659648929
    Total Energy =                       -343.8542205350300378
  Basis Set: (AUG-CC-PVTZ AUX)
    Blend: AUG-CC-PVTZ-RI
    Molecular point group: c1

    Geometry (in Angstrom), charge = 0, multiplicity = 1:

       Center              X                  Y                   Z               Mass
    ------------   -----------------  -----------------  -----------------  -----------------
         O           -2.195853184317    -1.151696686890    -0.000041750306    15.994914619570
         O           -1.996527184317     1.106201313110    -0.000072750306    15.994914619570
         C            2.349052815683     0.607196313110     0.000054249694    12.000000000000
         C            2.888776815683    -0.818307686890     0.000095249694    12.000000000000
         C            0.856525815683     0.731049313110     0.000010249694    12.000000000000
         C           -0.055636584317    -0.320437586890     0.000004049694    12.000000000000
         C           -1.471252184317     0.003243313110    -0.000041750306    12.000000000000
         H            2.735897815683     1.152777313110     0.871545249694     1.007825032230
         H            2.735946815683     1.152745313110    -0.871435750306     1.007825032230
         H            3.981840815683    -0.812543686890     0.000125249694     1.007825032230
         H            2.555254815683    -1.366339686890    -0.885308750306     1.007825032230
         H            2.555204815683    -1.366307686890     0.885499249694     1.007825032230
         H            0.446898815683     1.741487313110    -0.000020750306     1.007825032230
         H            0.274351815683    -1.325639686890     0.000032249694     1.007825032230
         H           -3.133320184317    -0.868168686890    -0.000072750306     1.007825032230

  Basis Set: AUG-CC-PVTZ
    Blend: AUG-CC-PVTZ
  Basis Set: (AUG-CC-PVTZ AUX)
    Blend: AUG-CC-PVTZ-JKFIT
	 Reference Energy          =    -343.8542205350300378 [Eh]
	 Singles Energy            =      -0.0000000000000000 [Eh]
	 Same-Spin Energy          =      -0.3412656785044131 [Eh]
	 Opposite-Spin Energy      =      -1.1007211081401933 [Eh]
	 Correlation Energy        =      -1.4419867866446063 [Eh]
	 Total Energy              =    -345.2962073216746717 [Eh]

	 ================> DF-SCS-MP2 Energies <==================
	-----------------------------------------------------------
	 SCS Same-Spin Scale       =       0.3333333333333333 [-]
	 SCS Opposite-Spin Scale   =       1.2000000000000000 [-]
	 SCS Same-Spin Energy      =      -0.1137552261681377 [Eh]
	 SCS Opposite-Spin Energy  =      -1.3208653297682320 [Eh]
	 SCS Correlation Energy    =      -1.4346205559363696 [Eh]
	 SCS Total Energy          =    -345.2888410909664003 [Eh]
	-----------------------------------------------------------

  Dipole Moment: [D]
     X:     1.9497      Y:    -0.9310      Z:     0.0001     Total:     2.1605

*** Psi4 exiting successfully. Buy a developer a beer!
