                               Psi4 1.3.2 release

  ==> Input File <==

--------------------------------------------------------------------------
#psi4
#
memory 32 gb

molecule  {
0 1
  O        2.1793270    -1.1884030     0.0070830
  O        2.0147220     1.0703310     0.0037530
  C       -2.3333640     0.6373300    -0.0064140
  C       -2.8929490    -0.7786760    -0.0059160
  C       -1.0402469     0.7254322    -0.0035482
  C        0.0222220    -0.2866530     0.0001530
  C        1.4732850    -0.0238670     0.0030520
  H       -2.7101490     1.1874440    -0.8789970
  H       -2.7141290     1.1896330     0.8630350
  H       -3.9853730    -0.7577330    -0.0084480
  H       -2.5694230    -1.3301270     0.8805270
  H       -2.5653610    -1.3323610    -0.8894680
  H       -0.4156920     1.7426300    -0.0033930
  H       -0.2913660    -1.3244520     0.0007550
  H        3.1211320    -0.9203150     0.0096400
units angstrom
no_reorient  #important for SAPT in psi4, default
symmetry c1  #important for SAPT in psi4, default
}

set PROPERTIES_ORIGIN ["COM"]
properties('MP2/aug-cc-pvtz', properties = ['dipole'])
--------------------------------------------------------------------------

    Molecular point group: c1
  Charge       = 0
  Multiplicity = 1
  Basis Set: AUG-CC-PVTZ
    Blend: AUG-CC-PVTZ
  Basis Set: (AUG-CC-PVTZ AUX)
    Blend: AUG-CC-PVTZ-JKFIT

    Orbital Energies [Eh]
    ---------------------

    Doubly Occupied:

       1A    -20.607041     2A    -20.535401     3A    -11.384347
       4A    -11.289203     5A    -11.247845     6A    -11.243381
       7A    -11.234093     8A     -1.449058     9A     -1.343780
      10A     -1.146069    11A     -1.008808    12A     -0.939520
      13A     -0.837208    14A     -0.728504    15A     -0.703498
      16A     -0.685056    17A     -0.652577    18A     -0.638866
      19A     -0.618400    20A     -0.594361    21A     -0.571697
      22A     -0.538665    23A     -0.529632    24A     -0.478291
      25A     -0.469351    26A     -0.446822    27A     -0.347179

  @DF-RHF Final Energy:  -343.79537912990025

   => Energetics <=

    Nuclear Repulsion Energy =            285.3744268195475797
    One-Electron Energy =               -1033.8023058973574280
    Two-Electron Energy =                 404.6324999479095936
    Total Energy =                       -343.7953791299002546
  Basis Set: (AUG-CC-PVTZ AUX)
    Blend: AUG-CC-PVTZ-RI
    Molecular point group: c1

    Geometry (in Angstrom), charge = 0, multiplicity = 1:

       Center              X                  Y                   Z               Mass
    ------------   -----------------  -----------------  -----------------  -----------------
         O            2.203259058547    -1.186772554508     0.007136099030    15.994914619570
         O            2.038654058547     1.071961445492     0.003806099030    15.994914619570
         C           -2.309431941453     0.638960445492    -0.006360900970    12.000000000000
         C           -2.869016941453    -0.777045554508    -0.005862900970    12.000000000000
         C           -1.016314841453     0.727062645492    -0.003495100970    12.000000000000
         C            0.046154058547    -0.285022554508     0.000206099030    12.000000000000
         C            1.497217058547    -0.022236554508     0.003105099030    12.000000000000
         H           -2.686216941453     1.189074445492    -0.878943900970     1.007825032230
         H           -2.690196941453     1.191263445492     0.863088099030     1.007825032230
         H           -3.961440941453    -0.756102554508    -0.008394900970     1.007825032230
         H           -2.545490941453    -1.328496554508     0.880580099030     1.007825032230
         H           -2.541428941453    -1.330730554508    -0.889414900970     1.007825032230
         H           -0.391759941453     1.744260445492    -0.003339900970     1.007825032230
         H           -0.267433941453    -1.322821554508     0.000808099030     1.007825032230
         H            3.145064058547    -0.918684554508     0.009693099030     1.007825032230

  Basis Set: AUG-CC-PVTZ
    Blend: AUG-CC-PVTZ
  Basis Set: (AUG-CC-PVTZ AUX)
    Blend: AUG-CC-PVTZ-JKFIT
	 Reference Energy          =    -343.7953791299002546 [Eh]
	 Singles Energy            =      -0.0000000000000000 [Eh]
	 Same-Spin Energy          =      -0.3456082385720769 [Eh]
	 Opposite-Spin Energy      =      -1.1064965961074096 [Eh]
	 Correlation Energy        =      -1.4521048346794865 [Eh]
	 Total Energy              =    -345.2474839645797147 [Eh]

	 ================> DF-SCS-MP2 Energies <==================
	-----------------------------------------------------------
	 SCS Same-Spin Scale       =       0.3333333333333333 [-]
	 SCS Opposite-Spin Scale   =       1.2000000000000000 [-]
	 SCS Same-Spin Energy      =      -0.1152027461906923 [Eh]
	 SCS Opposite-Spin Energy  =      -1.3277959153288914 [Eh]
	 SCS Correlation Energy    =      -1.4429986615195838 [Eh]
	 SCS Total Energy          =    -345.2383777914198504 [Eh]
	-----------------------------------------------------------

  Dipole Moment: [D]
     X:    -2.2960      Y:    -0.8668      Z:    -0.0045     Total:     2.4542

*** Psi4 exiting successfully. Buy a developer a beer!
