                               Psi4 1.3.2 release

  ==> Input File <==

--------------------------------------------------------------------------
#psi4
#
memory 32 gb

molecule  {
0 1
  O        2.1793270    -1.1884030     0.0070830
  O        2.0147220     1.0703310     0.0037530
  C       -2.3333640     0.6373300    -0.0064140
  C       -2.8929490    -0.7786760    -0.0059160
  C       -0.8407100     0.7390270    -0.0031060
  C        0.0222220    -0.2866530     0.0001530
  C        1.4937165    -0.0117221     0.0030977
  H       -2.7101490     1.1874440    -0.8789970
  H       -2.7141290     1.1896330     0.8630350
  H       -3.9853730    -0.7577330    -0.0084480
  H       -2.5694230    -1.3301270     0.8805270
  H       -2.5653610    -1.3323610    -0.8894680
  H       -0.4156920     1.7426300    -0.0033930
  H       -0.2913660    -1.3244520     0.0007550
  H        3.1163099    -0.9039190     0.0095994
units angstrom
no_reorient  #important for SAPT in psi4, default
symmetry c1  #important for SAPT in psi4, default
}

set PROPERTIES_ORIGIN ["COM"]
properties('MP2/aug-cc-pvtz', properties = ['dipole'])
--------------------------------------------------------------------------

    Molecular point group: c1
  Charge       = 0
  Multiplicity = 1
  Basis Set: AUG-CC-PVTZ
    Blend: AUG-CC-PVTZ
  Basis Set: (AUG-CC-PVTZ AUX)
    Blend: AUG-CC-PVTZ-JKFIT

    Orbital Energies [Eh]
    ---------------------

    Doubly Occupied:

       1A    -20.611313     2A    -20.544456     3A    -11.384950
       4A    -11.264258     5A    -11.245598     6A    -11.239983
       7A    -11.227308     8A     -1.459268     9A     -1.360281
      10A     -1.108336    11A     -1.020091    12A     -0.912586
      13A     -0.839636    14A     -0.737523    15A     -0.703629
      16A     -0.699022    17A     -0.632124    18A     -0.622967
      19A     -0.620012    20A     -0.598395    21A     -0.571468
      22A     -0.513572    23A     -0.510863    24A     -0.503517
      25A     -0.488700    26A     -0.452103    27A     -0.379219

  @DF-RHF Final Energy:  -343.86080980296663

   => Energetics <=

    Nuclear Repulsion Energy =            285.5175770993796505
    One-Electron Energy =               -1034.2544173342087106
    Two-Electron Energy =                 404.8760304318624321
    Total Energy =                       -343.8608098029666280
  Basis Set: (AUG-CC-PVTZ AUX)
    Blend: AUG-CC-PVTZ-RI
    Molecular point group: c1

    Geometry (in Angstrom), charge = 0, multiplicity = 1:

       Center              X                  Y                   Z               Mass
    ------------   -----------------  -----------------  -----------------  -----------------
         O            2.176925255558    -1.190024856335     0.007077990673    15.994914619570
         O            2.012320255558     1.068709143665     0.003747990673    15.994914619570
         C           -2.335765744442     0.635708143665    -0.006419009327    12.000000000000
         C           -2.895350744442    -0.780297856335    -0.005921009327    12.000000000000
         C           -0.843111744442     0.737405143665    -0.003111009327    12.000000000000
         C            0.019820255558    -0.288274856335     0.000147990673    12.000000000000
         C            1.491314755558    -0.013343956335     0.003092690673    12.000000000000
         H           -2.712550744442     1.185822143665    -0.879002009327     1.007825032230
         H           -2.716530744442     1.188011143665     0.863029990673     1.007825032230
         H           -3.987774744442    -0.759354856335    -0.008453009327     1.007825032230
         H           -2.571824744442    -1.331748856335     0.880521990673     1.007825032230
         H           -2.567762744442    -1.333982856335    -0.889473009327     1.007825032230
         H           -0.418093744442     1.741008143665    -0.003398009327     1.007825032230
         H           -0.293767744442    -1.326073856335     0.000749990673     1.007825032230
         H            3.113908155558    -0.905540856335     0.009594390673     1.007825032230

  Basis Set: AUG-CC-PVTZ
    Blend: AUG-CC-PVTZ
  Basis Set: (AUG-CC-PVTZ AUX)
    Blend: AUG-CC-PVTZ-JKFIT
	 Reference Energy          =    -343.8608098029666280 [Eh]
	 Singles Energy            =      -0.0000000000000000 [Eh]
	 Same-Spin Energy          =      -0.3402362239351598 [Eh]
	 Opposite-Spin Energy      =      -1.0987097230070142 [Eh]
	 Correlation Energy        =      -1.4389459469421739 [Eh]
	 Total Energy              =    -345.2997557499087975 [Eh]

	 ================> DF-SCS-MP2 Energies <==================
	-----------------------------------------------------------
	 SCS Same-Spin Scale       =       0.3333333333333333 [-]
	 SCS Opposite-Spin Scale   =       1.2000000000000000 [-]
	 SCS Same-Spin Energy      =      -0.1134120746450533 [Eh]
	 SCS Opposite-Spin Energy  =      -1.3184516676084170 [Eh]
	 SCS Correlation Energy    =      -1.4318637422534704 [Eh]
	 SCS Total Energy          =    -345.2926735452201115 [Eh]
	-----------------------------------------------------------

  Dipole Moment: [D]
     X:    -1.6610      Y:    -0.8412      Z:    -0.0031     Total:     1.8619

*** Psi4 exiting successfully. Buy a developer a beer!
