                               Psi4 1.3.2 release

  ==> Input File <==

--------------------------------------------------------------------------
#psi4
#
memory 32 gb

molecule  {
0 1
  O        2.1793270    -1.1884030     0.0070830
  O        2.0147220     1.0703310     0.0037530
  C       -2.3333640     0.6373300    -0.0064140
  C       -2.8929490    -0.7786760    -0.0059160
  C       -0.8407100     0.7390270    -0.0031060
  C        0.0222220    -0.2866530     0.0001530
  C        1.3845851    -0.2031219     0.0029372
  H       -2.7101490     1.1874440    -0.8789970
  H       -2.7141290     1.1896330     0.8630350
  H       -3.9853730    -0.7577330    -0.0084480
  H       -2.5694230    -1.3301270     0.8805270
  H       -2.5653610    -1.3323610    -0.8894680
  H       -0.4156920     1.7426300    -0.0033930
  H       -0.2913660    -1.3244520     0.0007550
  H        3.1211320    -0.9203150     0.0096400
units angstrom
no_reorient  #important for SAPT in psi4, default
symmetry c1  #important for SAPT in psi4, default
}

set PROPERTIES_ORIGIN ["COM"]
properties('MP2/aug-cc-pvtz', properties = ['dipole'])
--------------------------------------------------------------------------

    Molecular point group: c1
  Charge       = 0
  Multiplicity = 1
  Basis Set: AUG-CC-PVTZ
    Blend: AUG-CC-PVTZ
  Basis Set: (AUG-CC-PVTZ AUX)
    Blend: AUG-CC-PVTZ-JKFIT

    Orbital Energies [Eh]
    ---------------------

    Doubly Occupied:

       1A    -20.634428     2A    -20.494688     3A    -11.387648
       4A    -11.289464     5A    -11.257480     6A    -11.239538
       7A    -11.235077     8A     -1.487974     9A     -1.231644
      10A     -1.124716    11A     -1.045567    12A     -0.943179
      13A     -0.870838    14A     -0.776683    15A     -0.717909
      16A     -0.694851    17A     -0.644663    18A     -0.634271
      19A     -0.624182    20A     -0.600581    21A     -0.525779
      22A     -0.522550    23A     -0.521977    24A     -0.490622
      25A     -0.440461    26A     -0.409380    27A     -0.370104

  @DF-RHF Final Energy:  -343.79515492490407

   => Energetics <=

    Nuclear Repulsion Energy =            285.3835207384228738
    One-Electron Energy =               -1033.9248454263788517
    Two-Electron Energy =                 404.7461697630518529
    Total Energy =                       -343.7951549249040681
  Basis Set: (AUG-CC-PVTZ AUX)
    Blend: AUG-CC-PVTZ-RI
    Molecular point group: c1

    Geometry (in Angstrom), charge = 0, multiplicity = 1:

       Center              X                  Y                   Z               Mass
    ------------   -----------------  -----------------  -----------------  -----------------
         O            2.189965588247    -1.166903759618     0.007096831618    15.994914619570
         O            2.025360588247     1.091830240382     0.003766831618    15.994914619570
         C           -2.322725411753     0.658829240382    -0.006400168382    12.000000000000
         C           -2.882310411753    -0.757176759618    -0.005902168382    12.000000000000
         C           -0.830071411753     0.760526240382    -0.003092168382    12.000000000000
         C            0.032860588247    -0.265153759618     0.000166831618    12.000000000000
         C            1.395223688247    -0.181622659618     0.002951031618    12.000000000000
         H           -2.699510411753     1.208943240382    -0.878983168382     1.007825032230
         H           -2.703490411753     1.211132240382     0.863048831618     1.007825032230
         H           -3.974734411753    -0.736233759618    -0.008434168382     1.007825032230
         H           -2.558784411753    -1.308627759618     0.880540831618     1.007825032230
         H           -2.554722411753    -1.310861759618    -0.889454168382     1.007825032230
         H           -0.405053411753     1.764129240382    -0.003379168382     1.007825032230
         H           -0.280727411753    -1.302952759618     0.000768831618     1.007825032230
         H            3.131770588247    -0.898815759618     0.009653831618     1.007825032230

  Basis Set: AUG-CC-PVTZ
    Blend: AUG-CC-PVTZ
  Basis Set: (AUG-CC-PVTZ AUX)
    Blend: AUG-CC-PVTZ-JKFIT
	 Reference Energy          =    -343.7951549249040681 [Eh]
	 Singles Energy            =      -0.0000000000000000 [Eh]
	 Same-Spin Energy          =      -0.3444489655348605 [Eh]
	 Opposite-Spin Energy      =      -1.1057093578743316 [Eh]
	 Correlation Energy        =      -1.4501583234091919 [Eh]
	 Total Energy              =    -345.2453132483132663 [Eh]

	 ================> DF-SCS-MP2 Energies <==================
	-----------------------------------------------------------
	 SCS Same-Spin Scale       =       0.3333333333333333 [-]
	 SCS Opposite-Spin Scale   =       1.2000000000000000 [-]
	 SCS Same-Spin Energy      =      -0.1148163218449535 [Eh]
	 SCS Opposite-Spin Energy  =      -1.3268512294491979 [Eh]
	 SCS Correlation Energy    =      -1.4416675512941515 [Eh]
	 SCS Total Energy          =    -345.2368224761981992 [Eh]
	-----------------------------------------------------------

  Dipole Moment: [D]
     X:    -2.4365      Y:    -2.0322      Z:    -0.0032     Total:     3.1727

*** Psi4 exiting successfully. Buy a developer a beer!
