                               Psi4 1.3.2 release

  ==> Input File <==

--------------------------------------------------------------------------
#psi4
#
memory 32 gb

molecule  {
0 1
  O        2.1793270    -1.1884030     0.0070830
  O        2.0147220     1.0703310     0.0037530
  C       -2.3333640     0.6373300    -0.0064140
  C       -2.8929490    -0.7786760    -0.0059160
  C       -0.8584792     0.7238105    -0.0031259
  C        0.0222220    -0.2866530     0.0001530
  C        1.4776502    -0.0492316     0.0030947
  H       -2.7101490     1.1874440    -0.8789970
  H       -2.7141290     1.1896330     0.8630350
  H       -3.9853730    -0.7577330    -0.0084480
  H       -2.5694230    -1.3301270     0.8805270
  H       -2.5653610    -1.3323610    -0.8894680
  H       -0.4156920     1.7426300    -0.0033930
  H       -0.2913660    -1.3244520     0.0007550
  H        3.1211320    -0.9203150     0.0096400
units angstrom
no_reorient  #important for SAPT in psi4, default
symmetry c1  #important for SAPT in psi4, default
}

set PROPERTIES_ORIGIN ["COM"]
properties('MP2/aug-cc-pvtz', properties = ['dipole'])
--------------------------------------------------------------------------

    Molecular point group: c1
  Charge       = 0
  Multiplicity = 1
  Basis Set: AUG-CC-PVTZ
    Blend: AUG-CC-PVTZ
  Basis Set: (AUG-CC-PVTZ AUX)
    Blend: AUG-CC-PVTZ-JKFIT

    Orbital Energies [Eh]
    ---------------------

    Doubly Occupied:

       1A    -20.617560     2A    -20.535403     3A    -11.387183
       4A    -11.268486     5A    -11.246749     6A    -11.239915
       7A    -11.228362     8A     -1.460706     9A     -1.338601
      10A     -1.113023    11A     -1.024171    12A     -0.918911
      13A     -0.848243    14A     -0.739097    15A     -0.706453
      16A     -0.695469    17A     -0.634127    18A     -0.624518
      19A     -0.616763    20A     -0.599960    21A     -0.564951
      22A     -0.515748    23A     -0.515366    24A     -0.499510
      25A     -0.477338    26A     -0.448106    27A     -0.378880

  @DF-RHF Final Energy:  -343.85730572205307

   => Energetics <=

    Nuclear Repulsion Energy =            285.5046962291982027
    One-Electron Energy =               -1034.2368093173909074
    Two-Electron Energy =                 404.8748073661396347
    Total Energy =                       -343.8573057220530700
  Basis Set: (AUG-CC-PVTZ AUX)
    Blend: AUG-CC-PVTZ-RI
    Molecular point group: c1

    Geometry (in Angstrom), charge = 0, multiplicity = 1:

       Center              X                  Y                   Z               Mass
    ------------   -----------------  -----------------  -----------------  -----------------
         O            2.180934815036    -1.183535895473     0.007080328270    15.994914619570
         O            2.016329815036     1.075198104527     0.003750328270    15.994914619570
         C           -2.331756184964     0.642197104527    -0.006416671730    12.000000000000
         C           -2.891341184964    -0.773808895473    -0.005918671730    12.000000000000
         C           -0.856871384964     0.728677604527    -0.003128571730    12.000000000000
         C            0.023829815036    -0.281785895473     0.000150328270    12.000000000000
         C            1.479258015036    -0.044364495473     0.003092028270    12.000000000000
         H           -2.708541184964     1.192311104527    -0.878999671730     1.007825032230
         H           -2.712521184964     1.194500104527     0.863032328270     1.007825032230
         H           -3.983765184964    -0.752865895473    -0.008450671730     1.007825032230
         H           -2.567815184964    -1.325259895473     0.880524328270     1.007825032230
         H           -2.563753184964    -1.327493895473    -0.889470671730     1.007825032230
         H           -0.414084184964     1.747497104527    -0.003395671730     1.007825032230
         H           -0.289758184964    -1.319584895473     0.000752328270     1.007825032230
         H            3.122739815036    -0.915447895473     0.009637328270     1.007825032230

  Basis Set: AUG-CC-PVTZ
    Blend: AUG-CC-PVTZ
  Basis Set: (AUG-CC-PVTZ AUX)
    Blend: AUG-CC-PVTZ-JKFIT
	 Reference Energy          =    -343.8573057220530700 [Eh]
	 Singles Energy            =      -0.0000000000000000 [Eh]
	 Same-Spin Energy          =      -0.3411113759681303 [Eh]
	 Opposite-Spin Energy      =      -1.1000224438769486 [Eh]
	 Correlation Energy        =      -1.4411338198450789 [Eh]
	 Total Energy              =    -345.2984395418981762 [Eh]

	 ================> DF-SCS-MP2 Energies <==================
	-----------------------------------------------------------
	 SCS Same-Spin Scale       =       0.3333333333333333 [-]
	 SCS Opposite-Spin Scale   =       1.2000000000000000 [-]
	 SCS Same-Spin Energy      =      -0.1137037919893768 [Eh]
	 SCS Opposite-Spin Energy  =      -1.3200269326523382 [Eh]
	 SCS Correlation Energy    =      -1.4337307246417150 [Eh]
	 SCS Total Energy          =    -345.2910364466947613 [Eh]
	-----------------------------------------------------------

  Dipole Moment: [D]
     X:    -1.7776      Y:    -1.1229      Z:    -0.0029     Total:     2.1026

*** Psi4 exiting successfully. Buy a developer a beer!
