                               Psi4 1.3.2 release

  ==> Input File <==

--------------------------------------------------------------------------
#psi4
#
memory 32 gb

molecule  {
0 1
  O        2.1793270    -1.1884030     0.0070830
  O        2.0147220     1.0703310     0.0037530
  C       -2.3333640     0.6373300    -0.0064140
  C       -2.8929490    -0.7786760    -0.0059160
  C       -0.8407100     0.7390270    -0.0031060
  C        0.0222220    -0.2866530     0.0001530
  C        1.5143568     0.0000644     0.0031446
  H       -2.7101490     1.1874440    -0.8789970
  H       -2.7141290     1.1896330     0.8630350
  H       -3.9853730    -0.7577330    -0.0084480
  H       -2.5694230    -1.3301270     0.8805270
  H       -2.5653610    -1.3323610    -0.8894680
  H       -0.4156920     1.7426300    -0.0033930
  H       -0.2913660    -1.3244520     0.0007550
  H        3.1112023    -0.8876097     0.0095580
units angstrom
no_reorient  #important for SAPT in psi4, default
symmetry c1  #important for SAPT in psi4, default
}

set PROPERTIES_ORIGIN ["COM"]
properties('MP2/aug-cc-pvtz', properties = ['dipole'])
--------------------------------------------------------------------------

    Molecular point group: c1
  Charge       = 0
  Multiplicity = 1
  Basis Set: AUG-CC-PVTZ
    Blend: AUG-CC-PVTZ
  Basis Set: (AUG-CC-PVTZ AUX)
    Blend: AUG-CC-PVTZ-JKFIT

    Orbital Energies [Eh]
    ---------------------

    Doubly Occupied:

       1A    -20.612221     2A    -20.548804     3A    -11.384373
       4A    -11.260876     5A    -11.243879     6A    -11.239334
       7A    -11.226071     8A     -1.466621     9A     -1.371780
      10A     -1.105395    11A     -1.016123    12A     -0.908865
      13A     -0.836691    14A     -0.736451    15A     -0.703694
      16A     -0.702475    17A     -0.634269    18A     -0.624193
      19A     -0.623854    20A     -0.595928    21A     -0.573204
      22A     -0.512227    23A     -0.509600    24A     -0.502236
      25A     -0.494862    26A     -0.452202    27A     -0.377582

  @DF-RHF Final Energy:  -343.85922182081458

   => Energetics <=

    Nuclear Repulsion Energy =            285.5935900417859443
    One-Electron Energy =               -1034.3780012712297776
    Two-Electron Energy =                 404.9251894086291941
    Total Energy =                       -343.8592218208145823
  Basis Set: (AUG-CC-PVTZ AUX)
    Blend: AUG-CC-PVTZ-RI
    Molecular point group: c1

    Geometry (in Angstrom), charge = 0, multiplicity = 1:

       Center              X                  Y                   Z               Mass
    ------------   -----------------  -----------------  -----------------  -----------------
         O            2.174501166168    -1.191602778247     0.007072782643    15.994914619570
         O            2.009896166168     1.067131221753     0.003742782643    15.994914619570
         C           -2.338189833832     0.634130221753    -0.006424217357    12.000000000000
         C           -2.897774833832    -0.781875778247    -0.005926217357    12.000000000000
         C           -0.845535833832     0.735827221753    -0.003116217357    12.000000000000
         C            0.017396166168    -0.289852778247     0.000142782643    12.000000000000
         C            1.509530966168    -0.003135378247     0.003134382643    12.000000000000
         H           -2.714974833832     1.184244221753    -0.879007217357     1.007825032230
         H           -2.718954833832     1.186433221753     0.863024782643     1.007825032230
         H           -3.990198833832    -0.760932778247    -0.008458217357     1.007825032230
         H           -2.574248833832    -1.333326778247     0.880516782643     1.007825032230
         H           -2.570186833832    -1.335560778247    -0.889478217357     1.007825032230
         H           -0.420517833832     1.739430221753    -0.003403217357     1.007825032230
         H           -0.296191833832    -1.327651778247     0.000744782643     1.007825032230
         H            3.106376466168    -0.890809478247     0.009547782643     1.007825032230

  Basis Set: AUG-CC-PVTZ
    Blend: AUG-CC-PVTZ
  Basis Set: (AUG-CC-PVTZ AUX)
    Blend: AUG-CC-PVTZ-JKFIT
	 Reference Energy          =    -343.8592218208145823 [Eh]
	 Singles Energy            =      -0.0000000000000000 [Eh]
	 Same-Spin Energy          =      -0.3398960557033097 [Eh]
	 Opposite-Spin Energy      =      -1.0981235588884179 [Eh]
	 Correlation Energy        =      -1.4380196145917277 [Eh]
	 Total Energy              =    -345.2972414354063062 [Eh]

	 ================> DF-SCS-MP2 Energies <==================
	-----------------------------------------------------------
	 SCS Same-Spin Scale       =       0.3333333333333333 [-]
	 SCS Opposite-Spin Scale   =       1.2000000000000000 [-]
	 SCS Same-Spin Energy      =      -0.1132986852344366 [Eh]
	 SCS Opposite-Spin Energy  =      -1.3177482706661015 [Eh]
	 SCS Correlation Energy    =      -1.4310469559005381 [Eh]
	 SCS Total Energy          =    -345.2902687767150951 [Eh]
	-----------------------------------------------------------

  Dipole Moment: [D]
     X:    -1.4993      Y:    -0.7588      Z:    -0.0028     Total:     1.6804

*** Psi4 exiting successfully. Buy a developer a beer!
