                               Psi4 1.3.2 release

  ==> Input File <==

--------------------------------------------------------------------------
#psi4
#
memory 32 gb

molecule  {
0 1
  O        2.1793270    -1.1884030     0.0070830
  O        2.0147220     1.0703310     0.0037530
  C       -2.3333640     0.6373300    -0.0064140
  C       -2.8929490    -0.7786760    -0.0059160
  C       -0.7858474     0.7827839    -0.0030368
  C        0.0222220    -0.2866530     0.0001530
  C        1.4732850    -0.0238670     0.0030520
  H       -2.7101490     1.1874440    -0.8789970
  H       -2.7141290     1.1896330     0.8630350
  H       -3.9853730    -0.7577330    -0.0084480
  H       -2.5694230    -1.3301270     0.8805270
  H       -2.5653610    -1.3323610    -0.8894680
  H       -0.4156920     1.7426300    -0.0033930
  H       -0.2366222    -1.3394415     0.0008983
  H        3.1211320    -0.9203150     0.0096400
units angstrom
no_reorient  #important for SAPT in psi4, default
symmetry c1  #important for SAPT in psi4, default
}

set PROPERTIES_ORIGIN ["COM"]
properties('MP2/aug-cc-pvtz', properties = ['dipole'])
--------------------------------------------------------------------------

    Molecular point group: c1
  Charge       = 0
  Multiplicity = 1
  Basis Set: AUG-CC-PVTZ
    Blend: AUG-CC-PVTZ
  Basis Set: (AUG-CC-PVTZ AUX)
    Blend: AUG-CC-PVTZ-JKFIT

    Orbital Energies [Eh]
    ---------------------

    Doubly Occupied:

       1A    -20.609872     2A    -20.538580     3A    -11.382712
       4A    -11.266944     5A    -11.248814     6A    -11.242143
       7A    -11.228405     8A     -1.452401     9A     -1.347286
      10A     -1.105739    11A     -1.023466    12A     -0.914691
      13A     -0.838992    14A     -0.750545    15A     -0.701281
      16A     -0.696334    17A     -0.628744    18A     -0.619352
      19A     -0.613048    20A     -0.607879    21A     -0.567091
      22A     -0.516179    23A     -0.512044    24A     -0.499522
      25A     -0.482302    26A     -0.448133    27A     -0.382485

  @DF-RHF Final Energy:  -343.85481323642273

   => Energetics <=

    Nuclear Repulsion Energy =            285.1577736019194163
    One-Electron Energy =               -1033.5752090141104418
    Two-Electron Energy =                 404.5626221757682970
    Total Energy =                       -343.8548132364227286
  Basis Set: (AUG-CC-PVTZ AUX)
    Blend: AUG-CC-PVTZ-RI
    Molecular point group: c1

    Geometry (in Angstrom), charge = 0, multiplicity = 1:

       Center              X                  Y                   Z               Mass
    ------------   -----------------  -----------------  -----------------  -----------------
         O            2.172195683198    -1.193500163324     0.007073319732    15.994914619570
         O            2.007590683198     1.065233836676     0.003743319732    15.994914619570
         C           -2.340495316802     0.632232836676    -0.006423680268    12.000000000000
         C           -2.900080316802    -0.783773163324    -0.005925680268    12.000000000000
         C           -0.792978716802     0.777686736676    -0.003046480268    12.000000000000
         C            0.015090683198    -0.291750163324     0.000143319732    12.000000000000
         C            1.466153683198    -0.028964163324     0.003042319732    12.000000000000
         H           -2.717280316802     1.182346836676    -0.879006680268     1.007825032230
         H           -2.721260316802     1.184535836676     0.863025319732     1.007825032230
         H           -3.992504316802    -0.762830163324    -0.008457680268     1.007825032230
         H           -2.576554316802    -1.335224163324     0.880517319732     1.007825032230
         H           -2.572492316802    -1.337458163324    -0.889477680268     1.007825032230
         H           -0.422823316802     1.737532836676    -0.003402680268     1.007825032230
         H           -0.243753516802    -1.344538663324     0.000888619732     1.007825032230
         H            3.114000683198    -0.925412163324     0.009630319732     1.007825032230

  Basis Set: AUG-CC-PVTZ
    Blend: AUG-CC-PVTZ
  Basis Set: (AUG-CC-PVTZ AUX)
    Blend: AUG-CC-PVTZ-JKFIT
	 Reference Energy          =    -343.8548132364227286 [Eh]
	 Singles Energy            =      -0.0000000000000000 [Eh]
	 Same-Spin Energy          =      -0.3401035978977869 [Eh]
	 Opposite-Spin Energy      =      -1.0990223399122625 [Eh]
	 Correlation Energy        =      -1.4391259378100494 [Eh]
	 Total Energy              =    -345.2939391742327757 [Eh]

	 ================> DF-SCS-MP2 Energies <==================
	-----------------------------------------------------------
	 SCS Same-Spin Scale       =       0.3333333333333333 [-]
	 SCS Opposite-Spin Scale   =       1.2000000000000000 [-]
	 SCS Same-Spin Energy      =      -0.1133678659659290 [Eh]
	 SCS Opposite-Spin Energy  =      -1.3188268078947150 [Eh]
	 SCS Correlation Energy    =      -1.4321946738606439 [Eh]
	 SCS Total Energy          =    -345.2870079102833643 [Eh]
	-----------------------------------------------------------

  Dipole Moment: [D]
     X:    -1.7419      Y:    -0.9449      Z:    -0.0031     Total:     1.9817

*** Psi4 exiting successfully. Buy a developer a beer!
