                               Psi4 1.4a3.dev225

  ==> Input File <==

--------------------------------------------------------------------------
#psi4
#
memory 32 gb

molecule  {
0 1
  O       -2.3109350    -1.1403470    -0.0000450
  O       -2.1116090     1.1175510    -0.0000760
  C        2.2339710     0.6185460     0.0000510
  C        2.7736950    -0.8069580     0.0000920
  C        0.7414440     0.7423990     0.0000070
  C       -0.1379540    -0.2713190     0.0000010
  C       -1.5597612     0.0569473    -0.0000450
  H        2.6208160     1.1641270     0.8715420
  H        2.6208650     1.1640950    -0.8714390
  H        3.8667590    -0.8011940     0.0001220
  H        2.4401730    -1.3549900    -0.8853120
  H        2.4401230    -1.3549580     0.8854960
  H        0.3318170     1.7528370    -0.0000240
  H        0.1592700    -1.3142900     0.0000290
  H       -3.2484020    -0.8568190    -0.0000760
units angstrom
no_reorient  #important for SAPT in psi4, default
symmetry c1  #important for SAPT in psi4, default
}

set PROPERTIES_ORIGIN ["COM"]
properties('MP2/aug-cc-pvtz', properties = ['dipole'])
--------------------------------------------------------------------------

    Molecular point group: c1
  Charge       = 0
  Multiplicity = 1
  Basis Set: AUG-CC-PVTZ
    Blend: AUG-CC-PVTZ
  Basis Set: (AUG-CC-PVTZ AUX)
    Blend: AUG-CC-PVTZ-JKFIT

    Orbital Energies [Eh]
    ---------------------

    Doubly Occupied:

       1A    -20.595329     2A    -20.547292     3A    -11.384619
       4A    -11.271378     5A    -11.249511     6A    -11.242340
       7A    -11.230370     8A     -1.443627     9A     -1.348313
      10A     -1.114803    11A     -1.027969    12A     -0.916230
      13A     -0.835599    14A     -0.737327    15A     -0.703048
      16A     -0.689578    17A     -0.632268    18A     -0.616345
      19A     -0.612869    20A     -0.599787    21A     -0.576001
      22A     -0.516459    23A     -0.513969    24A     -0.507829
      25A     -0.485972    26A     -0.452792    27A     -0.384208

  @DF-RHF Final Energy:  -343.85751169573331

   => Energetics <=

    Nuclear Repulsion Energy =            285.3020631788477885
    One-Electron Energy =               -1033.8474879423310995
    Two-Electron Energy =                 404.6879130677500029
    Total Energy =                       -343.8575116957333080
  Basis Set: (AUG-CC-PVTZ AUX)
    Blend: AUG-CC-PVTZ-RI
    Molecular point group: c1

    Geometry (in Angstrom), charge = 0, multiplicity = 1:

       Center              X                  Y                   Z               Mass
    ------------   -----------------  -----------------  -----------------  -----------------
         O           -2.202969917050    -1.161306432548    -0.000041774293    15.994914619570
         O           -2.003643917050     1.096591567452    -0.000072774293    15.994914619570
         C            2.341936082950     0.597586567452     0.000054225707    12.000000000000
         C            2.881660082950    -0.827917432548     0.000095225707    12.000000000000
         C            0.849409082950     0.721439567452     0.000010225707    12.000000000000
         C           -0.029988917050    -0.292278432548     0.000004225707    12.000000000000
         C           -1.451796117050     0.035987867452    -0.000041774293    12.000000000000
         H            2.728781082950     1.143167567452     0.871545225707     1.007825032230
         H            2.728830082950     1.143135567452    -0.871435774293     1.007825032230
         H            3.974724082950    -0.822153432548     0.000125225707     1.007825032230
         H            2.548138082950    -1.375949432548    -0.885308774293     1.007825032230
         H            2.548088082950    -1.375917432548     0.885499225707     1.007825032230
         H            0.439782082950     1.731877567452    -0.000020774293     1.007825032230
         H            0.267235082950    -1.335249432548     0.000032225707     1.007825032230
         H           -3.140436917050    -0.877778432548    -0.000072774293     1.007825032230

  Basis Set: AUG-CC-PVTZ
    Blend: AUG-CC-PVTZ
  Basis Set: (AUG-CC-PVTZ AUX)
    Blend: AUG-CC-PVTZ-JKFIT
	 Reference Energy          =    -343.8575116957333080 [Eh]
	 Singles Energy            =      -0.0000000000000000 [Eh]
	 Same-Spin Energy          =      -0.3406460242100479 [Eh]
	 Opposite-Spin Energy      =      -1.0997071972255237 [Eh]
	 Correlation Energy        =      -1.4403532214355717 [Eh]
	 Total Energy              =    -345.2978649171688517 [Eh]

	 ================> DF-SCS-MP2 Energies <==================
	-----------------------------------------------------------
	 SCS Same-Spin Scale       =       0.3333333333333333 [-]
	 SCS Opposite-Spin Scale   =       1.2000000000000000 [-]
	 SCS Same-Spin Energy      =      -0.1135486747366826 [Eh]
	 SCS Opposite-Spin Energy  =      -1.3196486366706284 [Eh]
	 SCS Correlation Energy    =      -1.4331973114073111 [Eh]
	 SCS Total Energy          =    -345.2907090071406060 [Eh]
	-----------------------------------------------------------

  Dipole Moment: [D]
     X:     2.0953      Y:    -0.5748      Z:     0.0001     Total:     2.1727

*** Psi4 exiting successfully. Buy a developer a beer!
