                               Psi4 1.3.2 release

  ==> Input File <==

--------------------------------------------------------------------------
#psi4
#
memory 32 gb

molecule  {
0 1
  O        2.1793270    -1.1884030     0.0070830
  O        2.0147220     1.0703310     0.0037530
  C       -2.3333640     0.6373300    -0.0064140
  C       -2.8929490    -0.7786760    -0.0059160
  C       -0.8407100     0.7390270    -0.0031060
  C        0.0222220    -0.2866530     0.0001530
  C        1.4732850    -0.0238670     0.0030520
  H       -2.7101490     1.1874440    -0.8789970
  H       -2.7141290     1.1896330     0.8630350
  H       -3.9853730    -0.7577330    -0.0084480
  H       -2.5694230    -1.3301270     0.8805270
  H       -2.5653610    -1.3323610    -0.8894680
  H       -0.4156920     1.7426300    -0.0033930
  H       -0.2913660    -1.3244520     0.0007550
  H        3.0249530    -0.9476927     0.0093789
units angstrom
no_reorient  #important for SAPT in psi4, default
symmetry c1  #important for SAPT in psi4, default
}

set PROPERTIES_ORIGIN ["COM"]
properties('MP2/aug-cc-pvtz', properties = ['dipole'])
--------------------------------------------------------------------------

    Molecular point group: c1
  Charge       = 0
  Multiplicity = 1
  Basis Set: AUG-CC-PVTZ
    Blend: AUG-CC-PVTZ
  Basis Set: (AUG-CC-PVTZ AUX)
    Blend: AUG-CC-PVTZ-JKFIT

    Orbital Energies [Eh]
    ---------------------

    Doubly Occupied:

       1A    -20.602868     2A    -20.541943     3A    -11.387414
       4A    -11.268479     5A    -11.247849     6A    -11.240838
       7A    -11.228977     8A     -1.471388     9A     -1.357568
      10A     -1.112377    11A     -1.026414    12A     -0.922512
      13A     -0.854101    14A     -0.742954    15A     -0.713479
      16A     -0.700091    17A     -0.633295    18A     -0.623523
      19A     -0.618494    20A     -0.604317    21A     -0.572442
      22A     -0.515476    23A     -0.513203    24A     -0.505535
      25A     -0.485851    26A     -0.452467    27A     -0.381279

  @DF-RHF Final Energy:  -343.85563748931236

   => Energetics <=

    Nuclear Repulsion Energy =            286.0974961697381787
    One-Electron Energy =               -1035.2560008697344074
    Two-Electron Energy =                 405.3028672106838712
    Total Energy =                       -343.8556374893123575
  Basis Set: (AUG-CC-PVTZ AUX)
    Blend: AUG-CC-PVTZ-RI
    Molecular point group: c1

    Geometry (in Angstrom), charge = 0, multiplicity = 1:

       Center              X                  Y                   Z               Mass
    ------------   -----------------  -----------------  -----------------  -----------------
         O            2.180295986008    -1.188127300908     0.007085692889    15.994914619570
         O            2.015690986008     1.070606699092     0.003755692889    15.994914619570
         C           -2.332395013992     0.637605699092    -0.006411307111    12.000000000000
         C           -2.891980013992    -0.778400300908    -0.005913307111    12.000000000000
         C           -0.839741013992     0.739302699092    -0.003103307111    12.000000000000
         C            0.023190986008    -0.286377300908     0.000155692889    12.000000000000
         C            1.474253986008    -0.023591300908     0.003054692889    12.000000000000
         H           -2.709180013992     1.187719699092    -0.878994307111     1.007825032230
         H           -2.713160013992     1.189908699092     0.863037692889     1.007825032230
         H           -3.984404013992    -0.757457300908    -0.008445307111     1.007825032230
         H           -2.568454013992    -1.329851300908     0.880529692889     1.007825032230
         H           -2.564392013992    -1.332085300908    -0.889465307111     1.007825032230
         H           -0.414723013992     1.742905699092    -0.003390307111     1.007825032230
         H           -0.290397013992    -1.324176300908     0.000757692889     1.007825032230
         H            3.025921986008    -0.947417000908     0.009381592889     1.007825032230

  Basis Set: AUG-CC-PVTZ
    Blend: AUG-CC-PVTZ
  Basis Set: (AUG-CC-PVTZ AUX)
    Blend: AUG-CC-PVTZ-JKFIT
	 Reference Energy          =    -343.8556374893123575 [Eh]
	 Singles Energy            =      -0.0000000000000000 [Eh]
	 Same-Spin Energy          =      -0.3393693041959035 [Eh]
	 Opposite-Spin Energy      =      -1.0965267523689177 [Eh]
	 Correlation Energy        =      -1.4358960565648213 [Eh]
	 Total Energy              =    -345.2915335458772006 [Eh]

	 ================> DF-SCS-MP2 Energies <==================
	-----------------------------------------------------------
	 SCS Same-Spin Scale       =       0.3333333333333333 [-]
	 SCS Opposite-Spin Scale   =       1.2000000000000000 [-]
	 SCS Same-Spin Energy      =      -0.1131231013986345 [Eh]
	 SCS Opposite-Spin Energy  =      -1.3158321028427011 [Eh]
	 SCS Correlation Energy    =      -1.4289552042413356 [Eh]
	 SCS Total Energy          =    -345.2845926935536909 [Eh]
	-----------------------------------------------------------

  Dipole Moment: [D]
     X:    -1.9547      Y:    -0.9136      Z:    -0.0038     Total:     2.1577

*** Psi4 exiting successfully. Buy a developer a beer!
