                               Psi4 1.4a3.dev225

  ==> Input File <==

--------------------------------------------------------------------------
#psi4
#
memory 32 gb

molecule  {
0 1
  O       -2.3109350    -1.1403470    -0.0000450
  O       -2.1116090     1.1175510    -0.0000760
  C        2.2339710     0.6185460     0.0000510
  C        2.7736950    -0.8069580     0.0000920
  C        0.7414440     0.7423990     0.0000070
  C       -0.1379540    -0.2713190     0.0000010
  C       -1.5863340     0.0145930    -0.0000450
  H        2.6208160     1.1641270     0.8715420
  H        2.6208650     1.1640950    -0.8714390
  H        3.8667590    -0.8011940     0.0001220
  H        2.4401730    -1.3549900    -0.8853120
  H        2.4401230    -1.3549580     0.8854960
  H        0.3318170     1.7528370    -0.0000240
  H        0.1433565    -1.3021755     0.0000283
  H       -3.2484020    -0.8568190    -0.0000760
units angstrom
no_reorient  #important for SAPT in psi4, default
symmetry c1  #important for SAPT in psi4, default
}

set PROPERTIES_ORIGIN ["COM"]
properties('MP2/aug-cc-pvtz', properties = ['dipole'])
--------------------------------------------------------------------------

    Molecular point group: c1
  Charge       = 0
  Multiplicity = 1
  Basis Set: AUG-CC-PVTZ
    Blend: AUG-CC-PVTZ
  Basis Set: (AUG-CC-PVTZ AUX)
    Blend: AUG-CC-PVTZ-JKFIT

    Orbital Energies [Eh]
    ---------------------

    Doubly Occupied:

       1A    -20.610476     2A    -20.540134     3A    -11.385667
       4A    -11.268488     5A    -11.247822     6A    -11.239429
       7A    -11.228927     8A     -1.452190     9A     -1.347524
      10A     -1.110910    11A     -1.024128    12A     -0.916349
      13A     -0.842047    14A     -0.740986    15A     -0.705154
      16A     -0.694018    17A     -0.631552    18A     -0.620178
      19A     -0.615619    20A     -0.602406    21A     -0.569889
      22A     -0.515013    23A     -0.512377    24A     -0.505172
      25A     -0.482425    26A     -0.450493    27A     -0.380425

  @DF-RHF Final Energy:  -343.86004368026323

   => Energetics <=

    Nuclear Repulsion Energy =            285.2468266179740795
    One-Electron Energy =               -1033.7341495375289924
    Two-Electron Energy =                 404.6272792392916813
    Total Energy =                       -343.8600436802632316
  Basis Set: (AUG-CC-PVTZ AUX)
    Blend: AUG-CC-PVTZ-RI
    Molecular point group: c1

    Geometry (in Angstrom), charge = 0, multiplicity = 1:

       Center              X                  Y                   Z               Mass
    ------------   -----------------  -----------------  -----------------  -----------------
         O           -2.199622555818    -1.156348608874    -0.000041767242    15.994914619570
         O           -2.000296555818     1.101549391126    -0.000072767242    15.994914619570
         C            2.345283444182     0.602544391126     0.000054232758    12.000000000000
         C            2.885007444182    -0.822959608874     0.000095232758    12.000000000000
         C            0.852756444182     0.726397391126     0.000010232758    12.000000000000
         C           -0.026641555818    -0.287320608874     0.000004232758    12.000000000000
         C           -1.475021555818    -0.001408608874    -0.000041767242    12.000000000000
         H            2.732128444182     1.148125391126     0.871545232758     1.007825032230
         H            2.732177444182     1.148093391126    -0.871435767242     1.007825032230
         H            3.978071444182    -0.817195608874     0.000125232758     1.007825032230
         H            2.551485444182    -1.370991608874    -0.885308767242     1.007825032230
         H            2.551435444182    -1.370959608874     0.885499232758     1.007825032230
         H            0.443129444182     1.736835391126    -0.000020767242     1.007825032230
         H            0.254668944182    -1.318177108874     0.000031532758     1.007825032230
         H           -3.137089555818    -0.872820608874    -0.000072767242     1.007825032230

  Basis Set: AUG-CC-PVTZ
    Blend: AUG-CC-PVTZ
  Basis Set: (AUG-CC-PVTZ AUX)
    Blend: AUG-CC-PVTZ-JKFIT
	 Reference Energy          =    -343.8600436802632316 [Eh]
	 Singles Energy            =      -0.0000000000000000 [Eh]
	 Same-Spin Energy          =      -0.3405765894300000 [Eh]
	 Opposite-Spin Energy      =      -1.0994193152482299 [Eh]
	 Correlation Energy        =      -1.4399959046782298 [Eh]
	 Total Energy              =    -345.3000395849414872 [Eh]

	 ================> DF-SCS-MP2 Energies <==================
	-----------------------------------------------------------
	 SCS Same-Spin Scale       =       0.3333333333333333 [-]
	 SCS Opposite-Spin Scale   =       1.2000000000000000 [-]
	 SCS Same-Spin Energy      =      -0.1135255298100000 [Eh]
	 SCS Opposite-Spin Energy  =      -1.3193031782978759 [Eh]
	 SCS Correlation Energy    =      -1.4328287081078759 [Eh]
	 SCS Total Energy          =    -345.2928723883711086 [Eh]
	-----------------------------------------------------------

  Dipole Moment: [D]
     X:     1.8107      Y:    -0.9488      Z:     0.0001     Total:     2.0442

*** Psi4 exiting successfully. Buy a developer a beer!
