                               Psi4 1.4a3.dev225

  ==> Input File <==

--------------------------------------------------------------------------
#psi4
#
memory 32 gb

molecule  {
0 1
  O       -2.3109350    -1.1403470    -0.0000450
  O       -2.1116090     1.1175510    -0.0000760
  C        2.2339710     0.6185460     0.0000510
  C        2.7736950    -0.8069580     0.0000920
  C        0.7414440     0.7423990     0.0000070
  C       -0.1379540    -0.2713190     0.0000010
  C       -1.5863340     0.0145930    -0.0000450
  H        2.6208160     1.1641270     0.8715420
  H        2.6208650     1.1640950    -0.8714390
  H        3.8667590    -0.8011940     0.0001220
  H        2.4401730    -1.3549900    -0.8853120
  H        2.4401230    -1.3549580     0.8854960
  H        0.3506019     1.7064999    -0.0000226
  H        0.1592700    -1.3142900     0.0000290
  H       -3.2484020    -0.8568190    -0.0000760
units angstrom
no_reorient  #important for SAPT in psi4, default
symmetry c1  #important for SAPT in psi4, default
}

set PROPERTIES_ORIGIN ["COM"]
properties('MP2/aug-cc-pvtz', properties = ['dipole'])
--------------------------------------------------------------------------

    Molecular point group: c1
  Charge       = 0
  Multiplicity = 1
  Basis Set: AUG-CC-PVTZ
    Blend: AUG-CC-PVTZ
  Basis Set: (AUG-CC-PVTZ AUX)
    Blend: AUG-CC-PVTZ-JKFIT

    Orbital Energies [Eh]
    ---------------------

    Doubly Occupied:

       1A    -20.610467     2A    -20.540512     3A    -11.386157
       4A    -11.262974     5A    -11.247554     6A    -11.240959
       7A    -11.228765     8A     -1.452287     9A     -1.347763
      10A     -1.112151    11A     -1.023864    12A     -0.917950
      13A     -0.842319    14A     -0.745731    15A     -0.705384
      16A     -0.695491    17A     -0.631503    18A     -0.620231
      19A     -0.616042    20A     -0.602678    21A     -0.569588
      22A     -0.514951    23A     -0.512172    24A     -0.508698
      25A     -0.482593    26A     -0.450688    27A     -0.380383

  @DF-RHF Final Energy:  -343.85914424007518

   => Energetics <=

    Nuclear Repulsion Energy =            285.4048367135233661
    One-Electron Energy =               -1034.0282532174310290
    Two-Electron Energy =                 404.7642722638325381
    Total Energy =                       -343.8591442400751816
  Basis Set: (AUG-CC-PVTZ AUX)
    Blend: AUG-CC-PVTZ-RI
    Molecular point group: c1

    Geometry (in Angstrom), charge = 0, multiplicity = 1:

       Center              X                  Y                   Z               Mass
    ------------   -----------------  -----------------  -----------------  -----------------
         O           -2.199972071730    -1.155759827712    -0.000041788395    15.994914619570
         O           -2.000646071730     1.102138172288    -0.000072788395    15.994914619570
         C            2.344933928270     0.603133172288     0.000054211605    12.000000000000
         C            2.884657928270    -0.822370827712     0.000095211605    12.000000000000
         C            0.852406928270     0.726986172288     0.000010211605    12.000000000000
         C           -0.026991071730    -0.286731827712     0.000004211605    12.000000000000
         C           -1.475371071730    -0.000819827712    -0.000041788395    12.000000000000
         H            2.731778928270     1.148714172288     0.871545211605     1.007825032230
         H            2.731827928270     1.148682172288    -0.871435788395     1.007825032230
         H            3.977721928270    -0.816606827712     0.000125211605     1.007825032230
         H            2.551135928270    -1.370402827712    -0.885308788395     1.007825032230
         H            2.551085928270    -1.370370827712     0.885499211605     1.007825032230
         H            0.461564828270     1.691087072288    -0.000019388395     1.007825032230
         H            0.270232928270    -1.329702827712     0.000032211605     1.007825032230
         H           -3.137439071730    -0.872231827712    -0.000072788395     1.007825032230

  Basis Set: AUG-CC-PVTZ
    Blend: AUG-CC-PVTZ
  Basis Set: (AUG-CC-PVTZ AUX)
    Blend: AUG-CC-PVTZ-JKFIT
	 Reference Energy          =    -343.8591442400751816 [Eh]
	 Singles Energy            =      -0.0000000000000000 [Eh]
	 Same-Spin Energy          =      -0.3404989121115097 [Eh]
	 Opposite-Spin Energy      =      -1.0991998690917080 [Eh]
	 Correlation Energy        =      -1.4396987812032176 [Eh]
	 Total Energy              =    -345.2988430212784010 [Eh]

	 ================> DF-SCS-MP2 Energies <==================
	-----------------------------------------------------------
	 SCS Same-Spin Scale       =       0.3333333333333333 [-]
	 SCS Opposite-Spin Scale   =       1.2000000000000000 [-]
	 SCS Same-Spin Energy      =      -0.1134996373705032 [Eh]
	 SCS Opposite-Spin Energy  =      -1.3190398429100496 [Eh]
	 SCS Correlation Energy    =      -1.4325394802805529 [Eh]
	 SCS Total Energy          =    -345.2916837203557066 [Eh]
	-----------------------------------------------------------

  Dipole Moment: [D]
     X:     1.8066      Y:    -0.9419      Z:     0.0001     Total:     2.0374

*** Psi4 exiting successfully. Buy a developer a beer!
