                               Psi4 1.3.2 release

  ==> Input File <==

--------------------------------------------------------------------------
#psi4
#
memory 32 gb

molecule  {
0 1
  O        2.1793270    -1.1884030     0.0070830
  O        1.9567142     1.0971681     0.0036228
  C       -2.3333640     0.6373300    -0.0064140
  C       -2.8929490    -0.7786760    -0.0059160
  C       -0.8407100     0.7390270    -0.0031060
  C        0.0104576    -0.2103499     0.0000995
  C        1.4732850    -0.0238670     0.0030520
  H       -2.7101490     1.1874440    -0.8789970
  H       -2.7141290     1.1896330     0.8630350
  H       -3.9853730    -0.7577330    -0.0084480
  H       -2.5694230    -1.3301270     0.8805270
  H       -2.5653610    -1.3323610    -0.8894680
  H       -0.4156920     1.7426300    -0.0033930
  H       -0.2913660    -1.3244520     0.0007550
  H        3.1211320    -0.9203150     0.0096400
units angstrom
no_reorient  #important for SAPT in psi4, default
symmetry c1  #important for SAPT in psi4, default
}

set PROPERTIES_ORIGIN ["COM"]
properties('MP2/aug-cc-pvtz', properties = ['dipole'])
--------------------------------------------------------------------------

    Molecular point group: c1
  Charge       = 0
  Multiplicity = 1
  Basis Set: AUG-CC-PVTZ
    Blend: AUG-CC-PVTZ
  Basis Set: (AUG-CC-PVTZ AUX)
    Blend: AUG-CC-PVTZ-JKFIT

    Orbital Energies [Eh]
    ---------------------

    Doubly Occupied:

       1A    -20.620143     2A    -20.542418     3A    -11.388131
       4A    -11.251070     5A    -11.244396     6A    -11.235496
       7A    -11.225760     8A     -1.456285     9A     -1.355434
      10A     -1.117014    11A     -1.024655    12A     -0.913650
      13A     -0.848539    14A     -0.731497    15A     -0.708232
      16A     -0.697088    17A     -0.632446    18A     -0.622227
      19A     -0.619054    20A     -0.602154    21A     -0.559301
      22A     -0.513195    23A     -0.511793    24A     -0.494037
      25A     -0.488098    26A     -0.447659    27A     -0.391232

  @DF-RHF Final Energy:  -343.85101711315184

   => Energetics <=

    Nuclear Repulsion Energy =            286.4122262833829495
    One-Electron Energy =               -1036.0444763907764809
    Two-Electron Energy =                 405.7812329942416341
    Total Energy =                       -343.8510171131518405
  Basis Set: (AUG-CC-PVTZ AUX)
    Blend: AUG-CC-PVTZ-RI
    Molecular point group: c1

    Geometry (in Angstrom), charge = 0, multiplicity = 1:

       Center              X                  Y                   Z               Mass
    ------------   -----------------  -----------------  -----------------  -----------------
         O            2.190011602204    -1.201844971347     0.007110293938    15.994914619570
         O            1.967398802204     1.083726128653     0.003650093938    15.994914619570
         C           -2.322679397796     0.623888028653    -0.006386706062    12.000000000000
         C           -2.882264397796    -0.792117971347    -0.005888706062    12.000000000000
         C           -0.830025397796     0.725585028653    -0.003078706062    12.000000000000
         C            0.021142202204    -0.223791871347     0.000126793938    12.000000000000
         C            1.483969602204    -0.037308971347     0.003079293938    12.000000000000
         H           -2.699464397796     1.174002028653    -0.878969706062     1.007825032230
         H           -2.703444397796     1.176191028653     0.863062293938     1.007825032230
         H           -3.974688397796    -0.771174971347    -0.008420706062     1.007825032230
         H           -2.558738397796    -1.343568971347     0.880554293938     1.007825032230
         H           -2.554676397796    -1.345802971347    -0.889440706062     1.007825032230
         H           -0.405007397796     1.729188028653    -0.003365706062     1.007825032230
         H           -0.280681397796    -1.337893971347     0.000782293938     1.007825032230
         H            3.131816602204    -0.933756971347     0.009667293938     1.007825032230

  Basis Set: AUG-CC-PVTZ
    Blend: AUG-CC-PVTZ
  Basis Set: (AUG-CC-PVTZ AUX)
    Blend: AUG-CC-PVTZ-JKFIT
	 Reference Energy          =    -343.8510171131518405 [Eh]
	 Singles Energy            =      -0.0000000000000000 [Eh]
	 Same-Spin Energy          =      -0.3405151590228562 [Eh]
	 Opposite-Spin Energy      =      -1.0990837621308513 [Eh]
	 Correlation Energy        =      -1.4395989211537077 [Eh]
	 Total Energy              =    -345.2906160343055717 [Eh]

	 ================> DF-SCS-MP2 Energies <==================
	-----------------------------------------------------------
	 SCS Same-Spin Scale       =       0.3333333333333333 [-]
	 SCS Opposite-Spin Scale   =       1.2000000000000000 [-]
	 SCS Same-Spin Energy      =      -0.1135050530076187 [Eh]
	 SCS Opposite-Spin Energy  =      -1.3189005145570216 [Eh]
	 SCS Correlation Energy    =      -1.4324055675646403 [Eh]
	 SCS Total Energy          =    -345.2834226807164555 [Eh]
	-----------------------------------------------------------

  Dipole Moment: [D]
     X:    -1.4591      Y:    -0.9804      Z:    -0.0025     Total:     1.7579

*** Psi4 exiting successfully. Buy a developer a beer!
