                               Psi4 1.4a3.dev225

  ==> Input File <==

--------------------------------------------------------------------------
#psi4
#
memory 32 gb

molecule  {
0 1
  O       -2.3109350    -1.1403470    -0.0000450
  O       -2.1116090     1.1175510    -0.0000760
  C        2.2339710     0.6185460     0.0000510
  C        2.7736950    -0.8069580     0.0000920
  C        0.7414440     0.7423990     0.0000070
  C       -0.1379540    -0.2713190     0.0000010
  C       -1.5667126     0.0107197    -0.0000444
  H        2.6208160     1.1641270     0.8715420
  H        2.6208650     1.1640950    -0.8714390
  H        3.8667590    -0.8011940     0.0001220
  H        2.4401730    -1.3549900    -0.8853120
  H        2.4401230    -1.3549580     0.8854960
  H        0.3318170     1.7528370    -0.0000240
  H        0.1592700    -1.3142900     0.0000290
  H       -3.2484020    -0.8568190    -0.0000760
units angstrom
no_reorient  #important for SAPT in psi4, default
symmetry c1  #important for SAPT in psi4, default
}

set PROPERTIES_ORIGIN ["COM"]
properties('MP2/aug-cc-pvtz', properties = ['dipole'])
--------------------------------------------------------------------------

    Molecular point group: c1
  Charge       = 0
  Multiplicity = 1
  Basis Set: AUG-CC-PVTZ
    Blend: AUG-CC-PVTZ
  Basis Set: (AUG-CC-PVTZ AUX)
    Blend: AUG-CC-PVTZ-JKFIT

    Orbital Energies [Eh]
    ---------------------

    Doubly Occupied:

       1A    -20.607924     2A    -20.538168     3A    -11.386406
       4A    -11.271689     5A    -11.249523     6A    -11.241410
       7A    -11.230177     8A     -1.445987     9A     -1.339035
      10A     -1.113813    11A     -1.027639    12A     -0.918919
      13A     -0.842904    14A     -0.739541    15A     -0.706418
      16A     -0.690138    17A     -0.632336    18A     -0.616727
      19A     -0.613299    20A     -0.602552    21A     -0.568685
      22A     -0.516396    23A     -0.513934    24A     -0.506480
      25A     -0.478848    26A     -0.449547    27A     -0.381966

  @DF-RHF Final Energy:  -343.85796627548694

   => Energetics <=

    Nuclear Repulsion Energy =            285.1683578169513567
    One-Electron Energy =               -1033.5917268572061403
    Two-Electron Energy =                 404.5654027647678390
    Total Energy =                       -343.8579662754869446
  Basis Set: (AUG-CC-PVTZ AUX)
    Blend: AUG-CC-PVTZ-RI
    Molecular point group: c1

    Geometry (in Angstrom), charge = 0, multiplicity = 1:

       Center              X                  Y                   Z               Mass
    ------------   -----------------  -----------------  -----------------  -----------------
         O           -2.202136186171    -1.155762027452    -0.000041846255    15.994914619570
         O           -2.002810186171     1.102135972548    -0.000072846255    15.994914619570
         C            2.342769813829     0.603130972548     0.000054153745    12.000000000000
         C            2.882493813829    -0.822373027452     0.000095153745    12.000000000000
         C            0.850242813829     0.726983972548     0.000010153745    12.000000000000
         C           -0.029155186171    -0.286734027452     0.000004153745    12.000000000000
         C           -1.457913786171    -0.004695327452    -0.000041246255    12.000000000000
         H            2.729614813829     1.148711972548     0.871545153745     1.007825032230
         H            2.729663813829     1.148679972548    -0.871435846255     1.007825032230
         H            3.975557813829    -0.816609027452     0.000125153745     1.007825032230
         H            2.548971813829    -1.370405027452    -0.885308846255     1.007825032230
         H            2.548921813829    -1.370373027452     0.885499153745     1.007825032230
         H            0.440615813829     1.737421972548    -0.000020846255     1.007825032230
         H            0.268068813829    -1.329705027452     0.000032153745     1.007825032230
         H           -3.139603186171    -0.872234027452    -0.000072846255     1.007825032230

  Basis Set: AUG-CC-PVTZ
    Blend: AUG-CC-PVTZ
  Basis Set: (AUG-CC-PVTZ AUX)
    Blend: AUG-CC-PVTZ-JKFIT
	 Reference Energy          =    -343.8579662754869446 [Eh]
	 Singles Energy            =      -0.0000000000000000 [Eh]
	 Same-Spin Energy          =      -0.3410260582081660 [Eh]
	 Opposite-Spin Energy      =      -1.1002355479943198 [Eh]
	 Correlation Energy        =      -1.4412616062024859 [Eh]
	 Total Energy              =    -345.2992278816894327 [Eh]

	 ================> DF-SCS-MP2 Energies <==================
	-----------------------------------------------------------
	 SCS Same-Spin Scale       =       0.3333333333333333 [-]
	 SCS Opposite-Spin Scale   =       1.2000000000000000 [-]
	 SCS Same-Spin Energy      =      -0.1136753527360553 [Eh]
	 SCS Opposite-Spin Energy  =      -1.3202826575931836 [Eh]
	 SCS Correlation Energy    =      -1.4339580103292389 [Eh]
	 SCS Total Energy          =    -345.2919242858162079 [Eh]
	-----------------------------------------------------------

  Dipole Moment: [D]
     X:     1.9846      Y:    -0.9421      Z:     0.0001     Total:     2.1969

*** Psi4 exiting successfully. Buy a developer a beer!
