                               Psi4 1.3.2 release

  ==> Input File <==

--------------------------------------------------------------------------
#psi4
#
memory 32 gb

molecule  {
0 1
  O        2.1793270    -1.1884030     0.0070830
  O        2.0147220     1.0703310     0.0037530
  C       -2.3333640     0.6373300    -0.0064140
  C       -2.8929490    -0.7786760    -0.0059160
  C       -0.8043886     0.7685182    -0.0030632
  C        0.0222220    -0.2866530     0.0001530
  C        1.4632301     0.0266143     0.0029640
  H       -2.7101490     1.1874440    -0.8789970
  H       -2.7141290     1.1896330     0.8630350
  H       -3.9853730    -0.7577330    -0.0084480
  H       -2.5694230    -1.3301270     0.8805270
  H       -2.5653610    -1.3323610    -0.8894680
  H       -0.4156920     1.7426300    -0.0033930
  H       -0.2913660    -1.3244520     0.0007550
  H        3.1211320    -0.9203150     0.0096400
units angstrom
no_reorient  #important for SAPT in psi4, default
symmetry c1  #important for SAPT in psi4, default
}

set PROPERTIES_ORIGIN ["COM"]
properties('MP2/aug-cc-pvtz', properties = ['dipole'])
--------------------------------------------------------------------------

    Molecular point group: c1
  Charge       = 0
  Multiplicity = 1
  Basis Set: AUG-CC-PVTZ
    Blend: AUG-CC-PVTZ
  Basis Set: (AUG-CC-PVTZ AUX)
    Blend: AUG-CC-PVTZ-JKFIT

    Orbital Energies [Eh]
    ---------------------

    Doubly Occupied:

       1A    -20.595499     2A    -20.549211     3A    -11.382381
       4A    -11.266736     5A    -11.248636     6A    -11.242265
       7A    -11.229063     8A     -1.451213     9A     -1.354744
      10A     -1.109245    11A     -1.024538    12A     -0.911770
      13A     -0.832308    14A     -0.744199    15A     -0.700993
      16A     -0.694873    17A     -0.629368    18A     -0.616260
      19A     -0.615658    20A     -0.602966    21A     -0.574950
      22A     -0.514261    23A     -0.513441    24A     -0.505287
      25A     -0.489638    26A     -0.452441    27A     -0.384310

  @DF-RHF Final Energy:  -343.85621741863429

   => Energetics <=

    Nuclear Repulsion Energy =            285.4129612883057803
    One-Electron Energy =               -1034.0658515374241233
    Two-Electron Energy =                 404.7966728304841126
    Total Energy =                       -343.8562174186342872
  Basis Set: (AUG-CC-PVTZ AUX)
    Blend: AUG-CC-PVTZ-RI
    Molecular point group: c1

    Geometry (in Angstrom), charge = 0, multiplicity = 1:

       Center              X                  Y                   Z               Mass
    ------------   -----------------  -----------------  -----------------  -----------------
         O            2.176176849613    -1.197994746770     0.007088483994    15.994914619570
         O            2.011571849613     1.060739253230     0.003758483994    15.994914619570
         C           -2.336514150387     0.627738253230    -0.006408516006    12.000000000000
         C           -2.896099150387    -0.788267746770    -0.005910516006    12.000000000000
         C           -0.807538750387     0.758926453230    -0.003057716006    12.000000000000
         C            0.019071849613    -0.296244746770     0.000158483994    12.000000000000
         C            1.460079949613     0.017022553230     0.002969483994    12.000000000000
         H           -2.713299150387     1.177852253230    -0.878991516006     1.007825032230
         H           -2.717279150387     1.180041253230     0.863040483994     1.007825032230
         H           -3.988523150387    -0.767324746770    -0.008442516006     1.007825032230
         H           -2.572573150387    -1.339718746770     0.880532483994     1.007825032230
         H           -2.568511150387    -1.341952746770    -0.889462516006     1.007825032230
         H           -0.418842150387     1.733038253230    -0.003387516006     1.007825032230
         H           -0.294516150387    -1.334043746770     0.000760483994     1.007825032230
         H            3.117981849613    -0.929906746770     0.009645483994     1.007825032230

  Basis Set: AUG-CC-PVTZ
    Blend: AUG-CC-PVTZ
  Basis Set: (AUG-CC-PVTZ AUX)
    Blend: AUG-CC-PVTZ-JKFIT
	 Reference Energy          =    -343.8562174186342872 [Eh]
	 Singles Energy            =      -0.0000000000000000 [Eh]
	 Same-Spin Energy          =      -0.3399267876161004 [Eh]
	 Opposite-Spin Energy      =      -1.0986252344610135 [Eh]
	 Correlation Energy        =      -1.4385520220771140 [Eh]
	 Total Energy              =    -345.2947694407113772 [Eh]

	 ================> DF-SCS-MP2 Energies <==================
	-----------------------------------------------------------
	 SCS Same-Spin Scale       =       0.3333333333333333 [-]
	 SCS Opposite-Spin Scale   =       1.2000000000000000 [-]
	 SCS Same-Spin Energy      =      -0.1133089292053668 [Eh]
	 SCS Opposite-Spin Energy  =      -1.3183502813532162 [Eh]
	 SCS Correlation Energy    =      -1.4316592105585830 [Eh]
	 SCS Total Energy          =    -345.2878766291928514 [Eh]
	-----------------------------------------------------------

  Dipole Moment: [D]
     X:    -1.9173      Y:    -0.5157      Z:    -0.0042     Total:     1.9854

*** Psi4 exiting successfully. Buy a developer a beer!
