                               Psi4 1.4a3.dev225

  ==> Input File <==

--------------------------------------------------------------------------
#psi4
#
memory 32 gb

molecule  {
0 1
  O       -2.3109350    -1.1403470    -0.0000450
  O       -2.1116090     1.1175510    -0.0000760
  C        2.2339710     0.6185460     0.0000510
  C        2.7736950    -0.8069580     0.0000920
  C        0.7414440     0.7423990     0.0000070
  C       -0.1379540    -0.2713190     0.0000010
  C       -1.5863340     0.0145930    -0.0000450
  H        2.6208160     1.1641270     0.8715420
  H        2.6208650     1.1640950    -0.8714390
  H        3.8667590    -0.8011940     0.0001220
  H        2.4401730    -1.3549900    -0.8853120
  H        2.4401230    -1.3549580     0.8854960
  H        0.3318170     1.7528370    -0.0000240
  H        0.1592700    -1.3142900     0.0000290
  H       -3.2005430    -0.8712935    -0.0000744
units angstrom
no_reorient  #important for SAPT in psi4, default
symmetry c1  #important for SAPT in psi4, default
}

set PROPERTIES_ORIGIN ["COM"]
properties('MP2/aug-cc-pvtz', properties = ['dipole'])
--------------------------------------------------------------------------

    Molecular point group: c1
  Charge       = 0
  Multiplicity = 1
  Basis Set: AUG-CC-PVTZ
    Blend: AUG-CC-PVTZ
  Basis Set: (AUG-CC-PVTZ AUX)
    Blend: AUG-CC-PVTZ-JKFIT

    Orbital Energies [Eh]
    ---------------------

    Doubly Occupied:

       1A    -20.606952     2A    -20.541321     3A    -11.387038
       4A    -11.268733     5A    -11.248083     6A    -11.241301
       7A    -11.229150     8A     -1.460506     9A     -1.352416
      10A     -1.111170    11A     -1.024746    12A     -0.918766
      13A     -0.847767    14A     -0.740805    15A     -0.708819
      16A     -0.697410    17A     -0.632179    18A     -0.621690
      19A     -0.616943    20A     -0.602497    21A     -0.570977
      22A     -0.515289    23A     -0.512777    24A     -0.505091
      25A     -0.484138    26A     -0.451592    27A     -0.380775

  @DF-RHF Final Energy:  -343.86065268464915

   => Energetics <=

    Nuclear Repulsion Energy =            285.4843286975247452
    One-Electron Energy =               -1034.1321011213437941
    Two-Electron Energy =                 404.7871197391699525
    Total Energy =                       -343.8606526846491533
  Basis Set: (AUG-CC-PVTZ AUX)
    Blend: AUG-CC-PVTZ-RI
    Molecular point group: c1

    Geometry (in Angstrom), charge = 0, multiplicity = 1:

       Center              X                  Y                   Z               Mass
    ------------   -----------------  -----------------  -----------------  -----------------
         O           -2.200264934241    -1.156080778698    -0.000041790410    15.994914619570
         O           -2.000938934241     1.101817221302    -0.000072790410    15.994914619570
         C            2.344641065759     0.602812221302     0.000054209590    12.000000000000
         C            2.884365065759    -0.822691778698     0.000095209590    12.000000000000
         C            0.852114065759     0.726665221302     0.000010209590    12.000000000000
         C           -0.027283934241    -0.287052778698     0.000004209590    12.000000000000
         C           -1.475663934241    -0.001140778698    -0.000041790410    12.000000000000
         H            2.731486065759     1.148393221302     0.871545209590     1.007825032230
         H            2.731535065759     1.148361221302    -0.871435790410     1.007825032230
         H            3.977429065759    -0.816927778698     0.000125209590     1.007825032230
         H            2.550843065759    -1.370723778698    -0.885308790410     1.007825032230
         H            2.550793065759    -1.370691778698     0.885499209590     1.007825032230
         H            0.442487065759     1.737103221302    -0.000020790410     1.007825032230
         H            0.269940065759    -1.330023778698     0.000032209590     1.007825032230
         H           -3.089872934241    -0.887027278698    -0.000071190410     1.007825032230

  Basis Set: AUG-CC-PVTZ
    Blend: AUG-CC-PVTZ
  Basis Set: (AUG-CC-PVTZ AUX)
    Blend: AUG-CC-PVTZ-JKFIT
	 Reference Energy          =    -343.8606526846491533 [Eh]
	 Singles Energy            =      -0.0000000000000000 [Eh]
	 Same-Spin Energy          =      -0.3399974521998860 [Eh]
	 Opposite-Spin Energy      =      -1.0980725125572697 [Eh]
	 Correlation Energy        =      -1.4380699647571555 [Eh]
	 Total Energy              =    -345.2987226494063293 [Eh]

	 ================> DF-SCS-MP2 Energies <==================
	-----------------------------------------------------------
	 SCS Same-Spin Scale       =       0.3333333333333333 [-]
	 SCS Opposite-Spin Scale   =       1.2000000000000000 [-]
	 SCS Same-Spin Energy      =      -0.1133324840666287 [Eh]
	 SCS Opposite-Spin Energy  =      -1.3176870150687237 [Eh]
	 SCS Correlation Energy    =      -1.4310194991353522 [Eh]
	 SCS Total Energy          =    -345.2916721837844989 [Eh]
	-----------------------------------------------------------

  Dipole Moment: [D]
     X:     1.8778      Y:    -0.9438      Z:     0.0001     Total:     2.1016

*** Psi4 exiting successfully. Buy a developer a beer!
