                               Psi4 1.3.2 release

  ==> Input File <==

--------------------------------------------------------------------------
#psi4
#
memory 32 gb

molecule  {
0 1
  O        2.1793270    -1.1884030     0.0070830
  O        2.0147220     1.0703310     0.0037530
  C       -2.3333640     0.6373300    -0.0064140
  C       -2.8929490    -0.7786760    -0.0059160
  C       -0.8496278     0.7314575    -0.0031167
  C        0.0222220    -0.2866530     0.0001530
  C        1.4732850    -0.0238670     0.0030520
  H       -2.7101490     1.1874440    -0.8789970
  H       -2.7141290     1.1896330     0.8630350
  H       -3.9853730    -0.7577330    -0.0084480
  H       -2.5694230    -1.3301270     0.8805270
  H       -2.5653610    -1.3323610    -0.8894680
  H       -0.4156920     1.7426300    -0.0033930
  H       -0.3004104    -1.3216760     0.0007309
  H        3.1211320    -0.9203150     0.0096400
units angstrom
no_reorient  #important for SAPT in psi4, default
symmetry c1  #important for SAPT in psi4, default
}

set PROPERTIES_ORIGIN ["COM"]
properties('MP2/aug-cc-pvtz', properties = ['dipole'])
--------------------------------------------------------------------------

    Molecular point group: c1
  Charge       = 0
  Multiplicity = 1
  Basis Set: AUG-CC-PVTZ
    Blend: AUG-CC-PVTZ
  Basis Set: (AUG-CC-PVTZ AUX)
    Blend: AUG-CC-PVTZ-JKFIT

    Orbital Energies [Eh]
    ---------------------

    Doubly Occupied:

       1A    -20.610546     2A    -20.540319     3A    -11.386047
       4A    -11.267945     5A    -11.247095     6A    -11.240201
       7A    -11.228590     8A     -1.453073     9A     -1.348155
      10A     -1.112518    11A     -1.024297    12A     -0.916730
      13A     -0.843116    14A     -0.737264    15A     -0.706215
      16A     -0.693900    17A     -0.632554    18A     -0.620858
      19A     -0.617141    20A     -0.599518    21A     -0.569668
      22A     -0.515454    23A     -0.513950    24A     -0.502696
      25A     -0.482647    26A     -0.451075    27A     -0.380324

  @DF-RHF Final Energy:  -343.85984075968469

   => Energetics <=

    Nuclear Repulsion Energy =            285.5070053651752460
    One-Electron Energy =               -1034.2498979772233270
    Two-Electron Energy =                 404.8830518523633941
    Total Energy =                       -343.8598407596846869
  Basis Set: (AUG-CC-PVTZ AUX)
    Blend: AUG-CC-PVTZ-RI
    Molecular point group: c1

    Geometry (in Angstrom), charge = 0, multiplicity = 1:

       Center              X                  Y                   Z               Mass
    ------------   -----------------  -----------------  -----------------  -----------------
         O            2.180487857101    -1.187523174185     0.007084588922    15.994914619570
         O            2.015882857101     1.071210825815     0.003754588922    15.994914619570
         C           -2.332203142899     0.638209825815    -0.006412411078    12.000000000000
         C           -2.891788142899    -0.777796174185    -0.005914411078    12.000000000000
         C           -0.848466942899     0.732337325815    -0.003115111078    12.000000000000
         C            0.023382857101    -0.285773174185     0.000154588922    12.000000000000
         C            1.474445857101    -0.022987174185     0.003053588922    12.000000000000
         H           -2.708988142899     1.188323825815    -0.878995411078     1.007825032230
         H           -2.712968142899     1.190512825815     0.863036588922     1.007825032230
         H           -3.984212142899    -0.756853174185    -0.008446411078     1.007825032230
         H           -2.568262142899    -1.329247174185     0.880528588922     1.007825032230
         H           -2.564200142899    -1.331481174185    -0.889466411078     1.007825032230
         H           -0.414531142899     1.743509825815    -0.003391411078     1.007825032230
         H           -0.299249542899    -1.320796174185     0.000732488922     1.007825032230
         H            3.122292857101    -0.919435174185     0.009641588922     1.007825032230

  Basis Set: AUG-CC-PVTZ
    Blend: AUG-CC-PVTZ
  Basis Set: (AUG-CC-PVTZ AUX)
    Blend: AUG-CC-PVTZ-JKFIT
	 Reference Energy          =    -343.8598407596846869 [Eh]
	 Singles Energy            =      -0.0000000000000000 [Eh]
	 Same-Spin Energy          =      -0.3407675753639622 [Eh]
	 Opposite-Spin Energy      =      -1.0995535663718650 [Eh]
	 Correlation Energy        =      -1.4403211417358270 [Eh]
	 Total Energy              =    -345.3001619014204948 [Eh]

	 ================> DF-SCS-MP2 Energies <==================
	-----------------------------------------------------------
	 SCS Same-Spin Scale       =       0.3333333333333333 [-]
	 SCS Opposite-Spin Scale   =       1.2000000000000000 [-]
	 SCS Same-Spin Energy      =      -0.1135891917879874 [Eh]
	 SCS Opposite-Spin Energy  =      -1.3194642796462379 [Eh]
	 SCS Correlation Energy    =      -1.4330534714342253 [Eh]
	 SCS Total Energy          =    -345.2928942311189076 [Eh]
	-----------------------------------------------------------

  Dipole Moment: [D]
     X:    -1.8315      Y:    -0.9209      Z:    -0.0033     Total:     2.0500

*** Psi4 exiting successfully. Buy a developer a beer!
