                               Psi4 1.3.2 release

  ==> Input File <==

--------------------------------------------------------------------------
#psi4
#
memory 32 gb

molecule  {
0 1
  O        2.1793270    -1.1884030     0.0070830
  O        2.0147220     1.0703310     0.0037530
  C       -2.3333640     0.6373300    -0.0064140
  C       -2.8929490    -0.7786760    -0.0059160
  C       -0.8455398     0.7818792    -0.0684939
  C        0.0222220    -0.2866530     0.0001530
  C        1.4732850    -0.0238670     0.0030520
  H       -2.6557501     1.2001873    -0.8925586
  H       -2.7141290     1.1896330     0.8630350
  H       -3.9853730    -0.7577330    -0.0084480
  H       -2.5694230    -1.3301270     0.8805270
  H       -2.5653610    -1.3323610    -0.8894680
  H       -0.4156920     1.7426300    -0.0033930
  H       -0.2913660    -1.3244520     0.0007550
  H        3.1211320    -0.9203150     0.0096400
units angstrom
no_reorient  #important for SAPT in psi4, default
symmetry c1  #important for SAPT in psi4, default
}

set PROPERTIES_ORIGIN ["COM"]
properties('MP2/aug-cc-pvtz', properties = ['dipole'])
--------------------------------------------------------------------------

    Molecular point group: c1
  Charge       = 0
  Multiplicity = 1
  Basis Set: AUG-CC-PVTZ
    Blend: AUG-CC-PVTZ
  Basis Set: (AUG-CC-PVTZ AUX)
    Blend: AUG-CC-PVTZ-JKFIT

    Orbital Energies [Eh]
    ---------------------

    Doubly Occupied:

       1A    -20.609041     2A    -20.538280     3A    -11.383819
       4A    -11.271841     5A    -11.248458     6A    -11.243975
       7A    -11.230411     8A     -1.451565     9A     -1.346609
      10A     -1.108051    11A     -1.020472    12A     -0.920118
      13A     -0.839143    14A     -0.744684    15A     -0.702210
      16A     -0.694048    17A     -0.633742    18A     -0.620432
      19A     -0.613484    20A     -0.598678    21A     -0.568851
      22A     -0.520658    23A     -0.513420    24A     -0.506784
      25A     -0.481263    26A     -0.449045    27A     -0.371825

  @DF-RHF Final Energy:  -343.85408069438591

   => Energetics <=

    Nuclear Repulsion Energy =            284.9781105849595519
    One-Electron Energy =               -1033.2025657768272140
    Two-Electron Energy =                 404.3703744974818051
    Total Energy =                       -343.8540806943859138
  Basis Set: (AUG-CC-PVTZ AUX)
    Blend: AUG-CC-PVTZ-RI
    Molecular point group: c1

    Geometry (in Angstrom), charge = 0, multiplicity = 1:

       Center              X                  Y                   Z               Mass
    ------------   -----------------  -----------------  -----------------  -----------------
         O            2.179358491763    -1.193671007851     0.015062104665    15.994914619570
         O            2.014753491763     1.065062992149     0.011732104665    15.994914619570
         C           -2.333332508237     0.632061992149     0.001565104665    12.000000000000
         C           -2.892917508237    -0.783944007851     0.002063104665    12.000000000000
         C           -0.845508308237     0.776611192149    -0.060514795335    12.000000000000
         C            0.022253491763    -0.291921007851     0.008132104665    12.000000000000
         C            1.473316491763    -0.029135007851     0.011031104665    12.000000000000
         H           -2.655718608237     1.194919292149    -0.884579495335     1.007825032230
         H           -2.714097508237     1.184364992149     0.871014104665     1.007825032230
         H           -3.985341508237    -0.763001007851    -0.000468895335     1.007825032230
         H           -2.569391508237    -1.335395007851     0.888506104665     1.007825032230
         H           -2.565329508237    -1.337629007851    -0.881488895335     1.007825032230
         H           -0.415660508237     1.737361992149     0.004586104665     1.007825032230
         H           -0.291334508237    -1.329720007851     0.008734104665     1.007825032230
         H            3.121163491763    -0.925583007851     0.017619104665     1.007825032230

  Basis Set: AUG-CC-PVTZ
    Blend: AUG-CC-PVTZ
  Basis Set: (AUG-CC-PVTZ AUX)
    Blend: AUG-CC-PVTZ-JKFIT
	 Reference Energy          =    -343.8540806943859138 [Eh]
	 Singles Energy            =      -0.0000000000000000 [Eh]
	 Same-Spin Energy          =      -0.3410447356235899 [Eh]
	 Opposite-Spin Energy      =      -1.1003103858372443 [Eh]
	 Correlation Energy        =      -1.4413551214608342 [Eh]
	 Total Energy              =    -345.2954358158467585 [Eh]

	 ================> DF-SCS-MP2 Energies <==================
	-----------------------------------------------------------
	 SCS Same-Spin Scale       =       0.3333333333333333 [-]
	 SCS Opposite-Spin Scale   =       1.2000000000000000 [-]
	 SCS Same-Spin Energy      =      -0.1136815785411966 [Eh]
	 SCS Opposite-Spin Energy  =      -1.3203724630046931 [Eh]
	 SCS Correlation Energy    =      -1.4340540415458898 [Eh]
	 SCS Total Energy          =    -345.2881347359318056 [Eh]
	-----------------------------------------------------------

  Dipole Moment: [D]
     X:    -1.8619      Y:    -0.9220      Z:     0.0390     Total:     2.0781

*** Psi4 exiting successfully. Buy a developer a beer!
