                               Psi4 1.3.2 release

  ==> Input File <==

--------------------------------------------------------------------------
#psi4
#
memory 32 gb

molecule  {
0 1
  O        2.1382551    -1.2123343     0.0070344
  O        2.0147220     1.0703310     0.0037530
  C       -2.3333640     0.6373300    -0.0064140
  C       -2.8929490    -0.7786760    -0.0059160
  C       -0.8407100     0.7390270    -0.0031060
  C        0.0322768    -0.3371343     0.0002791
  C        1.4732850    -0.0238670     0.0030520
  H       -2.7101490     1.1874440    -0.8789970
  H       -2.7141290     1.1896330     0.8630350
  H       -3.9853730    -0.7577330    -0.0084480
  H       -2.5694230    -1.3301270     0.8805270
  H       -2.5653610    -1.3323610    -0.8894680
  H       -0.4156920     1.7426300    -0.0033930
  H       -0.2913660    -1.3244520     0.0007550
  H        3.1211320    -0.9203150     0.0096400
units angstrom
no_reorient  #important for SAPT in psi4, default
symmetry c1  #important for SAPT in psi4, default
}

set PROPERTIES_ORIGIN ["COM"]
properties('MP2/aug-cc-pvtz', properties = ['dipole'])
--------------------------------------------------------------------------

    Molecular point group: c1
  Charge       = 0
  Multiplicity = 1
  Basis Set: AUG-CC-PVTZ
    Blend: AUG-CC-PVTZ
  Basis Set: (AUG-CC-PVTZ AUX)
    Blend: AUG-CC-PVTZ-JKFIT

    Orbital Energies [Eh]
    ---------------------

    Doubly Occupied:

       1A    -20.613506     2A    -20.541672     3A    -11.384812
       4A    -11.275405     5A    -11.247532     6A    -11.239685
       7A    -11.228831     8A     -1.447433     9A     -1.346790
      10A     -1.105808    11A     -1.020825    12A     -0.915455
      13A     -0.832510    14A     -0.744348    15A     -0.699057
      16A     -0.692408    17A     -0.631542    18A     -0.619948
      19A     -0.615687    20A     -0.598062    21A     -0.571460
      22A     -0.514762    23A     -0.510189    24A     -0.508543
      25A     -0.482498    26A     -0.451727    27A     -0.371039

  @DF-RHF Final Energy:  -343.84819161719383

   => Energetics <=

    Nuclear Repulsion Energy =            285.0039618283046821
    One-Electron Energy =               -1033.2812386211182911
    Two-Electron Energy =                 404.4290851756197753
    Total Energy =                       -343.8481916171938337
  Basis Set: (AUG-CC-PVTZ AUX)
    Blend: AUG-CC-PVTZ-RI
    Molecular point group: c1

    Geometry (in Angstrom), charge = 0, multiplicity = 1:

       Center              X                  Y                   Z               Mass
    ------------   -----------------  -----------------  -----------------  -----------------
         O            2.143615307013    -1.202454008859     0.007027108221    15.994914619570
         O            2.020082207013     1.080211291141     0.003745708221    15.994914619570
         C           -2.328003792987     0.647210291141    -0.006421291779    12.000000000000
         C           -2.887588792987    -0.768795708859    -0.005923291779    12.000000000000
         C           -0.835349792987     0.748907291141    -0.003113291779    12.000000000000
         C            0.037637007013    -0.327254008859     0.000271808221    12.000000000000
         C            1.478645207013    -0.013986708859     0.003044708221    12.000000000000
         H           -2.704788792987     1.197324291141    -0.879004291779     1.007825032230
         H           -2.708768792987     1.199513291141     0.863027708221     1.007825032230
         H           -3.980012792987    -0.747852708859    -0.008455291779     1.007825032230
         H           -2.564062792987    -1.320246708859     0.880519708221     1.007825032230
         H           -2.560000792987    -1.322480708859    -0.889475291779     1.007825032230
         H           -0.410331792987     1.752510291141    -0.003400291779     1.007825032230
         H           -0.286005792987    -1.314571708859     0.000747708221     1.007825032230
         H            3.126492207013    -0.910434708859     0.009632708221     1.007825032230

  Basis Set: AUG-CC-PVTZ
    Blend: AUG-CC-PVTZ
  Basis Set: (AUG-CC-PVTZ AUX)
    Blend: AUG-CC-PVTZ-JKFIT
	 Reference Energy          =    -343.8481916171938337 [Eh]
	 Singles Energy            =      -0.0000000000000000 [Eh]
	 Same-Spin Energy          =      -0.3420371385837813 [Eh]
	 Opposite-Spin Energy      =      -1.1025063148544987 [Eh]
	 Correlation Energy        =      -1.4445434534382799 [Eh]
	 Total Energy              =    -345.2927350706320908 [Eh]

	 ================> DF-SCS-MP2 Energies <==================
	-----------------------------------------------------------
	 SCS Same-Spin Scale       =       0.3333333333333333 [-]
	 SCS Opposite-Spin Scale   =       1.2000000000000000 [-]
	 SCS Same-Spin Energy      =      -0.1140123795279271 [Eh]
	 SCS Opposite-Spin Energy  =      -1.3230075778253985 [Eh]
	 SCS Correlation Energy    =      -1.4370199573533255 [Eh]
	 SCS Total Energy          =    -345.2852115745471338 [Eh]
	-----------------------------------------------------------

  Dipole Moment: [D]
     X:    -1.7817      Y:    -0.9081      Z:    -0.0033     Total:     1.9998

*** Psi4 exiting successfully. Buy a developer a beer!
