                               Psi4 1.3.2 release

  ==> Input File <==

--------------------------------------------------------------------------
#psi4
#
memory 32 gb

molecule  {
0 1
  O        2.1793270    -1.1884030     0.0070830
  O        2.0147220     1.0703310     0.0037530
  C       -2.3333640     0.6373300    -0.0064140
  C       -2.8929490    -0.7786760    -0.0059160
  C       -0.8317265     0.7465184    -0.0030951
  C        0.0222220    -0.2866530     0.0001530
  C        1.4732850    -0.0238670     0.0030520
  H       -2.7101490     1.1874440    -0.8789970
  H       -2.7141290     1.1896330     0.8630350
  H       -3.9853730    -0.7577330    -0.0084480
  H       -2.5694230    -1.3301270     0.8805270
  H       -2.5653610    -1.3323610    -0.8894680
  H       -0.4156920     1.7426300    -0.0033930
  H       -0.2822977    -1.3271490     0.0007790
  H        3.1211320    -0.9203150     0.0096400
units angstrom
no_reorient  #important for SAPT in psi4, default
symmetry c1  #important for SAPT in psi4, default
}

set PROPERTIES_ORIGIN ["COM"]
properties('MP2/aug-cc-pvtz', properties = ['dipole'])
--------------------------------------------------------------------------

    Molecular point group: c1
  Charge       = 0
  Multiplicity = 1
  Basis Set: AUG-CC-PVTZ
    Blend: AUG-CC-PVTZ
  Basis Set: (AUG-CC-PVTZ AUX)
    Blend: AUG-CC-PVTZ-JKFIT

    Orbital Energies [Eh]
    ---------------------

    Doubly Occupied:

       1A    -20.610328     2A    -20.539803     3A    -11.385066
       4A    -11.267555     5A    -11.247599     6A    -11.240626
       7A    -11.228525     8A     -1.452852     9A     -1.347879
      10A     -1.110293    11A     -1.024041    12A     -0.915981
      13A     -0.841872    14A     -0.740826    15A     -0.704841
      16A     -0.694567    17A     -0.631338    18A     -0.620447
      19A     -0.614777    20A     -0.602229    21A     -0.569032
      22A     -0.514462    23A     -0.511034    24A     -0.506607
      25A     -0.482520    26A     -0.450280    27A     -0.380889

  @DF-RHF Final Energy:  -343.86024024227629

   => Energetics <=

    Nuclear Repulsion Energy =            285.3971594145274366
    One-Electron Energy =               -1034.0422582763142145
    Two-Electron Energy =                 404.7848586195104872
    Total Energy =                       -343.8602402422762907
  Basis Set: (AUG-CC-PVTZ AUX)
    Blend: AUG-CC-PVTZ-RI
    Molecular point group: c1

    Geometry (in Angstrom), charge = 0, multiplicity = 1:

       Center              X                  Y                   Z               Mass
    ------------   -----------------  -----------------  -----------------  -----------------
         O            2.178158378110    -1.189274405759     0.007081513771    15.994914619570
         O            2.013553378110     1.069459594241     0.003751513771    15.994914619570
         C           -2.334532621890     0.636458594241    -0.006415486229    12.000000000000
         C           -2.894117621890    -0.779547405759    -0.005917486229    12.000000000000
         C           -0.832895121890     0.745646994241    -0.003096586229    12.000000000000
         C            0.021053378110    -0.287524405759     0.000151513771    12.000000000000
         C            1.472116378110    -0.024738405759     0.003050513771    12.000000000000
         H           -2.711317621890     1.186572594241    -0.878998486229     1.007825032230
         H           -2.715297621890     1.188761594241     0.863033513771     1.007825032230
         H           -3.986541621890    -0.758604405759    -0.008449486229     1.007825032230
         H           -2.570591621890    -1.330998405759     0.880525513771     1.007825032230
         H           -2.566529621890    -1.333232405759    -0.889469486229     1.007825032230
         H           -0.416860621890     1.741758594241    -0.003394486229     1.007825032230
         H           -0.283466321890    -1.328020405759     0.000777513771     1.007825032230
         H            3.119963378110    -0.921186405759     0.009638513771     1.007825032230

  Basis Set: AUG-CC-PVTZ
    Blend: AUG-CC-PVTZ
  Basis Set: (AUG-CC-PVTZ AUX)
    Blend: AUG-CC-PVTZ-JKFIT
	 Reference Energy          =    -343.8602402422762907 [Eh]
	 Singles Energy            =      -0.0000000000000000 [Eh]
	 Same-Spin Energy          =      -0.3405209621677800 [Eh]
	 Opposite-Spin Energy      =      -1.0992764119059264 [Eh]
	 Correlation Energy        =      -1.4397973740737064 [Eh]
	 Total Energy              =    -345.3000376163499823 [Eh]

	 ================> DF-SCS-MP2 Energies <==================
	-----------------------------------------------------------
	 SCS Same-Spin Scale       =       0.3333333333333333 [-]
	 SCS Opposite-Spin Scale   =       1.2000000000000000 [-]
	 SCS Same-Spin Energy      =      -0.1135069873892600 [Eh]
	 SCS Opposite-Spin Energy  =      -1.3191316942871116 [Eh]
	 SCS Correlation Energy    =      -1.4326386816763717 [Eh]
	 SCS Total Energy          =    -345.2928789239526850 [Eh]
	-----------------------------------------------------------

  Dipole Moment: [D]
     X:    -1.8066      Y:    -0.9257      Z:    -0.0033     Total:     2.0299

*** Psi4 exiting successfully. Buy a developer a beer!
