                               Psi4 1.3.2 release

  ==> Input File <==

--------------------------------------------------------------------------
#psi4
#
memory 32 gb

molecule  {
0 1
  O        2.1793270    -1.1884030     0.0070830
  O        2.0147220     1.0703310     0.0037530
  C       -2.3289057     0.5852990    -0.0063381
  C       -2.8929490    -0.7786760    -0.0059160
  C       -0.8407100     0.7390270    -0.0031060
  C        0.0222220    -0.2866530     0.0001530
  C        1.4732850    -0.0238670     0.0030520
  H       -2.7101490     1.1874440    -0.8789970
  H       -2.7141290     1.1896330     0.8630350
  H       -3.9853730    -0.7577330    -0.0084480
  H       -2.5694230    -1.3301270     0.8805270
  H       -2.5653610    -1.3323610    -0.8894680
  H       -0.3809258     1.7271858    -0.0032935
  H       -0.2913660    -1.3244520     0.0007550
  H        3.1211320    -0.9203150     0.0096400
units angstrom
no_reorient  #important for SAPT in psi4, default
symmetry c1  #important for SAPT in psi4, default
}

set PROPERTIES_ORIGIN ["COM"]
properties('MP2/aug-cc-pvtz', properties = ['dipole'])
--------------------------------------------------------------------------

    Molecular point group: c1
  Charge       = 0
  Multiplicity = 1
  Basis Set: AUG-CC-PVTZ
    Blend: AUG-CC-PVTZ
  Basis Set: (AUG-CC-PVTZ AUX)
    Blend: AUG-CC-PVTZ-JKFIT

    Orbital Energies [Eh]
    ---------------------

    Doubly Occupied:

       1A    -20.610203     2A    -20.540073     3A    -11.385203
       4A    -11.267783     5A    -11.250983     6A    -11.238698
       7A    -11.227676     8A     -1.452820     9A     -1.348060
      10A     -1.114765    11A     -1.029495    12A     -0.916807
      13A     -0.839116    14A     -0.738004    15A     -0.706195
      16A     -0.694311    17A     -0.630346    18A     -0.620071
      19A     -0.617839    20A     -0.601066    21A     -0.572930
      22A     -0.518550    23A     -0.506952    24A     -0.506361
      25A     -0.482156    26A     -0.450563    27A     -0.378388

  @DF-RHF Final Energy:  -343.85631143600358

   => Energetics <=

    Nuclear Repulsion Energy =            285.9435258378464368
    One-Electron Energy =               -1035.1088440612857084
    Two-Electron Energy =                 405.3090067874356919
    Total Energy =                       -343.8563114360035797
  Basis Set: (AUG-CC-PVTZ AUX)
    Blend: AUG-CC-PVTZ-RI
    Molecular point group: c1

    Geometry (in Angstrom), charge = 0, multiplicity = 1:

       Center              X                  Y                   Z               Mass
    ------------   -----------------  -----------------  -----------------  -----------------
         O            2.178442263402    -1.182007058520     0.007072957349    15.994914619570
         O            2.013837263402     1.076726941480     0.003742957349    15.994914619570
         C           -2.329790436598     0.591694941480    -0.006348142651    12.000000000000
         C           -2.893833736598    -0.772280058520    -0.005926042651    12.000000000000
         C           -0.841594736598     0.745422941480    -0.003116042651    12.000000000000
         C            0.021337263402    -0.280257058520     0.000142957349    12.000000000000
         C            1.472400263402    -0.017471058520     0.003041957349    12.000000000000
         H           -2.711033736598     1.193839941480    -0.879007042651     1.007825032230
         H           -2.715013736598     1.196028941480     0.863024957349     1.007825032230
         H           -3.986257736598    -0.751337058520    -0.008458042651     1.007825032230
         H           -2.570307736598    -1.323731058520     0.880516957349     1.007825032230
         H           -2.566245736598    -1.325965058520    -0.889478042651     1.007825032230
         H           -0.381810536598     1.733581741480    -0.003303542651     1.007825032230
         H           -0.292250736598    -1.318056058520     0.000744957349     1.007825032230
         H            3.120247263402    -0.913919058520     0.009629957349     1.007825032230

  Basis Set: AUG-CC-PVTZ
    Blend: AUG-CC-PVTZ
  Basis Set: (AUG-CC-PVTZ AUX)
    Blend: AUG-CC-PVTZ-JKFIT
	 Reference Energy          =    -343.8563114360035797 [Eh]
	 Singles Energy            =      -0.0000000000000000 [Eh]
	 Same-Spin Energy          =      -0.3412109035721440 [Eh]
	 Opposite-Spin Energy      =      -1.0998945088830161 [Eh]
	 Correlation Energy        =      -1.4411054124551601 [Eh]
	 Total Energy              =    -345.2974168484587381 [Eh]

	 ================> DF-SCS-MP2 Energies <==================
	-----------------------------------------------------------
	 SCS Same-Spin Scale       =       0.3333333333333333 [-]
	 SCS Opposite-Spin Scale   =       1.2000000000000000 [-]
	 SCS Same-Spin Energy      =      -0.1137369678573813 [Eh]
	 SCS Opposite-Spin Energy  =      -1.3198734106596193 [Eh]
	 SCS Correlation Energy    =      -1.4336103785170007 [Eh]
	 SCS Total Energy          =    -345.2899218145205964 [Eh]
	-----------------------------------------------------------

  Dipole Moment: [D]
     X:    -1.8521      Y:    -0.9549      Z:    -0.0034     Total:     2.0838

*** Psi4 exiting successfully. Buy a developer a beer!
