                               Psi4 1.4a3.dev225

  ==> Input File <==

--------------------------------------------------------------------------
#psi4
#
memory 32 gb

molecule  {
0 1
  O       -2.3109350    -1.1403470    -0.0000450
  O       -2.1116090     1.1175510    -0.0000760
  C        2.2339710     0.6185460     0.0000510
  C        2.7736950    -0.8069580     0.0000920
  C        0.7414440     0.7423990     0.0000070
  C       -0.1379540    -0.2713190     0.0000010
  C       -1.5863340     0.0145930    -0.0000450
  H        2.6208160     1.1641270     0.8715420
  H        2.6208650     1.1640950    -0.8714390
  H        3.8667590    -0.8011940     0.0001220
  H        2.4401730    -1.3549900    -0.8853120
  H        2.4401230    -1.3549580     0.8854960
  H        0.3318170     1.7528370    -0.0000240
  H        0.1592700    -1.3142900     0.0000290
  H       -3.2675456    -0.8510292    -0.0000766
units angstrom
no_reorient  #important for SAPT in psi4, default
symmetry c1  #important for SAPT in psi4, default
}

set PROPERTIES_ORIGIN ["COM"]
properties('MP2/aug-cc-pvtz', properties = ['dipole'])
--------------------------------------------------------------------------

    Molecular point group: c1
  Charge       = 0
  Multiplicity = 1
  Basis Set: AUG-CC-PVTZ
    Blend: AUG-CC-PVTZ
  Basis Set: (AUG-CC-PVTZ AUX)
    Blend: AUG-CC-PVTZ-JKFIT

    Orbital Energies [Eh]
    ---------------------

    Doubly Occupied:

       1A    -20.611699     2A    -20.540038     3A    -11.385761
       4A    -11.268234     5A    -11.247742     6A    -11.241019
       7A    -11.228861     8A     -1.449380     9A     -1.345840
      10A     -1.110507    11A     -1.023327    12A     -0.915114
      13A     -0.840005    14A     -0.738334    15A     -0.703690
      16A     -0.692332    17A     -0.631368    18A     -0.619638
      19A     -0.615212    20A     -0.599819    21A     -0.568576
      22A     -0.514937    23A     -0.512173    24A     -0.504657
      25A     -0.481913    26A     -0.450359    27A     -0.380315

  @DF-RHF Final Energy:  -343.85828807372184

   => Energetics <=

    Nuclear Repulsion Energy =            285.0577539412716419
    One-Electron Energy =               -1033.3903837766890774
    Two-Electron Energy =                 404.4743417616956549
    Total Energy =                       -343.8582880737218375
  Basis Set: (AUG-CC-PVTZ AUX)
    Blend: AUG-CC-PVTZ-RI
    Molecular point group: c1

    Geometry (in Angstrom), charge = 0, multiplicity = 1:

       Center              X                  Y                   Z               Mass
    ------------   -----------------  -----------------  -----------------  -----------------
         O           -2.199590019121    -1.156284900366    -0.000041768249    15.994914619570
         O           -2.000264019121     1.101613099634    -0.000072768249    15.994914619570
         C            2.345315980879     0.602608099634     0.000054231751    12.000000000000
         C            2.885039980879    -0.822895900366     0.000095231751    12.000000000000
         C            0.852788980879     0.726461099634     0.000010231751    12.000000000000
         C           -0.026609019121    -0.287256900366     0.000004231751    12.000000000000
         C           -1.474989019121    -0.001344900366    -0.000041768249    12.000000000000
         H            2.732160980879     1.148189099634     0.871545231751     1.007825032230
         H            2.732209980879     1.148157099634    -0.871435768249     1.007825032230
         H            3.978103980879    -0.817131900366     0.000125231751     1.007825032230
         H            2.551517980879    -1.370927900366    -0.885308768249     1.007825032230
         H            2.551467980879    -1.370895900366     0.885499231751     1.007825032230
         H            0.443161980879     1.736899099634    -0.000020768249     1.007825032230
         H            0.270614980879    -1.330227900366     0.000032231751     1.007825032230
         H           -3.156200619121    -0.866967100366    -0.000073368249     1.007825032230

  Basis Set: AUG-CC-PVTZ
    Blend: AUG-CC-PVTZ
  Basis Set: (AUG-CC-PVTZ AUX)
    Blend: AUG-CC-PVTZ-JKFIT
	 Reference Energy          =    -343.8582880737218375 [Eh]
	 Singles Energy            =      -0.0000000000000000 [Eh]
	 Same-Spin Energy          =      -0.3408948749509469 [Eh]
	 Opposite-Spin Energy      =      -1.1001677620542349 [Eh]
	 Correlation Energy        =      -1.4410626370051820 [Eh]
	 Total Energy              =    -345.2993507107270261 [Eh]

	 ================> DF-SCS-MP2 Energies <==================
	-----------------------------------------------------------
	 SCS Same-Spin Scale       =       0.3333333333333333 [-]
	 SCS Opposite-Spin Scale   =       1.2000000000000000 [-]
	 SCS Same-Spin Energy      =      -0.1136316249836490 [Eh]
	 SCS Opposite-Spin Energy  =      -1.3202013144650819 [Eh]
	 SCS Correlation Energy    =      -1.4338329394487308 [Eh]
	 SCS Total Energy          =    -345.2921210131705720 [Eh]
	-----------------------------------------------------------

  Dipole Moment: [D]
     X:     1.7840      Y:    -0.9465      Z:     0.0001     Total:     2.0195

*** Psi4 exiting successfully. Buy a developer a beer!
