                               Psi4 1.3.2 release

  ==> Input File <==

--------------------------------------------------------------------------
#psi4
#
memory 32 gb

molecule  {
0 1
  O        2.1793270    -1.1884030     0.0070830
  O        2.0147220     1.0703310     0.0037530
  C       -2.3333640     0.6373300    -0.0064140
  C       -2.8929490    -0.7786760    -0.0059160
  C       -0.8397627     0.7102967     0.0404919
  C        0.0222220    -0.2866530     0.0001530
  C        1.4732850    -0.0238670     0.0030520
  H       -2.7458502     1.1781085    -0.8686246
  H       -2.7141290     1.1896330     0.8630350
  H       -3.9853730    -0.7577330    -0.0084480
  H       -2.5694230    -1.3301270     0.8805270
  H       -2.5653610    -1.3323610    -0.8894680
  H       -0.4156920     1.7426300    -0.0033930
  H       -0.2913660    -1.3244520     0.0007550
  H        3.1211320    -0.9203150     0.0096400
units angstrom
no_reorient  #important for SAPT in psi4, default
symmetry c1  #important for SAPT in psi4, default
}

set PROPERTIES_ORIGIN ["COM"]
properties('MP2/aug-cc-pvtz', properties = ['dipole'])
--------------------------------------------------------------------------

    Molecular point group: c1
  Charge       = 0
  Multiplicity = 1
  Basis Set: AUG-CC-PVTZ
    Blend: AUG-CC-PVTZ
  Basis Set: (AUG-CC-PVTZ AUX)
    Blend: AUG-CC-PVTZ-JKFIT

    Orbital Energies [Eh]
    ---------------------

    Doubly Occupied:

       1A    -20.611471     2A    -20.541419     3A    -11.386858
       4A    -11.265865     5A    -11.246802     6A    -11.238746
       7A    -11.227344     8A     -1.454001     9A     -1.349060
      10A     -1.113881    11A     -1.026430    12A     -0.914151
      13A     -0.844726    14A     -0.735592    15A     -0.707709
      16A     -0.694048    17A     -0.631660    18A     -0.621878
      19A     -0.617398    20A     -0.600660    21A     -0.569377
      22A     -0.515477    23A     -0.512771    24A     -0.496061
      25A     -0.483412    26A     -0.451866    27A     -0.386005

  @DF-RHF Final Energy:  -343.85835481950778

   => Energetics <=

    Nuclear Repulsion Energy =            285.7206307462221275
    One-Electron Energy =               -1034.6686355203326002
    Two-Electron Energy =                 405.0896499546026917
    Total Energy =                       -343.8583548195077810
  Basis Set: (AUG-CC-PVTZ AUX)
    Blend: AUG-CC-PVTZ-RI
    Molecular point group: c1

    Geometry (in Angstrom), charge = 0, multiplicity = 1:

       Center              X                  Y                   Z               Mass
    ------------   -----------------  -----------------  -----------------  -----------------
         O            2.179573178565    -1.184863210062     0.001749575514    15.994914619570
         O            2.014968178565     1.073870789938    -0.001580424486    15.994914619570
         C           -2.333117821435     0.640869789938    -0.011747424486    12.000000000000
         C           -2.892702821435    -0.775136210062    -0.011249424486    12.000000000000
         C           -0.839516521435     0.713836489938     0.035158475514    12.000000000000
         C            0.022468178565    -0.283113210062    -0.005180424486    12.000000000000
         C            1.473531178565    -0.020327210062    -0.002281424486    12.000000000000
         H           -2.745604021435     1.181648289938    -0.873958024486     1.007825032230
         H           -2.713882821435     1.193172789938     0.857701575514     1.007825032230
         H           -3.985126821435    -0.754193210062    -0.013781424486     1.007825032230
         H           -2.569176821435    -1.326587210062     0.875193575514     1.007825032230
         H           -2.565114821435    -1.328821210062    -0.894801424486     1.007825032230
         H           -0.415445821435     1.746169789938    -0.008726424486     1.007825032230
         H           -0.291119821435    -1.320912210062    -0.004578424486     1.007825032230
         H            3.121378178565    -0.916775210062     0.004306575514     1.007825032230

  Basis Set: AUG-CC-PVTZ
    Blend: AUG-CC-PVTZ
  Basis Set: (AUG-CC-PVTZ AUX)
    Blend: AUG-CC-PVTZ-JKFIT
	 Reference Energy          =    -343.8583548195077810 [Eh]
	 Singles Energy            =      -0.0000000000000000 [Eh]
	 Same-Spin Energy          =      -0.3406196221328520 [Eh]
	 Opposite-Spin Energy      =      -1.0993413354420509 [Eh]
	 Correlation Energy        =      -1.4399609575749028 [Eh]
	 Total Energy              =    -345.2983157770826779 [Eh]

	 ================> DF-SCS-MP2 Energies <==================
	-----------------------------------------------------------
	 SCS Same-Spin Scale       =       0.3333333333333333 [-]
	 SCS Opposite-Spin Scale   =       1.2000000000000000 [-]
	 SCS Same-Spin Energy      =      -0.1135398740442840 [Eh]
	 SCS Opposite-Spin Energy  =      -1.3192096025304612 [Eh]
	 SCS Correlation Energy    =      -1.4327494765747451 [Eh]
	 SCS Total Energy          =    -345.2911042960825512 [Eh]
	-----------------------------------------------------------

  Dipole Moment: [D]
     X:    -1.7781      Y:    -0.9356      Z:    -0.0307     Total:     2.0095

*** Psi4 exiting successfully. Buy a developer a beer!
