                               Psi4 1.3.2 release

  ==> Input File <==

--------------------------------------------------------------------------
#psi4
#
memory 32 gb

molecule  {
0 1
  O        2.1793270    -1.1884030     0.0070830
  O        2.0147220     1.0703310     0.0037530
  C       -2.3333640     0.6373300    -0.0064140
  C       -2.8929490    -0.7786760    -0.0059160
  C       -0.8317265     0.7465184    -0.0030957
  C        0.0222220    -0.2866530     0.0001530
  C        1.4709366    -0.0112142     0.0030303
  H       -2.7101490     1.1874440    -0.8789970
  H       -2.7141290     1.1896330     0.8630350
  H       -3.9853730    -0.7577330    -0.0084480
  H       -2.5694230    -1.3301270     0.8805270
  H       -2.5653610    -1.3323610    -0.8894680
  H       -0.4156920     1.7426300    -0.0033930
  H       -0.2913660    -1.3244520     0.0007550
  H        3.1211320    -0.9203150     0.0096400
units angstrom
no_reorient  #important for SAPT in psi4, default
symmetry c1  #important for SAPT in psi4, default
}

set PROPERTIES_ORIGIN ["COM"]
properties('MP2/aug-cc-pvtz', properties = ['dipole'])
--------------------------------------------------------------------------

    Molecular point group: c1
  Charge       = 0
  Multiplicity = 1
  Basis Set: AUG-CC-PVTZ
    Blend: AUG-CC-PVTZ
  Basis Set: (AUG-CC-PVTZ AUX)
    Blend: AUG-CC-PVTZ-JKFIT

    Orbital Energies [Eh]
    ---------------------

    Doubly Occupied:

       1A    -20.606794     2A    -20.542361     3A    -11.384742
       4A    -11.267424     5A    -11.247658     6A    -11.240751
       7A    -11.228666     8A     -1.450594     9A     -1.351432
      10A     -1.110692    11A     -1.024214    12A     -0.915125
      13A     -0.839765    14A     -0.739750    15A     -0.704615
      16A     -0.693989    17A     -0.631120    18A     -0.619033
      19A     -0.615779    20A     -0.601169    21A     -0.571206
      22A     -0.514568    23A     -0.511051    24A     -0.507087
      25A     -0.484835    26A     -0.451579    27A     -0.381491

  @DF-RHF Final Energy:  -343.86045591399557

   => Energetics <=

    Nuclear Repulsion Energy =            285.4329992147814323
    One-Electron Energy =               -1034.1119252037547085
    Two-Electron Energy =                 404.8184700749777676
    Total Energy =                       -343.8604559139955654
  Basis Set: (AUG-CC-PVTZ AUX)
    Blend: AUG-CC-PVTZ-RI
    Molecular point group: c1

    Geometry (in Angstrom), charge = 0, multiplicity = 1:

       Center              X                  Y                   Z               Mass
    ------------   -----------------  -----------------  -----------------  -----------------
         O            2.178531383143    -1.190819112918     0.007084430120    15.994914619570
         O            2.013926383143     1.067914887082     0.003754430120    15.994914619570
         C           -2.334159616857     0.634913887082    -0.006412569880    12.000000000000
         C           -2.893744616857    -0.781092112918    -0.005914569880    12.000000000000
         C           -0.832522116857     0.744102287082    -0.003094269880    12.000000000000
         C            0.021426383143    -0.289069112918     0.000154430120    12.000000000000
         C            1.470140983143    -0.013630312918     0.003031730120    12.000000000000
         H           -2.710944616857     1.185027887082    -0.878995569880     1.007825032230
         H           -2.714924616857     1.187216887082     0.863036430120     1.007825032230
         H           -3.986168616857    -0.760149112918    -0.008446569880     1.007825032230
         H           -2.570218616857    -1.332543112918     0.880528430120     1.007825032230
         H           -2.566156616857    -1.334777112918    -0.889466569880     1.007825032230
         H           -0.416487616857     1.740213887082    -0.003391569880     1.007825032230
         H           -0.292161616857    -1.326868112918     0.000756430120     1.007825032230
         H            3.120336383143    -0.922731112918     0.009641430120     1.007825032230

  Basis Set: AUG-CC-PVTZ
    Blend: AUG-CC-PVTZ
  Basis Set: (AUG-CC-PVTZ AUX)
    Blend: AUG-CC-PVTZ-JKFIT
	 Reference Energy          =    -343.8604559139955654 [Eh]
	 Singles Energy            =      -0.0000000000000000 [Eh]
	 Same-Spin Energy          =      -0.3404305795130717 [Eh]
	 Opposite-Spin Energy      =      -1.0991489150655616 [Eh]
	 Correlation Energy        =      -1.4395794945786333 [Eh]
	 Total Energy              =    -345.3000354085742174 [Eh]

	 ================> DF-SCS-MP2 Energies <==================
	-----------------------------------------------------------
	 SCS Same-Spin Scale       =       0.3333333333333333 [-]
	 SCS Opposite-Spin Scale   =       1.2000000000000000 [-]
	 SCS Same-Spin Energy      =      -0.1134768598376906 [Eh]
	 SCS Opposite-Spin Energy  =      -1.3189786980786737 [Eh]
	 SCS Correlation Energy    =      -1.4324555579163643 [Eh]
	 SCS Total Energy          =    -345.2929114719119070 [Eh]
	-----------------------------------------------------------

  Dipole Moment: [D]
     X:    -1.8417      Y:    -0.8223      Z:    -0.0035     Total:     2.0169

*** Psi4 exiting successfully. Buy a developer a beer!
