                               Psi4 1.4a3.dev225

  ==> Input File <==

--------------------------------------------------------------------------
#psi4
#
memory 32 gb

molecule  {
0 1
  O       -2.3109350    -1.1403470    -0.0000450
  O       -2.1116090     1.1175510    -0.0000760
  C        2.2339710     0.6185460     0.0000510
  C        2.7736950    -0.8069580     0.0000920
  C        0.7414440     0.7423990     0.0000070
  C       -0.1379540    -0.2713190     0.0000010
  C       -1.5863340     0.0145930    -0.0000450
  H        2.6208160     1.1641270     0.8715420
  H        2.6208650     1.1640950    -0.8714390
  H        3.8667590    -0.8011940     0.0001220
  H        2.4401730    -1.3549900    -0.8853120
  H        2.4401230    -1.3549580     0.8854960
  H        0.3318170     1.7528370    -0.0000240
  H        0.1751835    -1.3264045     0.0000297
  H       -3.2484020    -0.8568190    -0.0000760
units angstrom
no_reorient  #important for SAPT in psi4, default
symmetry c1  #important for SAPT in psi4, default
}

set PROPERTIES_ORIGIN ["COM"]
properties('MP2/aug-cc-pvtz', properties = ['dipole'])
--------------------------------------------------------------------------

    Molecular point group: c1
  Charge       = 0
  Multiplicity = 1
  Basis Set: AUG-CC-PVTZ
    Blend: AUG-CC-PVTZ
  Basis Set: (AUG-CC-PVTZ AUX)
    Blend: AUG-CC-PVTZ-JKFIT

    Orbital Energies [Eh]
    ---------------------

    Doubly Occupied:

       1A    -20.610436     2A    -20.540661     3A    -11.386573
       4A    -11.268276     5A    -11.247856     6A    -11.242754
       7A    -11.228959     8A     -1.452294     9A     -1.347839
      10A     -1.110485    11A     -1.023315    12A     -0.915776
      13A     -0.842218    14A     -0.737116    15A     -0.704735
      16A     -0.694069    17A     -0.631610    18A     -0.620274
      19A     -0.615760    20A     -0.598953    21A     -0.568635
      22A     -0.515061    23A     -0.512337    24A     -0.504340
      25A     -0.482648    26A     -0.450906    27A     -0.380469

  @DF-RHF Final Energy:  -343.85935017647961

   => Energetics <=

    Nuclear Repulsion Energy =            285.1042115238004158
    One-Electron Energy =               -1033.4584170592763712
    Two-Electron Energy =                 404.4948553589964035
    Total Energy =                       -343.8593501764796088
  Basis Set: (AUG-CC-PVTZ AUX)
    Blend: AUG-CC-PVTZ-RI
    Molecular point group: c1

    Geometry (in Angstrom), charge = 0, multiplicity = 1:

       Center              X                  Y                   Z               Mass
    ------------   -----------------  -----------------  -----------------  -----------------
         O           -2.199943148206    -1.156104550905    -0.000041781344    15.994914619570
         O           -2.000617148206     1.101793449095    -0.000072781344    15.994914619570
         C            2.344962851794     0.602788449095     0.000054218656    12.000000000000
         C            2.884686851794    -0.822715550905     0.000095218656    12.000000000000
         C            0.852435851794     0.726641449095     0.000010218656    12.000000000000
         C           -0.026962148206    -0.287076550905     0.000004218656    12.000000000000
         C           -1.475342148206    -0.001164550905    -0.000041781344    12.000000000000
         H            2.731807851794     1.148369449095     0.871545218656     1.007825032230
         H            2.731856851794     1.148337449095    -0.871435781344     1.007825032230
         H            3.977750851794    -0.816951550905     0.000125218656     1.007825032230
         H            2.551164851794    -1.370747550905    -0.885308781344     1.007825032230
         H            2.551114851794    -1.370715550905     0.885499218656     1.007825032230
         H            0.442808851794     1.737079449095    -0.000020781344     1.007825032230
         H            0.286175351794    -1.342162050905     0.000032918656     1.007825032230
         H           -3.137410148206    -0.872576550905    -0.000072781344     1.007825032230

  Basis Set: AUG-CC-PVTZ
    Blend: AUG-CC-PVTZ
  Basis Set: (AUG-CC-PVTZ AUX)
    Blend: AUG-CC-PVTZ-JKFIT
	 Reference Energy          =    -343.8593501764796088 [Eh]
	 Singles Energy            =      -0.0000000000000000 [Eh]
	 Same-Spin Energy          =      -0.3407042768436161 [Eh]
	 Opposite-Spin Energy      =      -1.0997022796266487 [Eh]
	 Correlation Energy        =      -1.4404065564702648 [Eh]
	 Total Energy              =    -345.2997567329498452 [Eh]

	 ================> DF-SCS-MP2 Energies <==================
	-----------------------------------------------------------
	 SCS Same-Spin Scale       =       0.3333333333333333 [-]
	 SCS Opposite-Spin Scale   =       1.2000000000000000 [-]
	 SCS Same-Spin Energy      =      -0.1135680922812054 [Eh]
	 SCS Opposite-Spin Energy  =      -1.3196427355519784 [Eh]
	 SCS Correlation Energy    =      -1.4332108278331839 [Eh]
	 SCS Total Energy          =    -345.2925610043128017 [Eh]
	-----------------------------------------------------------

  Dipole Moment: [D]
     X:     1.8104      Y:    -0.9432      Z:     0.0001     Total:     2.0414

*** Psi4 exiting successfully. Buy a developer a beer!
