                               Psi4 1.3.2 release

  ==> Input File <==

--------------------------------------------------------------------------
#psi4
#
memory 32 gb

molecule  {
0 1
  O        2.1793270    -1.1884030     0.0070830
  O        2.0147220     1.0703310     0.0037530
  C       -2.3333640     0.6373300    -0.0064140
  C       -2.8929490    -0.7786760    -0.0059160
  C       -0.8407100     0.7390270    -0.0031060
  C        0.0222220    -0.2866530     0.0001530
  C        1.4815720    -0.0746685     0.0031341
  H       -2.7101490     1.1874440    -0.8789970
  H       -2.7141290     1.1896330     0.8630350
  H       -3.9853730    -0.7577330    -0.0084480
  H       -2.5694230    -1.3301270     0.8805270
  H       -2.5653610    -1.3323610    -0.8894680
  H       -0.4156920     1.7426300    -0.0033930
  H       -0.2549564    -1.3347638     0.0008489
  H        3.1211320    -0.9203150     0.0096400
units angstrom
no_reorient  #important for SAPT in psi4, default
symmetry c1  #important for SAPT in psi4, default
}

set PROPERTIES_ORIGIN ["COM"]
properties('MP2/aug-cc-pvtz', properties = ['dipole'])
--------------------------------------------------------------------------

    Molecular point group: c1
  Charge       = 0
  Multiplicity = 1
  Basis Set: AUG-CC-PVTZ
    Blend: AUG-CC-PVTZ
  Basis Set: (AUG-CC-PVTZ AUX)
    Blend: AUG-CC-PVTZ-JKFIT

    Orbital Energies [Eh]
    ---------------------

    Doubly Occupied:

       1A    -20.624111     2A    -20.529590     3A    -11.386765
       4A    -11.268480     5A    -11.247217     6A    -11.240299
       7A    -11.228074     8A     -1.470995     9A     -1.326253
      10A     -1.110035    11A     -1.023798    12A     -0.920515
      13A     -0.851426    14A     -0.746699    15A     -0.704488
      16A     -0.699064    17A     -0.636352    18A     -0.626369
      19A     -0.612134    20A     -0.604232    21A     -0.558662
      22A     -0.514577    23A     -0.512269    24A     -0.502938
      25A     -0.471163    26A     -0.443321    27A     -0.378169

  @DF-RHF Final Energy:  -343.85435563826564

   => Energetics <=

    Nuclear Repulsion Energy =            285.3483835618746980
    One-Electron Energy =               -1033.9294912450318407
    Two-Electron Energy =                 404.7267520448914979
    Total Energy =                       -343.8543556382656448
  Basis Set: (AUG-CC-PVTZ AUX)
    Blend: AUG-CC-PVTZ-RI
    Molecular point group: c1

    Geometry (in Angstrom), charge = 0, multiplicity = 1:

       Center              X                  Y                   Z               Mass
    ------------   -----------------  -----------------  -----------------  -----------------
         O            2.177966506242    -1.182206219713     0.007072270147    15.994914619570
         O            2.013361506242     1.076527780287     0.003742270147    15.994914619570
         C           -2.334724493758     0.643526780287    -0.006424729853    12.000000000000
         C           -2.894309493758    -0.772479219713    -0.005926729853    12.000000000000
         C           -0.842070493758     0.745223780287    -0.003116729853    12.000000000000
         C            0.020861506242    -0.280456219713     0.000142270147    12.000000000000
         C            1.480211506242    -0.068471719713     0.003123370147    12.000000000000
         H           -2.711509493758     1.193640780287    -0.879007729853     1.007825032230
         H           -2.715489493758     1.195829780287     0.863024270147     1.007825032230
         H           -3.986733493758    -0.751536219713    -0.008458729853     1.007825032230
         H           -2.570783493758    -1.323930219713     0.880516270147     1.007825032230
         H           -2.566721493758    -1.326164219713    -0.889478729853     1.007825032230
         H           -0.417052493758     1.748826780287    -0.003403729853     1.007825032230
         H           -0.256316893758    -1.328567019713     0.000838170147     1.007825032230
         H            3.119771506242    -0.914118219713     0.009629270147     1.007825032230

  Basis Set: AUG-CC-PVTZ
    Blend: AUG-CC-PVTZ
  Basis Set: (AUG-CC-PVTZ AUX)
    Blend: AUG-CC-PVTZ-JKFIT
	 Reference Energy          =    -343.8543556382656448 [Eh]
	 Singles Energy            =      -0.0000000000000000 [Eh]
	 Same-Spin Energy          =      -0.3410848219328909 [Eh]
	 Opposite-Spin Energy      =      -1.1000632984258840 [Eh]
	 Correlation Energy        =      -1.4411481203587750 [Eh]
	 Total Energy              =    -345.2955037586244202 [Eh]

	 ================> DF-SCS-MP2 Energies <==================
	-----------------------------------------------------------
	 SCS Same-Spin Scale       =       0.3333333333333333 [-]
	 SCS Opposite-Spin Scale   =       1.2000000000000000 [-]
	 SCS Same-Spin Energy      =      -0.1136949406442970 [Eh]
	 SCS Opposite-Spin Energy  =      -1.3200759581110608 [Eh]
	 SCS Correlation Energy    =      -1.4337708987553577 [Eh]
	 SCS Total Energy          =    -345.2881265370210144 [Eh]
	-----------------------------------------------------------

  Dipole Moment: [D]
     X:    -1.6928      Y:    -1.3274      Z:    -0.0024     Total:     2.1512

*** Psi4 exiting successfully. Buy a developer a beer!
