                               Psi4 1.3.2 release

  ==> Input File <==

--------------------------------------------------------------------------
#psi4
#
memory 32 gb

molecule  {
0 1
  O        2.1793270    -1.1884030     0.0070830
  O        2.0147220     1.0703310     0.0037530
  C       -2.3333640     0.6373300    -0.0064140
  C       -2.8929490    -0.7786760    -0.0059160
  C       -0.8407100     0.7390270    -0.0031060
  C        0.0222220    -0.2866530     0.0001530
  C        1.4776502    -0.0492316     0.0030935
  H       -2.7101490     1.1874440    -0.8789970
  H       -2.7141290     1.1896330     0.8630350
  H       -3.9853730    -0.7577330    -0.0084480
  H       -2.5694230    -1.3301270     0.8805270
  H       -2.5653610    -1.3323610    -0.8894680
  H       -0.4156920     1.7426300    -0.0033930
  H       -0.2732062    -1.3297668     0.0008021
  H        3.1211320    -0.9203150     0.0096400
units angstrom
no_reorient  #important for SAPT in psi4, default
symmetry c1  #important for SAPT in psi4, default
}

set PROPERTIES_ORIGIN ["COM"]
properties('MP2/aug-cc-pvtz', properties = ['dipole'])
--------------------------------------------------------------------------

    Molecular point group: c1
  Charge       = 0
  Multiplicity = 1
  Basis Set: AUG-CC-PVTZ
    Blend: AUG-CC-PVTZ
  Basis Set: (AUG-CC-PVTZ AUX)
    Blend: AUG-CC-PVTZ-JKFIT

    Orbital Energies [Eh]
    ---------------------

    Doubly Occupied:

       1A    -20.617352     2A    -20.534877     3A    -11.386186
       4A    -11.268066     5A    -11.247261     6A    -11.240277
       7A    -11.228297     8A     -1.460502     9A     -1.338302
      10A     -1.110662    11A     -1.023914    12A     -0.918242
      13A     -0.846884    14A     -0.742276    15A     -0.705326
      16A     -0.696186    17A     -0.633100    18A     -0.623894
      19A     -0.613940    20A     -0.602719    21A     -0.564392
      22A     -0.514756    23A     -0.512277    24A     -0.504021
      25A     -0.477221    26A     -0.447388    27A     -0.379401

  @DF-RHF Final Energy:  -343.85831385251561

   => Energetics <=

    Nuclear Repulsion Energy =            285.3913975547303608
    One-Electron Energy =               -1034.0239810318944365
    Two-Electron Energy =                 404.7742696246484684
    Total Energy =                       -343.8583138525156073
  Basis Set: (AUG-CC-PVTZ AUX)
    Blend: AUG-CC-PVTZ-RI
    Molecular point group: c1

    Geometry (in Angstrom), charge = 0, multiplicity = 1:

       Center              X                  Y                   Z               Mass
    ------------   -----------------  -----------------  -----------------  -----------------
         O            2.178620705301    -1.185307382806     0.007077611009    15.994914619570
         O            2.014015705301     1.073426617194     0.003747611009    15.994914619570
         C           -2.334070294699     0.640425617194    -0.006419388991    12.000000000000
         C           -2.893655294699    -0.775580382806    -0.005921388991    12.000000000000
         C           -0.841416294699     0.742122617194    -0.003111388991    12.000000000000
         C            0.021515705301    -0.283557382806     0.000147611009    12.000000000000
         C            1.476943905301    -0.046135982806     0.003088111009    12.000000000000
         H           -2.710855294699     1.190539617194    -0.879002388991     1.007825032230
         H           -2.714835294699     1.192728617194     0.863029611009     1.007825032230
         H           -3.986079294699    -0.754637382806    -0.008453388991     1.007825032230
         H           -2.570129294699    -1.327031382806     0.880521611009     1.007825032230
         H           -2.566067294699    -1.329265382806    -0.889473388991     1.007825032230
         H           -0.416398294699     1.745725617194    -0.003398388991     1.007825032230
         H           -0.273912494699    -1.326671182806     0.000796711009     1.007825032230
         H            3.120425705301    -0.917219382806     0.009634611009     1.007825032230

  Basis Set: AUG-CC-PVTZ
    Blend: AUG-CC-PVTZ
  Basis Set: (AUG-CC-PVTZ AUX)
    Blend: AUG-CC-PVTZ-JKFIT
	 Reference Energy          =    -343.8583138525156073 [Eh]
	 Singles Energy            =      -0.0000000000000000 [Eh]
	 Same-Spin Energy          =      -0.3408453792377134 [Eh]
	 Opposite-Spin Energy      =      -1.0997036104399793 [Eh]
	 Correlation Energy        =      -1.4405489896776928 [Eh]
	 Total Energy              =    -345.2988628421932731 [Eh]

	 ================> DF-SCS-MP2 Energies <==================
	-----------------------------------------------------------
	 SCS Same-Spin Scale       =       0.3333333333333333 [-]
	 SCS Opposite-Spin Scale   =       1.2000000000000000 [-]
	 SCS Same-Spin Energy      =      -0.1136151264125711 [Eh]
	 SCS Opposite-Spin Energy  =      -1.3196443325279752 [Eh]
	 SCS Correlation Energy    =      -1.4332594589405463 [Eh]
	 SCS Total Energy          =    -345.2915733114561476 [Eh]
	-----------------------------------------------------------

  Dipole Moment: [D]
     X:    -1.7531      Y:    -1.1269      Z:    -0.0028     Total:     2.0840

*** Psi4 exiting successfully. Buy a developer a beer!
