                               Psi4 1.3.2 release

  ==> Input File <==

--------------------------------------------------------------------------
#psi4
#
memory 32 gb

molecule  {
0 1
  O        2.1793270    -1.1884030     0.0070830
  O        2.0147220     1.0703310     0.0037530
  C       -2.3333640     0.6373300    -0.0064140
  C       -2.8929490    -0.7786760    -0.0059160
  C       -0.8407100     0.7390270    -0.0031060
  C        0.0222220    -0.2866530     0.0001530
  C        1.4732850    -0.0238670     0.0030520
  H       -2.7101490     1.1874440    -0.8789970
  H       -2.7141290     1.1896330     0.8630350
  H       -3.9853730    -0.7577330    -0.0084480
  H       -2.5694230    -1.3301270     0.8805270
  H       -2.5653610    -1.3323610    -0.8894680
  H       -0.4156920     1.7426300    -0.0033930
  H       -0.2913660    -1.3244520     0.0007550
  H        3.3134899    -0.8655597     0.0101623
units angstrom
no_reorient  #important for SAPT in psi4, default
symmetry c1  #important for SAPT in psi4, default
}

set PROPERTIES_ORIGIN ["COM"]
properties('MP2/aug-cc-pvtz', properties = ['dipole'])
--------------------------------------------------------------------------

    Molecular point group: c1
  Charge       = 0
  Multiplicity = 1
  Basis Set: AUG-CC-PVTZ
    Blend: AUG-CC-PVTZ
  Basis Set: (AUG-CC-PVTZ AUX)
    Blend: AUG-CC-PVTZ-JKFIT

    Orbital Energies [Eh]
    ---------------------

    Doubly Occupied:

       1A    -20.619318     2A    -20.536735     3A    -11.382127
       4A    -11.266468     5A    -11.246466     6A    -11.239810
       7A    -11.227788     8A     -1.432214     9A     -1.331724
      10A     -1.109775    11A     -1.021103    12A     -0.909662
      13A     -0.825127    14A     -0.733920    15A     -0.697560
      16A     -0.672851    17A     -0.630246    18A     -0.615036
      19A     -0.612032    20A     -0.591503    21A     -0.558460
      22A     -0.514045    23A     -0.510318    24A     -0.503661
      25A     -0.476817    26A     -0.447277    27A     -0.379411

  @DF-RHF Final Energy:  -343.82514198894626

   => Energetics <=

    Nuclear Repulsion Energy =            284.4151815341726319
    One-Electron Energy =               -1032.2977369502407328
    Two-Electron Energy =                 404.0574134271217872
    Total Energy =                       -343.8251419889462568
  Basis Set: (AUG-CC-PVTZ AUX)
    Blend: AUG-CC-PVTZ-RI
    Molecular point group: c1

    Geometry (in Angstrom), charge = 0, multiplicity = 1:

       Center              X                  Y                   Z               Mass
    ------------   -----------------  -----------------  -----------------  -----------------
         O            2.177389562726    -1.188954624080     0.007077801725    15.994914619570
         O            2.012784562726     1.069779375920     0.003747801725    15.994914619570
         C           -2.335301437274     0.636778375920    -0.006419198275    12.000000000000
         C           -2.894886437274    -0.779227624080    -0.005921198275    12.000000000000
         C           -0.842647437274     0.738475375920    -0.003111198275    12.000000000000
         C            0.020284562726    -0.287204624080     0.000147801725    12.000000000000
         C            1.471347562726    -0.024418624080     0.003046801725    12.000000000000
         H           -2.712086437274     1.186892375920    -0.879002198275     1.007825032230
         H           -2.716066437274     1.189081375920     0.863029801725     1.007825032230
         H           -3.987310437274    -0.758284624080    -0.008453198275     1.007825032230
         H           -2.571360437274    -1.330678624080     0.880521801725     1.007825032230
         H           -2.567298437274    -1.332912624080    -0.889473198275     1.007825032230
         H           -0.417629437274     1.742078375920    -0.003398198275     1.007825032230
         H           -0.293303437274    -1.325003624080     0.000749801725     1.007825032230
         H            3.311552462726    -0.866111324080     0.010157101725     1.007825032230

  Basis Set: AUG-CC-PVTZ
    Blend: AUG-CC-PVTZ
  Basis Set: (AUG-CC-PVTZ AUX)
    Blend: AUG-CC-PVTZ-JKFIT
	 Reference Energy          =    -343.8251419889462568 [Eh]
	 Singles Energy            =      -0.0000000000000000 [Eh]
	 Same-Spin Energy          =      -0.3431744257475935 [Eh]
	 Opposite-Spin Energy      =      -1.1060400484778508 [Eh]
	 Correlation Energy        =      -1.4492144742254442 [Eh]
	 Total Energy              =    -345.2743564631717277 [Eh]

	 ================> DF-SCS-MP2 Energies <==================
	-----------------------------------------------------------
	 SCS Same-Spin Scale       =       0.3333333333333333 [-]
	 SCS Opposite-Spin Scale   =       1.2000000000000000 [-]
	 SCS Same-Spin Energy      =      -0.1143914752491978 [Eh]
	 SCS Opposite-Spin Energy  =      -1.3272480581734210 [Eh]
	 SCS Correlation Energy    =      -1.4416395334226189 [Eh]
	 SCS Total Energy          =    -345.2667815223688876 [Eh]
	-----------------------------------------------------------

  Dipole Moment: [D]
     X:    -1.5700      Y:    -0.9133      Z:    -0.0025     Total:     1.8163

*** Psi4 exiting successfully. Buy a developer a beer!
