                               Psi4 1.3.2 release

  ==> Input File <==

--------------------------------------------------------------------------
#psi4
#
memory 32 gb

molecule  {
0 1
  O        2.1793270    -1.1884030     0.0070830
  O        2.0147220     1.0703310     0.0037530
  C       -2.3333640     0.6373300    -0.0064140
  C       -2.8929490    -0.7786760    -0.0059160
  C       -0.8407100     0.7390270    -0.0031060
  C        0.0222220    -0.2866530     0.0001530
  C        1.3748858    -0.0416870     0.0028554
  H       -2.7101490     1.1874440    -0.8789970
  H       -2.7141290     1.1896330     0.8630350
  H       -3.9853730    -0.7577330    -0.0084480
  H       -2.5694230    -1.3301270     0.8805270
  H       -2.5653610    -1.3323610    -0.8894680
  H       -0.4156920     1.7426300    -0.0033930
  H       -0.2913660    -1.3244520     0.0007550
  H        3.1211320    -0.9203150     0.0096400
units angstrom
no_reorient  #important for SAPT in psi4, default
symmetry c1  #important for SAPT in psi4, default
}

set PROPERTIES_ORIGIN ["COM"]
properties('MP2/aug-cc-pvtz', properties = ['dipole'])
--------------------------------------------------------------------------

    Molecular point group: c1
  Charge       = 0
  Multiplicity = 1
  Basis Set: AUG-CC-PVTZ
    Blend: AUG-CC-PVTZ
  Basis Set: (AUG-CC-PVTZ AUX)
    Blend: AUG-CC-PVTZ-JKFIT

    Orbital Energies [Eh]
    ---------------------

    Doubly Occupied:

       1A    -20.597138     2A    -20.528141     3A    -11.386191
       4A    -11.285707     5A    -11.256388     6A    -11.240650
       7A    -11.235109     8A     -1.421130     9A     -1.304758
      10A     -1.128775    11A     -1.045007    12A     -0.931314
      13A     -0.847309    14A     -0.742051    15A     -0.713870
      16A     -0.674160    17A     -0.638432    18A     -0.612435
      19A     -0.604863    20A     -0.601769    21A     -0.561285
      22A     -0.522160    23A     -0.521249    24A     -0.514144
      25A     -0.466214    26A     -0.439423    27A     -0.386357

  @DF-RHF Final Energy:  -343.83837943367797

   => Energetics <=

    Nuclear Repulsion Energy =            285.4725864201453192
    One-Electron Energy =               -1034.2098732115362054
    Two-Electron Energy =                 404.8989073577129716
    Total Energy =                       -343.8383794336779715
  Basis Set: (AUG-CC-PVTZ AUX)
    Blend: AUG-CC-PVTZ-RI
    Molecular point group: c1

    Geometry (in Angstrom), charge = 0, multiplicity = 1:

       Center              X                  Y                   Z               Mass
    ------------   -----------------  -----------------  -----------------  -----------------
         O            2.191128894331    -1.186265796199     0.007106642474    15.994914619570
         O            2.026523894331     1.072468203801     0.003776642474    15.994914619570
         C           -2.321562105669     0.639467203801    -0.006390357526    12.000000000000
         C           -2.881147105669    -0.776538796199    -0.005892357526    12.000000000000
         C           -0.828908105669     0.741164203801    -0.003082357526    12.000000000000
         C            0.034023894331    -0.284515796199     0.000176642474    12.000000000000
         C            1.386687694331    -0.039549796199     0.002879042474    12.000000000000
         H           -2.698347105669     1.189581203801    -0.878973357526     1.007825032230
         H           -2.702327105669     1.191770203801     0.863058642474     1.007825032230
         H           -3.973571105669    -0.755595796199    -0.008424357526     1.007825032230
         H           -2.557621105669    -1.327989796199     0.880550642474     1.007825032230
         H           -2.553559105669    -1.330223796199    -0.889444357526     1.007825032230
         H           -0.403890105669     1.744767203801    -0.003369357526     1.007825032230
         H           -0.279564105669    -1.322314796199     0.000778642474     1.007825032230
         H            3.132933894331    -0.918177796199     0.009663642474     1.007825032230

  Basis Set: AUG-CC-PVTZ
    Blend: AUG-CC-PVTZ
  Basis Set: (AUG-CC-PVTZ AUX)
    Blend: AUG-CC-PVTZ-JKFIT
	 Reference Energy          =    -343.8383794336779715 [Eh]
	 Singles Energy            =      -0.0000000000000000 [Eh]
	 Same-Spin Energy          =      -0.3429287724999657 [Eh]
	 Opposite-Spin Energy      =      -1.1034541854123132 [Eh]
	 Correlation Energy        =      -1.4463829579122789 [Eh]
	 Total Energy              =    -345.2847623915902773 [Eh]

	 ================> DF-SCS-MP2 Energies <==================
	-----------------------------------------------------------
	 SCS Same-Spin Scale       =       0.3333333333333333 [-]
	 SCS Opposite-Spin Scale   =       1.2000000000000000 [-]
	 SCS Same-Spin Energy      =      -0.1143095908333219 [Eh]
	 SCS Opposite-Spin Energy  =      -1.3241450224947757 [Eh]
	 SCS Correlation Energy    =      -1.4384546133280975 [Eh]
	 SCS Total Energy          =    -345.2768340470060480 [Eh]
	-----------------------------------------------------------

  Dipole Moment: [D]
     X:    -2.7009      Y:    -0.8737      Z:    -0.0055     Total:     2.8387

*** Psi4 exiting successfully. Buy a developer a beer!
