                               Psi4 1.3.2 release

  ==> Input File <==

--------------------------------------------------------------------------
#psi4
#
memory 32 gb

molecule  {
0 1
  O        2.1793270    -1.1884030     0.0070830
  O        2.0147220     1.0703310     0.0037530
  C       -2.3333640     0.6373300    -0.0064140
  C       -2.8929490    -0.7786760    -0.0059160
  C       -0.8407100     0.7390270    -0.0031060
  C        0.0222220    -0.2866530     0.0001530
  C        1.4732850    -0.0238670     0.0030520
  H       -2.7101490     1.1874440    -0.8789970
  H       -2.7141290     1.1896330     0.8630350
  H       -3.9853730    -0.7577330    -0.0084480
  H       -2.5694230    -1.3301270     0.8805270
  H       -2.5653610    -1.3323610    -0.8894680
  H       -0.4156920     1.7426300    -0.0033930
  H       -0.2108673    -1.2651228     0.0008598
  H        3.1211320    -0.9203150     0.0096400
units angstrom
no_reorient  #important for SAPT in psi4, default
symmetry c1  #important for SAPT in psi4, default
}

set PROPERTIES_ORIGIN ["COM"]
properties('MP2/aug-cc-pvtz', properties = ['dipole'])
--------------------------------------------------------------------------

    Molecular point group: c1
  Charge       = 0
  Multiplicity = 1
  Basis Set: AUG-CC-PVTZ
    Blend: AUG-CC-PVTZ
  Basis Set: (AUG-CC-PVTZ AUX)
    Blend: AUG-CC-PVTZ-JKFIT

    Orbital Energies [Eh]
    ---------------------

    Doubly Occupied:

       1A    -20.610579     2A    -20.538737     3A    -11.383271
       4A    -11.268486     5A    -11.247295     6A    -11.232077
       7A    -11.228495     8A     -1.452752     9A     -1.347232
      10A     -1.112646    11A     -1.026626    12A     -0.918230
      13A     -0.842097    14A     -0.750083    15A     -0.706042
      16A     -0.694060    17A     -0.631821    18A     -0.620451
      19A     -0.615723    20A     -0.610082    21A     -0.571210
      22A     -0.514869    23A     -0.512657    24A     -0.506457
      25A     -0.482040    26A     -0.449439    27A     -0.380578

  @DF-RHF Final Energy:  -343.85665943439739

   => Energetics <=

    Nuclear Repulsion Energy =            285.8242952875776268
    One-Electron Energy =               -1034.8538349816039954
    Two-Electron Energy =                 405.1728802596290393
    Total Energy =                       -343.8566594343973861
  Basis Set: (AUG-CC-PVTZ AUX)
    Blend: AUG-CC-PVTZ-RI
    Molecular point group: c1

    Geometry (in Angstrom), charge = 0, multiplicity = 1:

       Center              X                  Y                   Z               Mass
    ------------   -----------------  -----------------  -----------------  -----------------
         O            2.178516316993    -1.189000696834     0.007082007189    15.994914619570
         O            2.013911316993     1.069733303166     0.003752007189    15.994914619570
         C           -2.334174683007     0.636732303166    -0.006414992811    12.000000000000
         C           -2.893759683007    -0.779273696834    -0.005916992811    12.000000000000
         C           -0.841520683007     0.738429303166    -0.003106992811    12.000000000000
         C            0.021411316993    -0.287250696834     0.000152007189    12.000000000000
         C            1.472474316993    -0.024464696834     0.003051007189    12.000000000000
         H           -2.710959683007     1.186846303166    -0.878997992811     1.007825032230
         H           -2.714939683007     1.189035303166     0.863034007189     1.007825032230
         H           -3.986183683007    -0.758330696834    -0.008448992811     1.007825032230
         H           -2.570233683007    -1.330724696834     0.880526007189     1.007825032230
         H           -2.566171683007    -1.332958696834    -0.889468992811     1.007825032230
         H           -0.416502683007     1.742032303166    -0.003393992811     1.007825032230
         H           -0.211677983007    -1.265720496834     0.000858807189     1.007825032230
         H            3.120321316993    -0.920912696834     0.009639007189     1.007825032230

  Basis Set: AUG-CC-PVTZ
    Blend: AUG-CC-PVTZ
  Basis Set: (AUG-CC-PVTZ AUX)
    Blend: AUG-CC-PVTZ-JKFIT
	 Reference Energy          =    -343.8566594343973861 [Eh]
	 Singles Energy            =      -0.0000000000000000 [Eh]
	 Same-Spin Energy          =      -0.3403863847922703 [Eh]
	 Opposite-Spin Energy      =      -1.0988770959706224 [Eh]
	 Correlation Energy        =      -1.4392634807628928 [Eh]
	 Total Energy              =    -345.2959229151603040 [Eh]

	 ================> DF-SCS-MP2 Energies <==================
	-----------------------------------------------------------
	 SCS Same-Spin Scale       =       0.3333333333333333 [-]
	 SCS Opposite-Spin Scale   =       1.2000000000000000 [-]
	 SCS Same-Spin Energy      =      -0.1134621282640901 [Eh]
	 SCS Opposite-Spin Energy  =      -1.3186525151647468 [Eh]
	 SCS Correlation Energy    =      -1.4321146434288370 [Eh]
	 SCS Total Energy          =    -345.2887740778262469 [Eh]
	-----------------------------------------------------------

  Dipole Moment: [D]
     X:    -1.8207      Y:    -0.9327      Z:    -0.0033     Total:     2.0457

*** Psi4 exiting successfully. Buy a developer a beer!
