                               Psi4 1.3.2 release

  ==> Input File <==

--------------------------------------------------------------------------
#psi4
#
memory 32 gb

molecule  {
0 1
  O        2.1793270    -1.1884030     0.0070830
  O        2.0147220     1.0703310     0.0037530
  C       -2.3333640     0.6373300    -0.0064140
  C       -2.8995409    -0.7760126    -0.0171407
  C       -0.8407100     0.7390270    -0.0031060
  C        0.0222220    -0.2866530     0.0001530
  C        1.4732850    -0.0238670     0.0030520
  H       -2.7150688     1.1796816    -0.8817137
  H       -2.7141290     1.1896330     0.8630350
  H       -3.9853730    -0.7577330    -0.0084480
  H       -2.5694230    -1.3301270     0.8805270
  H       -2.5653610    -1.3323610    -0.8894680
  H       -0.4156920     1.7426300    -0.0033930
  H       -0.2913660    -1.3244520     0.0007550
  H        3.1211320    -0.9203150     0.0096400
units angstrom
no_reorient  #important for SAPT in psi4, default
symmetry c1  #important for SAPT in psi4, default
}

set PROPERTIES_ORIGIN ["COM"]
properties('MP2/aug-cc-pvtz', properties = ['dipole'])
--------------------------------------------------------------------------

    Molecular point group: c1
  Charge       = 0
  Multiplicity = 1
  Basis Set: AUG-CC-PVTZ
    Blend: AUG-CC-PVTZ
  Basis Set: (AUG-CC-PVTZ AUX)
    Blend: AUG-CC-PVTZ-JKFIT

    Orbital Energies [Eh]
    ---------------------

    Doubly Occupied:

       1A    -20.610504     2A    -20.540153     3A    -11.385642
       4A    -11.267919     5A    -11.247294     6A    -11.240565
       7A    -11.228462     8A     -1.453035     9A     -1.348095
      10A     -1.111316    11A     -1.024352    12A     -0.916327
      13A     -0.842320    14A     -0.739161    15A     -0.705658
      16A     -0.694323    17A     -0.631693    18A     -0.620627
      19A     -0.616405    20A     -0.600745    21A     -0.570161
      22A     -0.515653    23A     -0.511008    24A     -0.504541
      25A     -0.482634    26A     -0.450765    27A     -0.380751

  @DF-RHF Final Energy:  -343.86000736957476

   => Energetics <=

    Nuclear Repulsion Energy =            285.4078663003409702
    One-Electron Energy =               -1034.0555288326418122
    Two-Electron Energy =                 404.7876551627260824
    Total Energy =                       -343.8600073695747597
  Basis Set: (AUG-CC-PVTZ AUX)
    Blend: AUG-CC-PVTZ-RI
    Molecular point group: c1

    Geometry (in Angstrom), charge = 0, multiplicity = 1:

       Center              X                  Y                   Z               Mass
    ------------   -----------------  -----------------  -----------------  -----------------
         O            2.180167348390    -1.188644325738     0.008456686235    15.994914619570
         O            2.015562348390     1.070089674262     0.005126686235    15.994914619570
         C           -2.332523651610     0.637088674262    -0.005040313765    12.000000000000
         C           -2.898700551610    -0.776253925738    -0.015767013765    12.000000000000
         C           -0.839869651610     0.738785674262    -0.001732313765    12.000000000000
         C            0.023062348390    -0.286894325738     0.001526686235    12.000000000000
         C            1.474125348390    -0.024108325738     0.004425686235    12.000000000000
         H           -2.714228451610     1.179440274262    -0.880340013765     1.007825032230
         H           -2.713288651610     1.189391674262     0.864408686235     1.007825032230
         H           -3.984532651610    -0.757974325738    -0.007074313765     1.007825032230
         H           -2.568582651610    -1.330368325738     0.881900686235     1.007825032230
         H           -2.564520651610    -1.332602325738    -0.888094313765     1.007825032230
         H           -0.414851651610     1.742388674262    -0.002019313765     1.007825032230
         H           -0.290525651610    -1.324693325738     0.002128686235     1.007825032230
         H            3.121972348390    -0.920556325738     0.011013686235     1.007825032230

  Basis Set: AUG-CC-PVTZ
    Blend: AUG-CC-PVTZ
  Basis Set: (AUG-CC-PVTZ AUX)
    Blend: AUG-CC-PVTZ-JKFIT
	 Reference Energy          =    -343.8600073695747597 [Eh]
	 Singles Energy            =      -0.0000000000000000 [Eh]
	 Same-Spin Energy          =      -0.3406326248141924 [Eh]
	 Opposite-Spin Energy      =      -1.0994094822930300 [Eh]
	 Correlation Energy        =      -1.4400421071072225 [Eh]
	 Total Energy              =    -345.3000494766819770 [Eh]

	 ================> DF-SCS-MP2 Energies <==================
	-----------------------------------------------------------
	 SCS Same-Spin Scale       =       0.3333333333333333 [-]
	 SCS Opposite-Spin Scale   =       1.2000000000000000 [-]
	 SCS Same-Spin Energy      =      -0.1135442082713975 [Eh]
	 SCS Opposite-Spin Energy  =      -1.3192913787516360 [Eh]
	 SCS Correlation Energy    =      -1.4328355870230336 [Eh]
	 SCS Total Energy          =    -345.2928429565977808 [Eh]
	-----------------------------------------------------------

  Dipole Moment: [D]
     X:    -1.8156      Y:    -0.9240      Z:    -0.0088     Total:     2.0372

*** Psi4 exiting successfully. Buy a developer a beer!
