                               Psi4 1.3.2 release

  ==> Input File <==

--------------------------------------------------------------------------
#psi4
#
memory 32 gb

molecule  {
0 1
  O        2.1382553    -1.2123344     0.0069588
  O        1.9762055     1.0885603     0.0035876
  C       -2.3333640     0.6373300    -0.0064140
  C       -2.8929490    -0.7786760    -0.0059160
  C       -0.8407100     0.7390270    -0.0031060
  C        0.0222220    -0.2866530     0.0001530
  C        1.4732850    -0.0238670     0.0030520
  H       -2.7101490     1.1874440    -0.8789970
  H       -2.7141290     1.1896330     0.8630350
  H       -3.9853730    -0.7577330    -0.0084480
  H       -2.5694230    -1.3301270     0.8805270
  H       -2.5653610    -1.3323610    -0.8894680
  H       -0.4156920     1.7426300    -0.0033930
  H       -0.2913660    -1.3244520     0.0007550
  H        3.1211320    -0.9203150     0.0096400
units angstrom
no_reorient  #important for SAPT in psi4, default
symmetry c1  #important for SAPT in psi4, default
}

set PROPERTIES_ORIGIN ["COM"]
properties('MP2/aug-cc-pvtz', properties = ['dipole'])
--------------------------------------------------------------------------

    Molecular point group: c1
  Charge       = 0
  Multiplicity = 1
  Basis Set: AUG-CC-PVTZ
    Blend: AUG-CC-PVTZ
  Basis Set: (AUG-CC-PVTZ AUX)
    Blend: AUG-CC-PVTZ-JKFIT

    Orbital Energies [Eh]
    ---------------------

    Doubly Occupied:

       1A    -20.619929     2A    -20.542905     3A    -11.386063
       4A    -11.264226     5A    -11.245311     6A    -11.236118
       7A    -11.227011     8A     -1.449279     9A     -1.351331
      10A     -1.108426    11A     -1.021207    12A     -0.913009
      13A     -0.836772    14A     -0.735458    15A     -0.701188
      16A     -0.695092    17A     -0.631151    18A     -0.621309
      19A     -0.616769    20A     -0.596137    21A     -0.569198
      22A     -0.513312    23A     -0.510163    24A     -0.502638
      25A     -0.485840    26A     -0.451078    27A     -0.377699

  @DF-RHF Final Energy:  -343.85315840907782

   => Energetics <=

    Nuclear Repulsion Energy =            285.6033416782950098
    One-Electron Energy =               -1034.4957572883301964
    Two-Electron Energy =                 405.0392572009573655
    Total Energy =                       -343.8531584090778210
  Basis Set: (AUG-CC-PVTZ AUX)
    Blend: AUG-CC-PVTZ-RI
    Molecular point group: c1

    Geometry (in Angstrom), charge = 0, multiplicity = 1:

       Center              X                  Y                   Z               Mass
    ------------   -----------------  -----------------  -----------------  -----------------
         O            2.150978871738    -1.211422907538     0.007005159836    15.994914619570
         O            1.988929071738     1.089471792462     0.003633959836    15.994914619570
         C           -2.320640428262     0.638241492462    -0.006367640164    12.000000000000
         C           -2.880225428262    -0.777764507538    -0.005869640164    12.000000000000
         C           -0.827986428262     0.739938492462    -0.003059640164    12.000000000000
         C            0.034945571738    -0.285741507538     0.000199359836    12.000000000000
         C            1.486008571738    -0.022955507538     0.003098359836    12.000000000000
         H           -2.697425428262     1.188355492462    -0.878950640164     1.007825032230
         H           -2.701405428262     1.190544492462     0.863081359836     1.007825032230
         H           -3.972649428262    -0.756821507538    -0.008401640164     1.007825032230
         H           -2.556699428262    -1.329215507538     0.880573359836     1.007825032230
         H           -2.552637428262    -1.331449507538    -0.889421640164     1.007825032230
         H           -0.402968428262     1.743541492462    -0.003346640164     1.007825032230
         H           -0.278642428262    -1.323540507538     0.000801359836     1.007825032230
         H            3.133855571738    -0.919403507538     0.009686359836     1.007825032230

  Basis Set: AUG-CC-PVTZ
    Blend: AUG-CC-PVTZ
  Basis Set: (AUG-CC-PVTZ AUX)
    Blend: AUG-CC-PVTZ-JKFIT
	 Reference Energy          =    -343.8531584090778210 [Eh]
	 Singles Energy            =      -0.0000000000000000 [Eh]
	 Same-Spin Energy          =      -0.3417027339493807 [Eh]
	 Opposite-Spin Energy      =      -1.1017283211447357 [Eh]
	 Correlation Energy        =      -1.4434310550941163 [Eh]
	 Total Energy              =    -345.2965894641719160 [Eh]

	 ================> DF-SCS-MP2 Energies <==================
	-----------------------------------------------------------
	 SCS Same-Spin Scale       =       0.3333333333333333 [-]
	 SCS Opposite-Spin Scale   =       1.2000000000000000 [-]
	 SCS Same-Spin Energy      =      -0.1139009113164602 [Eh]
	 SCS Opposite-Spin Energy  =      -1.3220739853736829 [Eh]
	 SCS Correlation Energy    =      -1.4359748966901431 [Eh]
	 SCS Total Energy          =    -345.2891333057679617 [Eh]
	-----------------------------------------------------------

  Dipole Moment: [D]
     X:    -1.5599      Y:    -0.9603      Z:    -0.0025     Total:     1.8317

*** Psi4 exiting successfully. Buy a developer a beer!
