                               Psi4 1.3.2 release

  ==> Input File <==

--------------------------------------------------------------------------
#psi4
#
memory 32 gb

molecule  {
0 1
  O        2.1793270    -1.1884030     0.0070830
  O        1.9955432     1.0796137     0.0037098
  C       -2.3333640     0.6373300    -0.0064140
  C       -2.8929490    -0.7786760    -0.0059160
  C       -0.8407100     0.7390270    -0.0031060
  C        0.0178568    -0.2612884     0.0001343
  C        1.4732850    -0.0238670     0.0030520
  H       -2.7101490     1.1874440    -0.8789970
  H       -2.7141290     1.1896330     0.8630350
  H       -3.9853730    -0.7577330    -0.0084480
  H       -2.5694230    -1.3301270     0.8805270
  H       -2.5653610    -1.3323610    -0.8894680
  H       -0.4156920     1.7426300    -0.0033930
  H       -0.2913660    -1.3244520     0.0007550
  H        3.1211320    -0.9203150     0.0096400
units angstrom
no_reorient  #important for SAPT in psi4, default
symmetry c1  #important for SAPT in psi4, default
}

set PROPERTIES_ORIGIN ["COM"]
properties('MP2/aug-cc-pvtz', properties = ['dipole'])
--------------------------------------------------------------------------

    Molecular point group: c1
  Charge       = 0
  Multiplicity = 1
  Basis Set: AUG-CC-PVTZ
    Blend: AUG-CC-PVTZ
  Basis Set: (AUG-CC-PVTZ AUX)
    Blend: AUG-CC-PVTZ-JKFIT

    Orbital Energies [Eh]
    ---------------------

    Doubly Occupied:

       1A    -20.613700     2A    -20.540805     3A    -11.386310
       4A    -11.262140     5A    -11.246309     6A    -11.238716
       7A    -11.227634     8A     -1.453996     9A     -1.350443
      10A     -1.113045    11A     -1.024323    12A     -0.915353
      13A     -0.844562    14A     -0.735628    15A     -0.706665
      16A     -0.695337    17A     -0.631804    18A     -0.621399
      19A     -0.616823    20A     -0.601018    21A     -0.566374
      22A     -0.514297    23A     -0.512236    24A     -0.501480
      25A     -0.484407    26A     -0.450222    27A     -0.384063

  @DF-RHF Final Energy:  -343.85959409504778

   => Energetics <=

    Nuclear Repulsion Energy =            285.7577821429177334
    One-Electron Energy =               -1034.7565732056500565
    Two-Electron Energy =                 405.1391969676845974
    Total Energy =                       -343.8595940950477825
  Basis Set: (AUG-CC-PVTZ AUX)
    Blend: AUG-CC-PVTZ-RI
    Molecular point group: c1

    Geometry (in Angstrom), charge = 0, multiplicity = 1:

       Center              X                  Y                   Z               Mass
    ------------   -----------------  -----------------  -----------------  -----------------
         O            2.182916752601    -1.192929214542     0.007092211843    15.994914619570
         O            1.999132952601     1.075087485458     0.003719011843    15.994914619570
         C           -2.329774247399     0.632803785458    -0.006404788157    12.000000000000
         C           -2.889359247399    -0.783202214542    -0.005906788157    12.000000000000
         C           -0.837120247399     0.734500785458    -0.003096788157    12.000000000000
         C            0.021446552601    -0.265814614542     0.000143511843    12.000000000000
         C            1.476874752601    -0.028393214542     0.003061211843    12.000000000000
         H           -2.706559247399     1.182917785458    -0.878987788157     1.007825032230
         H           -2.710539247399     1.185106785458     0.863044211843     1.007825032230
         H           -3.981783247399    -0.762259214542    -0.008438788157     1.007825032230
         H           -2.565833247399    -1.334653214542     0.880536211843     1.007825032230
         H           -2.561771247399    -1.336887214542    -0.889458788157     1.007825032230
         H           -0.412102247399     1.738103785458    -0.003383788157     1.007825032230
         H           -0.287776247399    -1.328978214542     0.000764211843     1.007825032230
         H            3.124721752601    -0.924841214542     0.009649211843     1.007825032230

  Basis Set: AUG-CC-PVTZ
    Blend: AUG-CC-PVTZ
  Basis Set: (AUG-CC-PVTZ AUX)
    Blend: AUG-CC-PVTZ-JKFIT
	 Reference Energy          =    -343.8595940950477825 [Eh]
	 Singles Energy            =      -0.0000000000000000 [Eh]
	 Same-Spin Energy          =      -0.3405424411835953 [Eh]
	 Opposite-Spin Energy      =      -1.0991757850003814 [Eh]
	 Correlation Energy        =      -1.4397182261839767 [Eh]
	 Total Energy              =    -345.2993123212317528 [Eh]

	 ================> DF-SCS-MP2 Energies <==================
	-----------------------------------------------------------
	 SCS Same-Spin Scale       =       0.3333333333333333 [-]
	 SCS Opposite-Spin Scale   =       1.2000000000000000 [-]
	 SCS Same-Spin Energy      =      -0.1135141470611984 [Eh]
	 SCS Opposite-Spin Energy  =      -1.3190109420004577 [Eh]
	 SCS Correlation Energy    =      -1.4325250890616561 [Eh]
	 SCS Total Energy          =    -345.2921191841094242 [Eh]
	-----------------------------------------------------------

  Dipole Moment: [D]
     X:    -1.7026      Y:    -0.9465      Z:    -0.0030     Total:     1.9480

*** Psi4 exiting successfully. Buy a developer a beer!
