                               Psi4 1.3.2 release

  ==> Input File <==

--------------------------------------------------------------------------
#psi4
#
memory 32 gb

molecule  {
0 1
  O        2.1793270    -1.1884030     0.0070830
  O        2.0147220     1.0703310     0.0037530
  C       -2.3333640     0.6373300    -0.0064140
  C       -2.8929490    -0.7786760    -0.0059160
  C       -0.8407100     0.7390270    -0.0031060
  C        0.0222220    -0.2866530     0.0001530
  C        1.5251290    -0.1093779     0.0033480
  H       -2.7101490     1.1874440    -0.8789970
  H       -2.7141290     1.1896330     0.8630350
  H       -3.9853730    -0.7577330    -0.0084480
  H       -2.5694230    -1.3301270     0.8805270
  H       -2.5653610    -1.3323610    -0.8894680
  H       -0.4156920     1.7426300    -0.0033930
  H       -0.2913660    -1.3244520     0.0007550
  H        3.1211320    -0.9203150     0.0096400
units angstrom
no_reorient  #important for SAPT in psi4, default
symmetry c1  #important for SAPT in psi4, default
}

set PROPERTIES_ORIGIN ["COM"]
properties('MP2/aug-cc-pvtz', properties = ['dipole'])
--------------------------------------------------------------------------

    Molecular point group: c1
  Charge       = 0
  Multiplicity = 1
  Basis Set: AUG-CC-PVTZ
    Blend: AUG-CC-PVTZ
  Basis Set: (AUG-CC-PVTZ AUX)
    Blend: AUG-CC-PVTZ-JKFIT

    Orbital Energies [Eh]
    ---------------------

    Doubly Occupied:

       1A    -20.639901     2A    -20.525664     3A    -11.389182
       4A    -11.262086     5A    -11.244157     6A    -11.239236
       7A    -11.225848     8A     -1.504356     9A     -1.320295
      10A     -1.104160    11A     -1.016463    12A     -0.920520
      13A     -0.859506    14A     -0.752368    15A     -0.713464
      16A     -0.699781    17A     -0.654619    18A     -0.625674
      19A     -0.611962    20A     -0.599387    21A     -0.551775
      22A     -0.512035    23A     -0.509157    24A     -0.497671
      25A     -0.466643    26A     -0.438376    27A     -0.373579

  @DF-RHF Final Energy:  -343.84585065484862

   => Energetics <=

    Nuclear Repulsion Energy =            285.3275229530138972
    One-Electron Energy =               -1033.8310227608546938
    Two-Electron Energy =                 404.6576491529922350
    Total Energy =                       -343.8458506548486184
  Basis Set: (AUG-CC-PVTZ AUX)
    Blend: AUG-CC-PVTZ-RI
    Molecular point group: c1

    Geometry (in Angstrom), charge = 0, multiplicity = 1:

       Center              X                  Y                   Z               Mass
    ------------   -----------------  -----------------  -----------------  -----------------
         O            2.173109157988    -1.178147144767     0.007047561450    15.994914619570
         O            2.008504157988     1.080586855233     0.003717561450    15.994914619570
         C           -2.339581842012     0.647585855233    -0.006449438550    12.000000000000
         C           -2.899166842012    -0.768420144767    -0.005951438550    12.000000000000
         C           -0.846927842012     0.749282855233    -0.003141438550    12.000000000000
         C            0.016004157988    -0.276397144767     0.000117561450    12.000000000000
         C            1.518911157988    -0.099122044767     0.003312561450    12.000000000000
         H           -2.716366842012     1.197699855233    -0.879032438550     1.007825032230
         H           -2.720346842012     1.199888855233     0.862999561450     1.007825032230
         H           -3.991590842012    -0.747477144767    -0.008483438550     1.007825032230
         H           -2.575640842012    -1.319871144767     0.880491561450     1.007825032230
         H           -2.571578842012    -1.322105144767    -0.889503438550     1.007825032230
         H           -0.421909842012     1.752885855233    -0.003428438550     1.007825032230
         H           -0.297583842012    -1.314196144767     0.000719561450     1.007825032230
         H            3.114914157988    -0.910059144767     0.009604561450     1.007825032230

  Basis Set: AUG-CC-PVTZ
    Blend: AUG-CC-PVTZ
  Basis Set: (AUG-CC-PVTZ AUX)
    Blend: AUG-CC-PVTZ-JKFIT
	 Reference Energy          =    -343.8458506548486184 [Eh]
	 Singles Energy            =      -0.0000000000000000 [Eh]
	 Same-Spin Energy          =      -0.3409747709543182 [Eh]
	 Opposite-Spin Energy      =      -1.0997681579940821 [Eh]
	 Correlation Energy        =      -1.4407429289484004 [Eh]
	 Total Energy              =    -345.2865935837970142 [Eh]

	 ================> DF-SCS-MP2 Energies <==================
	-----------------------------------------------------------
	 SCS Same-Spin Scale       =       0.3333333333333333 [-]
	 SCS Opposite-Spin Scale   =       1.2000000000000000 [-]
	 SCS Same-Spin Energy      =      -0.1136582569847727 [Eh]
	 SCS Opposite-Spin Energy  =      -1.3197217895928985 [Eh]
	 SCS Correlation Energy    =      -1.4333800465776714 [Eh]
	 SCS Total Energy          =    -345.2792307014262860 [Eh]
	-----------------------------------------------------------

  Dipole Moment: [D]
     X:    -1.3039      Y:    -1.6660      Z:    -0.0009     Total:     2.1156

*** Psi4 exiting successfully. Buy a developer a beer!
