                               Psi4 1.3.2 release

  ==> Input File <==

--------------------------------------------------------------------------
#psi4
#
memory 32 gb

molecule  {
0 1
  O        2.1793270    -1.1884030     0.0070830
  O        2.0147220     1.0703310     0.0037530
  C       -2.3333640     0.6373300    -0.0064140
  C       -2.9318438    -0.7610854    -0.0732347
  C       -0.8407100     0.7390270    -0.0031060
  C        0.0222220    -0.2866530     0.0001530
  C        1.4732850    -0.0238670     0.0030520
  H       -2.7392246     1.1402617    -0.8942937
  H       -2.7141290     1.1896330     0.8630350
  H       -3.9853730    -0.7577330    -0.0084480
  H       -2.5694230    -1.3301270     0.8805270
  H       -2.5653610    -1.3323610    -0.8894680
  H       -0.4156920     1.7426300    -0.0033930
  H       -0.2913660    -1.3244520     0.0007550
  H        3.1211320    -0.9203150     0.0096400
units angstrom
no_reorient  #important for SAPT in psi4, default
symmetry c1  #important for SAPT in psi4, default
}

set PROPERTIES_ORIGIN ["COM"]
properties('MP2/aug-cc-pvtz', properties = ['dipole'])
--------------------------------------------------------------------------

    Molecular point group: c1
  Charge       = 0
  Multiplicity = 1
  Basis Set: AUG-CC-PVTZ
    Blend: AUG-CC-PVTZ
  Basis Set: (AUG-CC-PVTZ AUX)
    Blend: AUG-CC-PVTZ-JKFIT

    Orbital Energies [Eh]
    ---------------------

    Doubly Occupied:

       1A    -20.610878     2A    -20.540670     3A    -11.386125
       4A    -11.268883     5A    -11.247470     6A    -11.241446
       7A    -11.229070     8A     -1.453442     9A     -1.348536
      10A     -1.111277    11A     -1.025680    12A     -0.916785
      13A     -0.841900    14A     -0.740162    15A     -0.706402
      16A     -0.694845    17A     -0.632395    18A     -0.622456
      19A     -0.616877    20A     -0.601323    21A     -0.574099
      22A     -0.524123    23A     -0.512986    24A     -0.486830
      25A     -0.481566    26A     -0.451219    27A     -0.381494

  @DF-RHF Final Energy:  -343.85288331700662

   => Energetics <=

    Nuclear Repulsion Energy =            285.2013542945721838
    One-Electron Energy =               -1033.6105945558072108
    Two-Electron Energy =                 404.5563569442284120
    Total Energy =                       -343.8528833170066150
  Basis Set: (AUG-CC-PVTZ AUX)
    Blend: AUG-CC-PVTZ-RI
    Molecular point group: c1

    Geometry (in Angstrom), charge = 0, multiplicity = 1:

       Center              X                  Y                   Z               Mass
    ------------   -----------------  -----------------  -----------------  -----------------
         O            2.184284985733    -1.190037575644     0.015311156860    15.994914619570
         O            2.019679985733     1.068696424356     0.011981156860    15.994914619570
         C           -2.328406014267     0.635695424356     0.001814156860    12.000000000000
         C           -2.926885814267    -0.762719975644    -0.065006543140    12.000000000000
         C           -0.835752014267     0.737392424356     0.005122156860    12.000000000000
         C            0.027179985733    -0.288287575644     0.008381156860    12.000000000000
         C            1.478242985733    -0.025501575644     0.011280156860    12.000000000000
         H           -2.734266614267     1.138627124356    -0.886065543140     1.007825032230
         H           -2.709171014267     1.187998424356     0.871263156860     1.007825032230
         H           -3.980415014267    -0.759367575644    -0.000219843140     1.007825032230
         H           -2.564465014267    -1.331761575644     0.888755156860     1.007825032230
         H           -2.560403014267    -1.333995575644    -0.881239843140     1.007825032230
         H           -0.410734014267     1.740995424356     0.004835156860     1.007825032230
         H           -0.286408014267    -1.326086575644     0.008983156860     1.007825032230
         H            3.126089985733    -0.921949575644     0.017868156860     1.007825032230

  Basis Set: AUG-CC-PVTZ
    Blend: AUG-CC-PVTZ
  Basis Set: (AUG-CC-PVTZ AUX)
    Blend: AUG-CC-PVTZ-JKFIT
	 Reference Energy          =    -343.8528833170066150 [Eh]
	 Singles Energy            =      -0.0000000000000000 [Eh]
	 Same-Spin Energy          =      -0.3407270236345252 [Eh]
	 Opposite-Spin Energy      =      -1.0997412069809751 [Eh]
	 Correlation Energy        =      -1.4404682306155003 [Eh]
	 Total Energy              =    -345.2933515476221373 [Eh]

	 ================> DF-SCS-MP2 Energies <==================
	-----------------------------------------------------------
	 SCS Same-Spin Scale       =       0.3333333333333333 [-]
	 SCS Opposite-Spin Scale   =       1.2000000000000000 [-]
	 SCS Same-Spin Energy      =      -0.1135756745448417 [Eh]
	 SCS Opposite-Spin Energy  =      -1.3196894483771702 [Eh]
	 SCS Correlation Energy    =      -1.4332651229220119 [Eh]
	 SCS Total Energy          =    -345.2861484399286383 [Eh]
	-----------------------------------------------------------

  Dipole Moment: [D]
     X:    -1.7962      Y:    -0.9198      Z:    -0.0419     Total:     2.0185

*** Psi4 exiting successfully. Buy a developer a beer!
