                               Psi4 1.3.2 release

  ==> Input File <==

--------------------------------------------------------------------------
#psi4
#
memory 32 gb

molecule  {
0 1
  O        2.1793270    -1.1884030     0.0070830
  O        2.0147220     1.0703310     0.0037530
  C       -2.3333640     0.6373300    -0.0064140
  C       -2.8929490    -0.7786760    -0.0059160
  C       -0.8407100     0.7390270    -0.0031060
  C        0.0222220    -0.2866530     0.0001530
  C        1.4732850    -0.0238670     0.0030520
  H       -2.7101490     1.1874440    -0.8789970
  H       -2.7141290     1.1896330     0.8630350
  H       -3.9853730    -0.7577330    -0.0084480
  H       -2.5694230    -1.3301270     0.8805270
  H       -2.5653610    -1.3323610    -0.8894680
  H       -0.4156920     1.7426300    -0.0033930
  H       -0.1303687    -1.2057936     0.0009646
  H        3.1211320    -0.9203150     0.0096400
units angstrom
no_reorient  #important for SAPT in psi4, default
symmetry c1  #important for SAPT in psi4, default
}

set PROPERTIES_ORIGIN ["COM"]
properties('MP2/aug-cc-pvtz', properties = ['dipole'])
--------------------------------------------------------------------------

    Molecular point group: c1
  Charge       = 0
  Multiplicity = 1
  Basis Set: AUG-CC-PVTZ
    Blend: AUG-CC-PVTZ
  Basis Set: (AUG-CC-PVTZ AUX)
    Blend: AUG-CC-PVTZ-JKFIT

    Orbital Energies [Eh]
    ---------------------

    Doubly Occupied:

       1A    -20.610823     2A    -20.537423     3A    -11.380997
       4A    -11.269713     5A    -11.247299     6A    -11.228464
       7A    -11.224122     8A     -1.452677     9A     -1.346477
      10A     -1.114408    11A     -1.030110    12A     -0.921258
      13A     -0.841879    14A     -0.762874    15A     -0.705613
      16A     -0.693857    17A     -0.631783    18A     -0.620389
      19A     -0.620331    20A     -0.614841    21A     -0.571301
      22A     -0.514844    23A     -0.513263    24A     -0.507152
      25A     -0.481541    26A     -0.447795    27A     -0.380746

  @DF-RHF Final Energy:  -343.84023683445378

   => Energetics <=

    Nuclear Repulsion Energy =            286.2308371368240500
    One-Electron Energy =               -1035.5981916012569855
    Two-Electron Energy =                 405.5271176299792160
    Total Energy =                       -343.8402368344537763
  Basis Set: (AUG-CC-PVTZ AUX)
    Blend: AUG-CC-PVTZ-RI
    Molecular point group: c1

    Geometry (in Angstrom), charge = 0, multiplicity = 1:

       Center              X                  Y                   Z               Mass
    ------------   -----------------  -----------------  -----------------  -----------------
         O            2.177705457081    -1.189598318033     0.007080951542    15.994914619570
         O            2.013100457081     1.069135681967     0.003750951542    15.994914619570
         C           -2.334985542919     0.636134681967    -0.006416048458    12.000000000000
         C           -2.894570542919    -0.779871318033    -0.005918048458    12.000000000000
         C           -0.842331542919     0.737831681967    -0.003108048458    12.000000000000
         C            0.020600457081    -0.287848318033     0.000150951542    12.000000000000
         C            1.471663457081    -0.025062318033     0.003049951542    12.000000000000
         H           -2.711770542919     1.186248681967    -0.878999048458     1.007825032230
         H           -2.715750542919     1.188437681967     0.863032951542     1.007825032230
         H           -3.986994542919    -0.758928318033    -0.008450048458     1.007825032230
         H           -2.571044542919    -1.331322318033     0.880524951542     1.007825032230
         H           -2.566982542919    -1.333556318033    -0.889470048458     1.007825032230
         H           -0.417313542919     1.741434681967    -0.003395048458     1.007825032230
         H           -0.131990242919    -1.206988918033     0.000962551542     1.007825032230
         H            3.119510457081    -0.921510318033     0.009637951542     1.007825032230

  Basis Set: AUG-CC-PVTZ
    Blend: AUG-CC-PVTZ
  Basis Set: (AUG-CC-PVTZ AUX)
    Blend: AUG-CC-PVTZ-JKFIT
	 Reference Energy          =    -343.8402368344537763 [Eh]
	 Singles Energy            =      -0.0000000000000000 [Eh]
	 Same-Spin Energy          =      -0.3402891502321983 [Eh]
	 Opposite-Spin Energy      =      -1.0987288219180922 [Eh]
	 Correlation Energy        =      -1.4390179721502905 [Eh]
	 Total Energy              =    -345.2792548066040581 [Eh]

	 ================> DF-SCS-MP2 Energies <==================
	-----------------------------------------------------------
	 SCS Same-Spin Scale       =       0.3333333333333333 [-]
	 SCS Opposite-Spin Scale   =       1.2000000000000000 [-]
	 SCS Same-Spin Energy      =      -0.1134297167440661 [Eh]
	 SCS Opposite-Spin Energy  =      -1.3184745863017107 [Eh]
	 SCS Correlation Energy    =      -1.4319043030457768 [Eh]
	 SCS Total Energy          =    -345.2721411374995455 [Eh]
	-----------------------------------------------------------

  Dipole Moment: [D]
     X:    -1.8230      Y:    -0.9329      Z:    -0.0033     Total:     2.0478

*** Psi4 exiting successfully. Buy a developer a beer!
