                               Psi4 1.3.2 release

  ==> Input File <==

--------------------------------------------------------------------------
#psi4
#
memory 32 gb

molecule  {
0 1
  O        2.1793270    -1.1884030     0.0070830
  O        2.0147220     1.0703310     0.0037530
  C       -2.3333640     0.6373300    -0.0064140
  C       -2.8929490    -0.7786760    -0.0059160
  C       -0.8407100     0.7390270    -0.0031060
  C        0.0222220    -0.2866530     0.0001530
  C        1.4732850    -0.0238670     0.0030520
  H       -2.7101490     1.1874440    -0.8789970
  H       -2.7141290     1.1896330     0.8630350
  H       -3.9853730    -0.7577330    -0.0084480
  H       -2.5694230    -1.3301270     0.8805270
  H       -2.5653610    -1.3323610    -0.8894680
  H       -0.3766956     1.8347130    -0.0034193
  H       -0.2913660    -1.3244520     0.0007550
  H        3.1211320    -0.9203150     0.0096400
units angstrom
no_reorient  #important for SAPT in psi4, default
symmetry c1  #important for SAPT in psi4, default
}

set PROPERTIES_ORIGIN ["COM"]
properties('MP2/aug-cc-pvtz', properties = ['dipole'])
--------------------------------------------------------------------------

    Molecular point group: c1
  Charge       = 0
  Multiplicity = 1
  Basis Set: AUG-CC-PVTZ
    Blend: AUG-CC-PVTZ
  Basis Set: (AUG-CC-PVTZ AUX)
    Blend: AUG-CC-PVTZ-JKFIT

    Orbital Energies [Eh]
    ---------------------

    Doubly Occupied:

       1A    -20.610462     2A    -20.539868     3A    -11.385548
       4A    -11.277867     5A    -11.248007     6A    -11.240874
       7A    -11.228999     8A     -1.452914     9A     -1.347881
      10A     -1.109353    11A     -1.024068    12A     -0.913591
      13A     -0.842361    14A     -0.729361    15A     -0.704638
      16A     -0.690315    17A     -0.632143    18A     -0.620689
      19A     -0.615639    20A     -0.596471    21A     -0.568800
      22A     -0.515184    23A     -0.512893    24A     -0.495344
      25A     -0.482488    26A     -0.450721    27A     -0.380872

  @DF-RHF Final Energy:  -343.85290378725603

   => Energetics <=

    Nuclear Repulsion Energy =            285.0288826507695603
    One-Electron Energy =               -1033.3288666912997087
    Two-Electron Energy =                 404.4470802532741232
    Total Energy =                       -343.8529037872560252
  Basis Set: (AUG-CC-PVTZ AUX)
    Blend: AUG-CC-PVTZ-RI
    Molecular point group: c1

    Geometry (in Angstrom), charge = 0, multiplicity = 1:

       Center              X                  Y                   Z               Mass
    ------------   -----------------  -----------------  -----------------  -----------------
         O            2.178934368379    -1.189330624849     0.007083327756    15.994914619570
         O            2.014329368379     1.069403375151     0.003753327756    15.994914619570
         C           -2.333756631621     0.636402375151    -0.006413672244    12.000000000000
         C           -2.893341631621    -0.779603624849    -0.005915672244    12.000000000000
         C           -0.841102631621     0.738099375151    -0.003105672244    12.000000000000
         C            0.021829368379    -0.287580624849     0.000153327756    12.000000000000
         C            1.472892368379    -0.024794624849     0.003052327756    12.000000000000
         H           -2.710541631621     1.186516375151    -0.878996672244     1.007825032230
         H           -2.714521631621     1.188705375151     0.863035327756     1.007825032230
         H           -3.985765631621    -0.758660624849    -0.008447672244     1.007825032230
         H           -2.569815631621    -1.331054624849     0.880527327756     1.007825032230
         H           -2.565753631621    -1.333288624849    -0.889467672244     1.007825032230
         H           -0.377088231621     1.833785375151    -0.003418972244     1.007825032230
         H           -0.291758631621    -1.325379624849     0.000755327756     1.007825032230
         H            3.120739368379    -0.921242624849     0.009640327756     1.007825032230

  Basis Set: AUG-CC-PVTZ
    Blend: AUG-CC-PVTZ
  Basis Set: (AUG-CC-PVTZ AUX)
    Blend: AUG-CC-PVTZ-JKFIT
	 Reference Energy          =    -343.8529037872560252 [Eh]
	 Singles Energy            =      -0.0000000000000000 [Eh]
	 Same-Spin Energy          =      -0.3409829189986102 [Eh]
	 Opposite-Spin Energy      =      -1.1004215863445672 [Eh]
	 Correlation Energy        =      -1.4414045053431774 [Eh]
	 Total Energy              =    -345.2943082925992258 [Eh]

	 ================> DF-SCS-MP2 Energies <==================
	-----------------------------------------------------------
	 SCS Same-Spin Scale       =       0.3333333333333333 [-]
	 SCS Opposite-Spin Scale   =       1.2000000000000000 [-]
	 SCS Same-Spin Energy      =      -0.1136609729995367 [Eh]
	 SCS Opposite-Spin Energy  =      -1.3205059036134805 [Eh]
	 SCS Correlation Energy    =      -1.4341668766130173 [Eh]
	 SCS Total Energy          =    -345.2870706638690308 [Eh]
	-----------------------------------------------------------

  Dipole Moment: [D]
     X:    -1.8265      Y:    -0.9405      Z:    -0.0033     Total:     2.0544

*** Psi4 exiting successfully. Buy a developer a beer!
