                               Psi4 1.3.2 release

  ==> Input File <==

--------------------------------------------------------------------------
#psi4
#
memory 32 gb

molecule  {
0 1
  O        2.1793270    -1.1884030     0.0070830
  O        2.0147220     1.0703310     0.0037530
  C       -2.3333640     0.6373300    -0.0064140
  C       -2.8180743    -0.8060217    -0.0057091
  C       -0.8374335     0.6607680    -0.0029997
  C        0.0222220    -0.2866530     0.0001530
  C        1.4732850    -0.0238670     0.0030520
  H       -2.7101490     1.1874440    -0.8789970
  H       -2.7141290     1.1896330     0.8630350
  H       -3.9853730    -0.7577330    -0.0084480
  H       -2.5694230    -1.3301270     0.8805270
  H       -2.5653610    -1.3323610    -0.8894680
  H       -0.4156920     1.7426300    -0.0033930
  H       -0.2913660    -1.3244520     0.0007550
  H        3.1211320    -0.9203150     0.0096400
units angstrom
no_reorient  #important for SAPT in psi4, default
symmetry c1  #important for SAPT in psi4, default
}

set PROPERTIES_ORIGIN ["COM"]
properties('MP2/aug-cc-pvtz', properties = ['dipole'])
--------------------------------------------------------------------------

    Molecular point group: c1
  Charge       = 0
  Multiplicity = 1
  Basis Set: AUG-CC-PVTZ
    Blend: AUG-CC-PVTZ
  Basis Set: (AUG-CC-PVTZ AUX)
    Blend: AUG-CC-PVTZ-JKFIT

    Orbital Energies [Eh]
    ---------------------

    Doubly Occupied:

       1A    -20.612462     2A    -20.542667     3A    -11.388065
       4A    -11.260050     5A    -11.247591     6A    -11.233419
       7A    -11.227623     8A     -1.454923     9A     -1.349924
      10A     -1.120625    11A     -1.029266    12A     -0.911360
      13A     -0.850259    14A     -0.729589    15A     -0.709441
      16A     -0.692500    17A     -0.639624    18A     -0.623807
      19A     -0.617951    20A     -0.601320    21A     -0.562690
      22A     -0.528609    23A     -0.513258    24A     -0.484511
      25A     -0.471510    26A     -0.452503    27A     -0.395251

  @DF-RHF Final Energy:  -343.84529930481222

   => Energetics <=

    Nuclear Repulsion Energy =            286.8299606608784984
    One-Electron Energy =               -1036.8489217252736125
    Two-Electron Energy =                 406.1736617595829557
    Total Energy =                       -343.8452993048122153
  Basis Set: (AUG-CC-PVTZ AUX)
    Blend: AUG-CC-PVTZ-RI
    Molecular point group: c1

    Geometry (in Angstrom), charge = 0, multiplicity = 1:

       Center              X                  Y                   Z               Mass
    ------------   -----------------  -----------------  -----------------  -----------------
         O            2.169953948249    -1.175737152314     0.007045498531    15.994914619570
         O            2.005348948249     1.082996847686     0.003715498531    15.994914619570
         C           -2.342737051751     0.649995847686    -0.006451501469    12.000000000000
         C           -2.827447351751    -0.793355852314    -0.005746601469    12.000000000000
         C           -0.846806551751     0.673433847686    -0.003037201469    12.000000000000
         C            0.012848948249    -0.273987152314     0.000115498531    12.000000000000
         C            1.463911948249    -0.011201152314     0.003014498531    12.000000000000
         H           -2.719522051751     1.200109847686    -0.879034501469     1.007825032230
         H           -2.723502051751     1.202298847686     0.862997498531     1.007825032230
         H           -3.994746051751    -0.745067152314    -0.008485501469     1.007825032230
         H           -2.578796051751    -1.317461152314     0.880489498531     1.007825032230
         H           -2.574734051751    -1.319695152314    -0.889505501469     1.007825032230
         H           -0.425065051751     1.755295847686    -0.003430501469     1.007825032230
         H           -0.300739051751    -1.311786152314     0.000717498531     1.007825032230
         H            3.111758948249    -0.907649152314     0.009602498531     1.007825032230

  Basis Set: AUG-CC-PVTZ
    Blend: AUG-CC-PVTZ
  Basis Set: (AUG-CC-PVTZ AUX)
    Blend: AUG-CC-PVTZ-JKFIT
	 Reference Energy          =    -343.8452993048122153 [Eh]
	 Singles Energy            =      -0.0000000000000000 [Eh]
	 Same-Spin Energy          =      -0.3407691914768380 [Eh]
	 Opposite-Spin Energy      =      -1.0996221465349276 [Eh]
	 Correlation Energy        =      -1.4403913380117657 [Eh]
	 Total Energy              =    -345.2856906428239654 [Eh]

	 ================> DF-SCS-MP2 Energies <==================
	-----------------------------------------------------------
	 SCS Same-Spin Scale       =       0.3333333333333333 [-]
	 SCS Opposite-Spin Scale   =       1.2000000000000000 [-]
	 SCS Same-Spin Energy      =      -0.1135897304922793 [Eh]
	 SCS Opposite-Spin Energy  =      -1.3195465758419131 [Eh]
	 SCS Correlation Energy    =      -1.4331363063341924 [Eh]
	 SCS Total Energy          =    -345.2784356111463921 [Eh]
	-----------------------------------------------------------

  Dipole Moment: [D]
     X:    -1.7219      Y:    -0.9580      Z:    -0.0030     Total:     1.9704

*** Psi4 exiting successfully. Buy a developer a beer!
