                               Psi4 1.3.2 release

  ==> Input File <==

--------------------------------------------------------------------------
#psi4
#
memory 32 gb

molecule  {
0 1
  O        2.2195387    -1.1630529     0.0071267
  O        2.0147220     1.0703310     0.0037530
  C       -2.3333640     0.6373300    -0.0064140
  C       -2.8929490    -0.7786760    -0.0059160
  C       -0.8407100     0.7390270    -0.0031060
  C        0.0139351    -0.2358516     0.0000304
  C        1.4732850    -0.0238670     0.0030520
  H       -2.7101490     1.1874440    -0.8789970
  H       -2.7141290     1.1896330     0.8630350
  H       -3.9853730    -0.7577330    -0.0084480
  H       -2.5694230    -1.3301270     0.8805270
  H       -2.5653610    -1.3323610    -0.8894680
  H       -0.4156920     1.7426300    -0.0033930
  H       -0.2913660    -1.3244520     0.0007550
  H        3.1211320    -0.9203150     0.0096400
units angstrom
no_reorient  #important for SAPT in psi4, default
symmetry c1  #important for SAPT in psi4, default
}

set PROPERTIES_ORIGIN ["COM"]
properties('MP2/aug-cc-pvtz', properties = ['dipole'])
--------------------------------------------------------------------------

    Molecular point group: c1
  Charge       = 0
  Multiplicity = 1
  Basis Set: AUG-CC-PVTZ
    Blend: AUG-CC-PVTZ
  Basis Set: (AUG-CC-PVTZ AUX)
    Blend: AUG-CC-PVTZ-JKFIT

    Orbital Energies [Eh]
    ---------------------

    Doubly Occupied:

       1A    -20.606871     2A    -20.538770     3A    -11.386969
       4A    -11.260067     5A    -11.247355     6A    -11.241424
       7A    -11.228260     8A     -1.459627     9A     -1.349923
      10A     -1.117978    11A     -1.027334    12A     -0.918426
      13A     -0.852723    14A     -0.739107    15A     -0.711149
      16A     -0.694374    17A     -0.632595    18A     -0.621569
      19A     -0.617748    20A     -0.604730    21A     -0.562586
      22A     -0.515340    23A     -0.514110    24A     -0.499929
      25A     -0.483084    26A     -0.448836    27A     -0.390412

  @DF-RHF Final Energy:  -343.85829612773557

   => Energetics <=

    Nuclear Repulsion Energy =            285.9720988488552962
    One-Electron Energy =               -1035.1182045255482080
    Two-Electron Energy =                 405.2878095489573980
    Total Energy =                       -343.8582961277355707
  Basis Set: (AUG-CC-PVTZ AUX)
    Blend: AUG-CC-PVTZ-RI
    Molecular point group: c1

    Geometry (in Angstrom), charge = 0, multiplicity = 1:

       Center              X                  Y                   Z               Mass
    ------------   -----------------  -----------------  -----------------  -----------------
         O            2.214104328137    -1.173198551211     0.007134481012    15.994914619570
         O            2.009287628137     1.060185348789     0.003760781012    15.994914619570
         C           -2.338798371863     0.627184348789    -0.006406218988    12.000000000000
         C           -2.898383371863    -0.788821651211    -0.005908218988    12.000000000000
         C           -0.846144371863     0.728881348789    -0.003098218988    12.000000000000
         C            0.008500728137    -0.245997251211     0.000038181012    12.000000000000
         C            1.467850628137    -0.034012651211     0.003059781012    12.000000000000
         H           -2.715583371863     1.177298348789    -0.878989218988     1.007825032230
         H           -2.719563371863     1.179487348789     0.863042781012     1.007825032230
         H           -3.990807371863    -0.767878651211    -0.008440218988     1.007825032230
         H           -2.574857371863    -1.340272651211     0.880534781012     1.007825032230
         H           -2.570795371863    -1.342506651211    -0.889460218988     1.007825032230
         H           -0.421126371863     1.732484348789    -0.003385218988     1.007825032230
         H           -0.296800371863    -1.334597651211     0.000762781012     1.007825032230
         H            3.115697628137    -0.930460651211     0.009647781012     1.007825032230

  Basis Set: AUG-CC-PVTZ
    Blend: AUG-CC-PVTZ
  Basis Set: (AUG-CC-PVTZ AUX)
    Blend: AUG-CC-PVTZ-JKFIT
	 Reference Energy          =    -343.8582961277355707 [Eh]
	 Singles Energy            =      -0.0000000000000000 [Eh]
	 Same-Spin Energy          =      -0.3395366790411086 [Eh]
	 Opposite-Spin Energy      =      -1.0970004078179063 [Eh]
	 Correlation Energy        =      -1.4365370868590150 [Eh]
	 Total Energy              =    -345.2948332145945756 [Eh]

	 ================> DF-SCS-MP2 Energies <==================
	-----------------------------------------------------------
	 SCS Same-Spin Scale       =       0.3333333333333333 [-]
	 SCS Opposite-Spin Scale   =       1.2000000000000000 [-]
	 SCS Same-Spin Energy      =      -0.1131788930137029 [Eh]
	 SCS Opposite-Spin Energy  =      -1.3164004893814876 [Eh]
	 SCS Correlation Energy    =      -1.4295793823951906 [Eh]
	 SCS Total Energy          =    -345.2878755101307888 [Eh]
	-----------------------------------------------------------

  Dipole Moment: [D]
     X:    -1.8497      Y:    -0.9291      Z:    -0.0033     Total:     2.0699

*** Psi4 exiting successfully. Buy a developer a beer!
