                               Psi4 1.3.2 release

  ==> Input File <==

--------------------------------------------------------------------------
#psi4
#
memory 32 gb

molecule  {
0 1
  O        2.1793270    -1.1884030     0.0070830
  O        2.0147220     1.0703310     0.0037530
  C       -2.3333640     0.6373300    -0.0064140
  C       -2.8929490    -0.7786760    -0.0059160
  C       -0.8407100     0.7390270    -0.0031060
  C       -0.1065350    -0.1336125    -0.0003333
  C        1.4732850    -0.0238670     0.0030520
  H       -2.7101490     1.1874440    -0.8789970
  H       -2.7141290     1.1896330     0.8630350
  H       -3.9853730    -0.7577330    -0.0084480
  H       -2.5694230    -1.3301270     0.8805270
  H       -2.5653610    -1.3323610    -0.8894680
  H       -0.4156920     1.7426300    -0.0033930
  H       -0.2913660    -1.3244520     0.0007550
  H        3.1211320    -0.9203150     0.0096400
units angstrom
no_reorient  #important for SAPT in psi4, default
symmetry c1  #important for SAPT in psi4, default
}

set PROPERTIES_ORIGIN ["COM"]
properties('MP2/aug-cc-pvtz', properties = ['dipole'])
--------------------------------------------------------------------------

    Molecular point group: c1
  Charge       = 0
  Multiplicity = 1
  Basis Set: AUG-CC-PVTZ
    Blend: AUG-CC-PVTZ
  Basis Set: (AUG-CC-PVTZ AUX)
    Blend: AUG-CC-PVTZ-JKFIT

    Orbital Energies [Eh]
    ---------------------

    Doubly Occupied:

       1A    -20.621775     2A    -20.546715     3A    -11.393758
       4A    -11.240125     5A    -11.234870     6A    -11.223583
       7A    -11.220027     8A     -1.458508     9A     -1.354206
      10A     -1.144618    11A     -1.024736    12A     -0.898955
      13A     -0.850911    14A     -0.725787    15A     -0.707769
      16A     -0.699249    17A     -0.632186    18A     -0.626204
      19A     -0.621031    20A     -0.609173    21A     -0.548302
      22A     -0.514643    23A     -0.509942    24A     -0.489940
      25A     -0.487530    26A     -0.430122    27A     -0.426306

  @DF-RHF Final Energy:  -343.78642964877150

   => Energetics <=

    Nuclear Repulsion Energy =            286.9040202789047385
    One-Electron Energy =               -1036.8989564070270717
    Two-Electron Energy =                 406.2085064793508877
    Total Energy =                       -343.7864296487715023
  Basis Set: (AUG-CC-PVTZ AUX)
    Blend: AUG-CC-PVTZ-RI
    Molecular point group: c1

    Geometry (in Angstrom), charge = 0, multiplicity = 1:

       Center              X                  Y                   Z               Mass
    ------------   -----------------  -----------------  -----------------  -----------------
         O            2.194769921359    -1.206758312076     0.007141388257    15.994914619570
         O            2.030164921359     1.051975687924     0.003811388257    15.994914619570
         C           -2.317921078641     0.618974687924    -0.006355611743    12.000000000000
         C           -2.877506078641    -0.797031312076    -0.005857611743    12.000000000000
         C           -0.825267078641     0.720671687924    -0.003047611743    12.000000000000
         C           -0.091092078641    -0.151967812076    -0.000274911743    12.000000000000
         C            1.488727921359    -0.042222312076     0.003110388257    12.000000000000
         H           -2.694706078641     1.169088687924    -0.878938611743     1.007825032230
         H           -2.698686078641     1.171277687924     0.863093388257     1.007825032230
         H           -3.969930078641    -0.776088312076    -0.008389611743     1.007825032230
         H           -2.553980078641    -1.348482312076     0.880585388257     1.007825032230
         H           -2.549918078641    -1.350716312076    -0.889409611743     1.007825032230
         H           -0.400249078641     1.724274687924    -0.003334611743     1.007825032230
         H           -0.275923078641    -1.342807312076     0.000813388257     1.007825032230
         H            3.136574921359    -0.938670312076     0.009698388257     1.007825032230

  Basis Set: AUG-CC-PVTZ
    Blend: AUG-CC-PVTZ
  Basis Set: (AUG-CC-PVTZ AUX)
    Blend: AUG-CC-PVTZ-JKFIT
	 Reference Energy          =    -343.7864296487715023 [Eh]
	 Singles Energy            =      -0.0000000000000000 [Eh]
	 Same-Spin Energy          =      -0.3401199429814590 [Eh]
	 Opposite-Spin Energy      =      -1.0977785119115753 [Eh]
	 Correlation Energy        =      -1.4378984548930343 [Eh]
	 Total Energy              =    -345.2243281036645612 [Eh]

	 ================> DF-SCS-MP2 Energies <==================
	-----------------------------------------------------------
	 SCS Same-Spin Scale       =       0.3333333333333333 [-]
	 SCS Opposite-Spin Scale   =       1.2000000000000000 [-]
	 SCS Same-Spin Energy      =      -0.1133733143271530 [Eh]
	 SCS Opposite-Spin Energy  =      -1.3173342142938902 [Eh]
	 SCS Correlation Energy    =      -1.4307075286210431 [Eh]
	 SCS Total Energy          =    -345.2171371773925443 [Eh]
	-----------------------------------------------------------

  Dipole Moment: [D]
     X:    -1.2954      Y:    -0.9508      Z:    -0.0021     Total:     1.6068

*** Psi4 exiting successfully. Buy a developer a beer!
