                               Psi4 1.3.2 release

  ==> Input File <==

--------------------------------------------------------------------------
#psi4
#
memory 32 gb

molecule  {
0 1
  O        2.1793270    -1.1884030     0.0070830
  O        2.0147220     1.0703310     0.0037530
  C       -2.3333640     0.6373300    -0.0064140
  C       -2.8929490    -0.7786760    -0.0059160
  C       -0.8407100     0.7390270    -0.0031060
  C        0.0222220    -0.2866530     0.0001530
  C        1.4732850    -0.0238670     0.0030520
  H       -2.7101490     1.1874440    -0.8789970
  H       -2.7141290     1.1896330     0.8630350
  H       -3.9853730    -0.7577330    -0.0084480
  H       -2.5694230    -1.3301270     0.8805270
  H       -2.5653610    -1.3323610    -0.8894680
  H       -0.4156920     1.7426300    -0.0033930
  H       -0.3718647    -1.3837812     0.0006502
  H        3.1211320    -0.9203150     0.0096400
units angstrom
no_reorient  #important for SAPT in psi4, default
symmetry c1  #important for SAPT in psi4, default
}

set PROPERTIES_ORIGIN ["COM"]
properties('MP2/aug-cc-pvtz', properties = ['dipole'])
--------------------------------------------------------------------------

    Molecular point group: c1
  Charge       = 0
  Multiplicity = 1
  Basis Set: AUG-CC-PVTZ
    Blend: AUG-CC-PVTZ
  Basis Set: (AUG-CC-PVTZ AUX)
    Blend: AUG-CC-PVTZ-JKFIT

    Orbital Energies [Eh]
    ---------------------

    Doubly Occupied:

       1A    -20.610363     2A    -20.541368     3A    -11.387779
       4A    -11.267419     5A    -11.248594     6A    -11.247469
       7A    -11.228658     8A     -1.453256     9A     -1.348804
      10A     -1.110507    11A     -1.022512    12A     -0.915288
      13A     -0.842941    14A     -0.731083    15A     -0.703827
      16A     -0.694292    17A     -0.632118    18A     -0.620920
      19A     -0.616354    20A     -0.593617    21A     -0.564596
      22A     -0.515115    23A     -0.512433    24A     -0.502129
      25A     -0.483145    26A     -0.451469    27A     -0.380803

  @DF-RHF Final Energy:  -343.85426849763815

   => Energetics <=

    Nuclear Repulsion Energy =            285.1099803251991034
    One-Electron Energy =               -1033.4747800339712285
    Two-Electron Energy =                 404.5105312111339799
    Total Energy =                       -343.8542684976381452
  Basis Set: (AUG-CC-PVTZ AUX)
    Blend: AUG-CC-PVTZ-RI
    Molecular point group: c1

    Geometry (in Angstrom), charge = 0, multiplicity = 1:

       Center              X                  Y                   Z               Mass
    ------------   -----------------  -----------------  -----------------  -----------------
         O            2.180138038831    -1.187805454435     0.007084118484    15.994914619570
         O            2.015533038831     1.070928545565     0.003754118484    15.994914619570
         C           -2.332552961169     0.637927545565    -0.006412881516    12.000000000000
         C           -2.892137961169    -0.778078454435    -0.005914881516    12.000000000000
         C           -0.839898961169     0.739624545565    -0.003104881516    12.000000000000
         C            0.023033038831    -0.286055454435     0.000154118484    12.000000000000
         C            1.474096038831    -0.023269454435     0.003053118484    12.000000000000
         H           -2.709337961169     1.188041545565    -0.878995881516     1.007825032230
         H           -2.713317961169     1.190230545565     0.863036118484     1.007825032230
         H           -3.984561961169    -0.757135454435    -0.008446881516     1.007825032230
         H           -2.568611961169    -1.329529454435     0.880528118484     1.007825032230
         H           -2.564549961169    -1.331763454435    -0.889466881516     1.007825032230
         H           -0.414880961169     1.743227545565    -0.003391881516     1.007825032230
         H           -0.371053661169    -1.383183654435     0.000651318484     1.007825032230
         H            3.121943038831    -0.919717454435     0.009641118484     1.007825032230

  Basis Set: AUG-CC-PVTZ
    Blend: AUG-CC-PVTZ
  Basis Set: (AUG-CC-PVTZ AUX)
    Blend: AUG-CC-PVTZ-JKFIT
	 Reference Energy          =    -343.8542684976381452 [Eh]
	 Singles Energy            =      -0.0000000000000000 [Eh]
	 Same-Spin Energy          =      -0.3410154889901716 [Eh]
	 Opposite-Spin Energy      =      -1.1002907602382384 [Eh]
	 Correlation Energy        =      -1.4413062492284099 [Eh]
	 Total Energy              =    -345.2955747468665777 [Eh]

	 ================> DF-SCS-MP2 Energies <==================
	-----------------------------------------------------------
	 SCS Same-Spin Scale       =       0.3333333333333333 [-]
	 SCS Opposite-Spin Scale   =       1.2000000000000000 [-]
	 SCS Same-Spin Energy      =      -0.1136718296633905 [Eh]
	 SCS Opposite-Spin Energy  =      -1.3203489122858860 [Eh]
	 SCS Correlation Energy    =      -1.4340207419492765 [Eh]
	 SCS Total Energy          =    -345.2882892395874137 [Eh]
	-----------------------------------------------------------

  Dipole Moment: [D]
     X:    -1.8196      Y:    -0.9047      Z:    -0.0033     Total:     2.0321

*** Psi4 exiting successfully. Buy a developer a beer!
