                               Psi4 1.3.2 release

  ==> Input File <==

--------------------------------------------------------------------------
#psi4
#
memory 32 gb

molecule  {
0 1
  O        2.1793270    -1.1884030     0.0070830
  O        2.0147220     1.0703310     0.0037530
  C       -2.3333640     0.6373300    -0.0064140
  C       -2.8929490    -0.7786760    -0.0059160
  C       -0.9404785     0.7322296    -0.0033271
  C        0.0222220    -0.2866530     0.0001530
  C        1.4732850    -0.0238670     0.0030520
  H       -2.7101490     1.1874440    -0.8789970
  H       -2.7141290     1.1896330     0.8630350
  H       -3.9853730    -0.7577330    -0.0084480
  H       -2.5694230    -1.3301270     0.8805270
  H       -2.5653610    -1.3323610    -0.8894680
  H       -0.4156920     1.7426300    -0.0033930
  H       -0.2913660    -1.3244520     0.0007550
  H        3.1211320    -0.9203150     0.0096400
units angstrom
no_reorient  #important for SAPT in psi4, default
symmetry c1  #important for SAPT in psi4, default
}

set PROPERTIES_ORIGIN ["COM"]
properties('MP2/aug-cc-pvtz', properties = ['dipole'])
--------------------------------------------------------------------------

    Molecular point group: c1
  Charge       = 0
  Multiplicity = 1
  Basis Set: AUG-CC-PVTZ
    Blend: AUG-CC-PVTZ
  Basis Set: (AUG-CC-PVTZ AUX)
    Blend: AUG-CC-PVTZ-JKFIT

    Orbital Energies [Eh]
    ---------------------

    Doubly Occupied:

       1A    -20.609291     2A    -20.538438     3A    -11.385560
       4A    -11.278382     5A    -11.245368     6A    -11.244877
       7A    -11.230816     8A     -1.451555     9A     -1.346434
      10A     -1.122357    11A     -1.018362    12A     -0.927075
      13A     -0.841468    14A     -0.732394    15A     -0.705329
      16A     -0.690160    17A     -0.639935    18A     -0.626610
      19A     -0.620375    20A     -0.593974    21A     -0.571106
      22A     -0.527459    23A     -0.521471    24A     -0.491832
      25A     -0.480795    26A     -0.449582    27A     -0.364150

  @DF-RHF Final Energy:  -343.84328457120250

   => Energetics <=

    Nuclear Repulsion Energy =            285.3043698300966753
    One-Electron Energy =               -1033.7849980006201349
    Two-Electron Energy =                 404.6373435993209569
    Total Energy =                       -343.8432845712025028
  Basis Set: (AUG-CC-PVTZ AUX)
    Blend: AUG-CC-PVTZ-RI
    Molecular point group: c1

    Geometry (in Angstrom), charge = 0, multiplicity = 1:

       Center              X                  Y                   Z               Mass
    ------------   -----------------  -----------------  -----------------  -----------------
         O            2.191293124226    -1.187587815071     0.007109580933    15.994914619570
         O            2.026688124226     1.071146184929     0.003779580933    15.994914619570
         C           -2.321397875774     0.638145184929    -0.006387419067    12.000000000000
         C           -2.880982875774    -0.777860815071    -0.005889419067    12.000000000000
         C           -0.928512375774     0.733044784929    -0.003300519067    12.000000000000
         C            0.034188124226    -0.285837815071     0.000179580933    12.000000000000
         C            1.485251124226    -0.023051815071     0.003078580933    12.000000000000
         H           -2.698182875774     1.188259184929    -0.878970419067     1.007825032230
         H           -2.702162875774     1.190448184929     0.863061580933     1.007825032230
         H           -3.973406875774    -0.756917815071    -0.008421419067     1.007825032230
         H           -2.557456875774    -1.329311815071     0.880553580933     1.007825032230
         H           -2.553394875774    -1.331545815071    -0.889441419067     1.007825032230
         H           -0.403725875774     1.743445184929    -0.003366419067     1.007825032230
         H           -0.279399875774    -1.323636815071     0.000781580933     1.007825032230
         H            3.133098124226    -0.919499815071     0.009666580933     1.007825032230

  Basis Set: AUG-CC-PVTZ
    Blend: AUG-CC-PVTZ
  Basis Set: (AUG-CC-PVTZ AUX)
    Blend: AUG-CC-PVTZ-JKFIT
	 Reference Energy          =    -343.8432845712025028 [Eh]
	 Singles Energy            =      -0.0000000000000000 [Eh]
	 Same-Spin Energy          =      -0.3426109148286592 [Eh]
	 Opposite-Spin Energy      =      -1.1022110662301412 [Eh]
	 Correlation Energy        =      -1.4448219810588003 [Eh]
	 Total Energy              =    -345.2881065522612971 [Eh]

	 ================> DF-SCS-MP2 Energies <==================
	-----------------------------------------------------------
	 SCS Same-Spin Scale       =       0.3333333333333333 [-]
	 SCS Opposite-Spin Scale   =       1.2000000000000000 [-]
	 SCS Same-Spin Energy      =      -0.1142036382762197 [Eh]
	 SCS Opposite-Spin Energy  =      -1.3226532794761694 [Eh]
	 SCS Correlation Energy    =      -1.4368569177523891 [Eh]
	 SCS Total Energy          =    -345.2801414889548823 [Eh]
	-----------------------------------------------------------

  Dipole Moment: [D]
     X:    -2.0270      Y:    -0.8934      Z:    -0.0038     Total:     2.2152

*** Psi4 exiting successfully. Buy a developer a beer!
