                               Psi4 1.4a3.dev225

  ==> Input File <==

--------------------------------------------------------------------------
#psi4
#
memory 32 gb

molecule  {
0 1
  O       -2.3109350    -1.1403470    -0.0000450
  O       -2.1116090     1.1175510    -0.0000760
  C        2.2339710     0.6185460     0.0000510
  C        2.7736950    -0.8069580     0.0000920
  C        0.7414440     0.7423990     0.0000070
  C       -0.1379540    -0.2713190     0.0000010
  C       -1.5757049     0.0315347    -0.0000450
  H        2.6208160     1.1641270     0.8715420
  H        2.6208650     1.1640950    -0.8714390
  H        3.8667590    -0.8011940     0.0001220
  H        2.4401730    -1.3549900    -0.8853120
  H        2.4401230    -1.3549580     0.8854960
  H        0.3318170     1.7528370    -0.0000240
  H        0.1592700    -1.3142900     0.0000290
  H       -3.2484020    -0.8568190    -0.0000760
units angstrom
no_reorient  #important for SAPT in psi4, default
symmetry c1  #important for SAPT in psi4, default
}

set PROPERTIES_ORIGIN ["COM"]
properties('MP2/aug-cc-pvtz', properties = ['dipole'])
--------------------------------------------------------------------------

    Molecular point group: c1
  Charge       = 0
  Multiplicity = 1
  Basis Set: AUG-CC-PVTZ
    Blend: AUG-CC-PVTZ
  Basis Set: (AUG-CC-PVTZ AUX)
    Blend: AUG-CC-PVTZ-JKFIT

    Orbital Energies [Eh]
    ---------------------

    Doubly Occupied:

       1A    -20.604458     2A    -20.543160     3A    -11.385470
       4A    -11.269556     5A    -11.248497     6A    -11.241528
       7A    -11.229505     8A     -1.447026     9A     -1.349437
      10A     -1.112287    11A     -1.025385    12A     -0.916011
      13A     -0.839320    14A     -0.737797    15A     -0.704592
      16A     -0.691846    17A     -0.631612    18A     -0.616873
      19A     -0.616076    20A     -0.600413    21A     -0.572175
      22A     -0.515605    23A     -0.512992    24A     -0.506022
      25A     -0.484394    26A     -0.451922    27A     -0.381924

  @DF-RHF Final Energy:  -343.85960691207686

   => Energetics <=

    Nuclear Repulsion Energy =            285.2215307601945256
    One-Electron Energy =               -1033.6905132146778215
    Two-Electron Energy =                 404.6093755424063829
    Total Energy =                       -343.8596069120768561
  Basis Set: (AUG-CC-PVTZ AUX)
    Blend: AUG-CC-PVTZ-RI
    Molecular point group: c1

    Geometry (in Angstrom), charge = 0, multiplicity = 1:

       Center              X                  Y                   Z               Mass
    ------------   -----------------  -----------------  -----------------  -----------------
         O           -2.201057675629    -1.158258518554    -0.000041774293    15.994914619570
         O           -2.001731675629     1.099639481446    -0.000072774293    15.994914619570
         C            2.343848324371     0.600634481446     0.000054225707    12.000000000000
         C            2.883572324371    -0.824869518554     0.000095225707    12.000000000000
         C            0.851321324371     0.724487481446     0.000010225707    12.000000000000
         C           -0.028076675629    -0.289230518554     0.000004225707    12.000000000000
         C           -1.465827575629     0.013623181446    -0.000041774293    12.000000000000
         H            2.730693324371     1.146215481446     0.871545225707     1.007825032230
         H            2.730742324371     1.146183481446    -0.871435774293     1.007825032230
         H            3.976636324371    -0.819105518554     0.000125225707     1.007825032230
         H            2.550050324371    -1.372901518554    -0.885308774293     1.007825032230
         H            2.550000324371    -1.372869518554     0.885499225707     1.007825032230
         H            0.441694324371     1.734925481446    -0.000020774293     1.007825032230
         H            0.269147324371    -1.332201518554     0.000032225707     1.007825032230
         H           -3.138524675629    -0.874730518554    -0.000072774293     1.007825032230

  Basis Set: AUG-CC-PVTZ
    Blend: AUG-CC-PVTZ
  Basis Set: (AUG-CC-PVTZ AUX)
    Blend: AUG-CC-PVTZ-JKFIT
	 Reference Energy          =    -343.8596069120768561 [Eh]
	 Singles Energy            =      -0.0000000000000000 [Eh]
	 Same-Spin Energy          =      -0.3406245992883716 [Eh]
	 Opposite-Spin Energy      =      -1.0995837803482391 [Eh]
	 Correlation Energy        =      -1.4402083796366107 [Eh]
	 Total Energy              =    -345.2998152917134576 [Eh]

	 ================> DF-SCS-MP2 Energies <==================
	-----------------------------------------------------------
	 SCS Same-Spin Scale       =       0.3333333333333333 [-]
	 SCS Opposite-Spin Scale   =       1.2000000000000000 [-]
	 SCS Same-Spin Energy      =      -0.1135415330961239 [Eh]
	 SCS Opposite-Spin Energy  =      -1.3195005364178869 [Eh]
	 SCS Correlation Energy    =      -1.4330420695140107 [Eh]
	 SCS Total Energy          =    -345.2926489815908440 [Eh]
	-----------------------------------------------------------

  Dipole Moment: [D]
     X:     1.9228      Y:    -0.7984      Z:     0.0001     Total:     2.0820

*** Psi4 exiting successfully. Buy a developer a beer!
