                               Psi4 1.4a3.dev225

  ==> Input File <==

--------------------------------------------------------------------------
#psi4
#
memory 32 gb

molecule  {
0 1
  O       -2.3109350    -1.1403470    -0.0000450
  O       -2.1116090     1.1175510    -0.0000760
  C        2.2339710     0.6185460     0.0000510
  C        2.7736950    -0.8069580     0.0000920
  C        0.7414440     0.7423990     0.0000070
  C       -0.1379540    -0.2713190     0.0000010
  C       -1.5863340     0.0145930    -0.0000450
  H        2.6208160     1.1641270     0.8715420
  H        2.6208650     1.1640950    -0.8714390
  H        3.8667590    -0.8011940     0.0001220
  H        2.4401730    -1.3549900    -0.8853120
  H        2.4401230    -1.3549580     0.8854960
  H        0.3130321     1.7991741    -0.0000254
  H        0.1592700    -1.3142900     0.0000290
  H       -3.2484020    -0.8568190    -0.0000760
units angstrom
no_reorient  #important for SAPT in psi4, default
symmetry c1  #important for SAPT in psi4, default
}

set PROPERTIES_ORIGIN ["COM"]
properties('MP2/aug-cc-pvtz', properties = ['dipole'])
--------------------------------------------------------------------------

    Molecular point group: c1
  Charge       = 0
  Multiplicity = 1
  Basis Set: AUG-CC-PVTZ
    Blend: AUG-CC-PVTZ
  Basis Set: (AUG-CC-PVTZ AUX)
    Blend: AUG-CC-PVTZ-JKFIT

    Orbital Energies [Eh]
    ---------------------

    Doubly Occupied:

       1A    -20.610459     2A    -20.540295     3A    -11.386106
       4A    -11.273557     5A    -11.248152     6A    -11.241298
       7A    -11.229148     8A     -1.452209     9A     -1.347609
      10A     -1.109541    11A     -1.023622    12A     -0.914515
      13A     -0.842027    14A     -0.733511    15A     -0.704548
      16A     -0.692241    17A     -0.631675    18A     -0.620233
      19A     -0.615473    20A     -0.598470    21A     -0.569040
      22A     -0.515139    23A     -0.512593    24A     -0.500300
      25A     -0.482486    26A     -0.450730    27A     -0.380554

  @DF-RHF Final Energy:  -343.85741601388969

   => Energetics <=

    Nuclear Repulsion Energy =            284.9581744092771487
    One-Electron Energy =               -1033.1801202850460868
    Two-Electron Energy =                 404.3645298618792481
    Total Energy =                       -343.8574160138896900
  Basis Set: (AUG-CC-PVTZ AUX)
    Blend: AUG-CC-PVTZ-RI
    Molecular point group: c1

    Geometry (in Angstrom), charge = 0, multiplicity = 1:

       Center              X                  Y                   Z               Mass
    ------------   -----------------  -----------------  -----------------  -----------------
         O           -2.199593632295    -1.156693332067    -0.000041760191    15.994914619570
         O           -2.000267632295     1.101204667933    -0.000072760191    15.994914619570
         C            2.345312367705     0.602199667933     0.000054239809    12.000000000000
         C            2.885036367705    -0.823304332067     0.000095239809    12.000000000000
         C            0.852785367705     0.726052667933     0.000010239809    12.000000000000
         C           -0.026612632295    -0.287665332067     0.000004239809    12.000000000000
         C           -1.474992632295    -0.001753332067    -0.000041760191    12.000000000000
         H            2.732157367705     1.147780667933     0.871545239809     1.007825032230
         H            2.732206367705     1.147748667933    -0.871435760191     1.007825032230
         H            3.978100367705    -0.817540332067     0.000125239809     1.007825032230
         H            2.551514367705    -1.371336332067    -0.885308760191     1.007825032230
         H            2.551464367705    -1.371304332067     0.885499239809     1.007825032230
         H            0.424373467705     1.782827767933    -0.000022160191     1.007825032230
         H            0.270611367705    -1.330636332067     0.000032239809     1.007825032230
         H           -3.137060632295    -0.873165332067    -0.000072760191     1.007825032230

  Basis Set: AUG-CC-PVTZ
    Blend: AUG-CC-PVTZ
  Basis Set: (AUG-CC-PVTZ AUX)
    Blend: AUG-CC-PVTZ-JKFIT
	 Reference Energy          =    -343.8574160138896900 [Eh]
	 Singles Energy            =      -0.0000000000000000 [Eh]
	 Same-Spin Energy          =      -0.3408006625593972 [Eh]
	 Opposite-Spin Energy      =      -1.1000158260636597 [Eh]
	 Correlation Energy        =      -1.4408164886230570 [Eh]
	 Total Energy              =    -345.2982325025127466 [Eh]

	 ================> DF-SCS-MP2 Energies <==================
	-----------------------------------------------------------
	 SCS Same-Spin Scale       =       0.3333333333333333 [-]
	 SCS Opposite-Spin Scale   =       1.2000000000000000 [-]
	 SCS Same-Spin Energy      =      -0.1136002208531324 [Eh]
	 SCS Opposite-Spin Energy  =      -1.3200189912763916 [Eh]
	 SCS Correlation Energy    =      -1.4336192121295239 [Eh]
	 SCS Total Energy          =    -345.2910352260192326 [Eh]
	-----------------------------------------------------------

  Dipole Moment: [D]
     X:     1.8142      Y:    -0.9534      Z:     0.0001     Total:     2.0495

*** Psi4 exiting successfully. Buy a developer a beer!
