                               Psi4 1.4a3.dev225

  ==> Input File <==

--------------------------------------------------------------------------
#psi4
#
memory 32 gb

molecule  {
0 1
  O       -2.3109350    -1.1403470    -0.0000450
  O       -2.1116090     1.1175510    -0.0000760
  C        2.2339710     0.6185460     0.0000510
  C        2.7736950    -0.8069580     0.0000920
  C        0.6916153     0.7465339     0.0000055
  C       -0.1379540    -0.2713190     0.0000010
  C       -1.5863340     0.0145930    -0.0000450
  H        2.6208160     1.1641270     0.8715420
  H        2.6208650     1.1640950    -0.8714390
  H        3.8667590    -0.8011940     0.0001220
  H        2.4401730    -1.3549900    -0.8853120
  H        2.4401230    -1.3549580     0.8854960
  H        0.3318170     1.7528370    -0.0000240
  H        0.1592700    -1.3142900     0.0000290
  H       -3.2484020    -0.8568190    -0.0000760
units angstrom
no_reorient  #important for SAPT in psi4, default
symmetry c1  #important for SAPT in psi4, default
}

set PROPERTIES_ORIGIN ["COM"]
properties('MP2/aug-cc-pvtz', properties = ['dipole'])
--------------------------------------------------------------------------

    Molecular point group: c1
  Charge       = 0
  Multiplicity = 1
  Basis Set: AUG-CC-PVTZ
    Blend: AUG-CC-PVTZ
  Basis Set: (AUG-CC-PVTZ AUX)
    Blend: AUG-CC-PVTZ-JKFIT

    Orbital Energies [Eh]
    ---------------------

    Doubly Occupied:

       1A    -20.610757     2A    -20.540877     3A    -11.385863
       4A    -11.263499     5A    -11.248557     6A    -11.238689
       7A    -11.228057     8A     -1.452698     9A     -1.348251
      10A     -1.109634    11A     -1.024978    12A     -0.911506
      13A     -0.841679    14A     -0.742896    15A     -0.704725
      16A     -0.695808    17A     -0.629201    18A     -0.619573
      19A     -0.611763    20A     -0.606881    21A     -0.568175
      22A     -0.512302    23A     -0.512201    24A     -0.498272
      25A     -0.483326    26A     -0.450621    27A     -0.388458

  @DF-RHF Final Energy:  -343.85853334393755

   => Energetics <=

    Nuclear Repulsion Energy =            285.3166539058746025
    One-Electron Energy =               -1033.8918808942662508
    Two-Electron Energy =                 404.7166936444541534
    Total Energy =                       -343.8585333439375518
  Basis Set: (AUG-CC-PVTZ AUX)
    Blend: AUG-CC-PVTZ-RI
    Molecular point group: c1

    Geometry (in Angstrom), charge = 0, multiplicity = 1:

       Center              X                  Y                   Z               Mass
    ------------   -----------------  -----------------  -----------------  -----------------
         O           -2.193806541362    -1.156722507877    -0.000041594387    15.994914619570
         O           -1.994480541362     1.101175492123    -0.000072594387    15.994914619570
         C            2.351099458638     0.602170492123     0.000054405613    12.000000000000
         C            2.890823458638    -0.823333507877     0.000095405613    12.000000000000
         C            0.808743758638     0.730158392123     0.000008905613    12.000000000000
         C           -0.020825541362    -0.287694507877     0.000004405613    12.000000000000
         C           -1.469205541362    -0.001782507877    -0.000041594387    12.000000000000
         H            2.737944458638     1.147751492123     0.871545405613     1.007825032230
         H            2.737993458638     1.147719492123    -0.871435594387     1.007825032230
         H            3.983887458638    -0.817569507877     0.000125405613     1.007825032230
         H            2.557301458638    -1.371365507877    -0.885308594387     1.007825032230
         H            2.557251458638    -1.371333507877     0.885499405613     1.007825032230
         H            0.448945458638     1.736461492123    -0.000020594387     1.007825032230
         H            0.276398458638    -1.330665507877     0.000032405613     1.007825032230
         H           -3.131273541362    -0.873194507877    -0.000072594387     1.007825032230

  Basis Set: AUG-CC-PVTZ
    Blend: AUG-CC-PVTZ
  Basis Set: (AUG-CC-PVTZ AUX)
    Blend: AUG-CC-PVTZ-JKFIT
	 Reference Energy          =    -343.8585333439375518 [Eh]
	 Singles Energy            =      -0.0000000000000000 [Eh]
	 Same-Spin Energy          =      -0.3400356904867115 [Eh]
	 Opposite-Spin Energy      =      -1.0987356003181730 [Eh]
	 Correlation Energy        =      -1.4387712908048844 [Eh]
	 Total Energy              =    -345.2973046347424315 [Eh]

	 ================> DF-SCS-MP2 Energies <==================
	-----------------------------------------------------------
	 SCS Same-Spin Scale       =       0.3333333333333333 [-]
	 SCS Opposite-Spin Scale   =       1.2000000000000000 [-]
	 SCS Same-Spin Energy      =      -0.1133452301622371 [Eh]
	 SCS Opposite-Spin Energy  =      -1.3184827203818075 [Eh]
	 SCS Correlation Energy    =      -1.4318279505440445 [Eh]
	 SCS Total Energy          =    -345.2903612944816132 [Eh]
	-----------------------------------------------------------

  Dipole Moment: [D]
     X:     1.7224      Y:    -0.9591      Z:     0.0001     Total:     1.9715

*** Psi4 exiting successfully. Buy a developer a beer!
