                               Psi4 1.3.2 release

  ==> Input File <==

--------------------------------------------------------------------------
#psi4
#
memory 32 gb

molecule  {
0 1
  O        2.1793270    -1.1884030     0.0070830
  O        2.0147220     1.0703310     0.0037530
  C       -2.3333640     0.6373300    -0.0064140
  C       -2.8929490    -0.7786760    -0.0059160
  C       -0.6411731     0.7526218    -0.0026638
  C        0.0222220    -0.2866530     0.0001530
  C        1.4732850    -0.0238670     0.0030520
  H       -2.7101490     1.1874440    -0.8789970
  H       -2.7141290     1.1896330     0.8630350
  H       -3.9853730    -0.7577330    -0.0084480
  H       -2.5694230    -1.3301270     0.8805270
  H       -2.5653610    -1.3323610    -0.8894680
  H       -0.4156920     1.7426300    -0.0033930
  H       -0.2913660    -1.3244520     0.0007550
  H        3.1211320    -0.9203150     0.0096400
units angstrom
no_reorient  #important for SAPT in psi4, default
symmetry c1  #important for SAPT in psi4, default
}

set PROPERTIES_ORIGIN ["COM"]
properties('MP2/aug-cc-pvtz', properties = ['dipole'])
--------------------------------------------------------------------------

    Molecular point group: c1
  Charge       = 0
  Multiplicity = 1
  Basis Set: AUG-CC-PVTZ
    Blend: AUG-CC-PVTZ
  Basis Set: (AUG-CC-PVTZ AUX)
    Blend: AUG-CC-PVTZ-JKFIT

    Orbital Energies [Eh]
    ---------------------

    Doubly Occupied:

       1A    -20.611241     2A    -20.541511     3A    -11.384496
       4A    -11.251823     5A    -11.248127     6A    -11.231790
       7A    -11.225419     8A     -1.454580     9A     -1.350275
      10A     -1.119893    11A     -1.024301    12A     -0.901432
      13A     -0.838210    14A     -0.755692    15A     -0.704393
      16A     -0.701328    17A     -0.632277    18A     -0.627982
      19A     -0.614906    20A     -0.604393    21A     -0.564726
      22A     -0.516420    23A     -0.505598    24A     -0.486090
      25A     -0.465241    26A     -0.440794    27A     -0.411829

  @DF-RHF Final Energy:  -343.82166407641103

   => Energetics <=

    Nuclear Repulsion Energy =            286.2347480519279088
    One-Electron Energy =               -1035.6832908736073477
    Two-Electron Energy =                 405.6268787452684137
    Total Energy =                       -343.8216640764110252
  Basis Set: (AUG-CC-PVTZ AUX)
    Blend: AUG-CC-PVTZ-RI
    Molecular point group: c1

    Geometry (in Angstrom), charge = 0, multiplicity = 1:

       Center              X                  Y                   Z               Mass
    ------------   -----------------  -----------------  -----------------  -----------------
         O            2.155395297276    -1.190033596760     0.007030026643    15.994914619570
         O            1.990790297276     1.068700403240     0.003700026643    15.994914619570
         C           -2.357295702724     0.635699403240    -0.006466973357    12.000000000000
         C           -2.916880702724    -0.780306596760    -0.005968973357    12.000000000000
         C           -0.665104802724     0.750991203240    -0.002716773357    12.000000000000
         C           -0.001709702724    -0.288283596760     0.000100026643    12.000000000000
         C            1.449353297276    -0.025497596760     0.002999026643    12.000000000000
         H           -2.734080702724     1.185813403240    -0.879049973357     1.007825032230
         H           -2.738060702724     1.188002403240     0.862982026643     1.007825032230
         H           -4.009304702724    -0.759363596760    -0.008500973357     1.007825032230
         H           -2.593354702724    -1.331757596760     0.880474026643     1.007825032230
         H           -2.589292702724    -1.333991596760    -0.889520973357     1.007825032230
         H           -0.439623702724     1.740999403240    -0.003445973357     1.007825032230
         H           -0.315297702724    -1.326082596760     0.000702026643     1.007825032230
         H            3.097200297276    -0.921945596760     0.009587026643     1.007825032230

  Basis Set: AUG-CC-PVTZ
    Blend: AUG-CC-PVTZ
  Basis Set: (AUG-CC-PVTZ AUX)
    Blend: AUG-CC-PVTZ-JKFIT
	 Reference Energy          =    -343.8216640764110252 [Eh]
	 Singles Energy            =      -0.0000000000000000 [Eh]
	 Same-Spin Energy          =      -0.3397003310766877 [Eh]
	 Opposite-Spin Energy      =      -1.0984159726998430 [Eh]
	 Correlation Energy        =      -1.4381163037765308 [Eh]
	 Total Energy              =    -345.2597803801875784 [Eh]

	 ================> DF-SCS-MP2 Energies <==================
	-----------------------------------------------------------
	 SCS Same-Spin Scale       =       0.3333333333333333 [-]
	 SCS Opposite-Spin Scale   =       1.2000000000000000 [-]
	 SCS Same-Spin Energy      =      -0.1132334436922292 [Eh]
	 SCS Opposite-Spin Energy  =      -1.3180991672398117 [Eh]
	 SCS Correlation Energy    =      -1.4313326109320410 [Eh]
	 SCS Total Energy          =    -345.2529966873430567 [Eh]
	-----------------------------------------------------------

  Dipole Moment: [D]
     X:    -1.4871      Y:    -0.9738      Z:    -0.0025     Total:     1.7776

*** Psi4 exiting successfully. Buy a developer a beer!
