                               Psi4 1.3.2 release

  ==> Input File <==

--------------------------------------------------------------------------
#psi4
#
memory 32 gb

molecule  {
0 1
  O        2.1793270    -1.1884030     0.0070830
  O        2.0147220     1.0703310     0.0037530
  C       -2.3333640     0.6373300    -0.0064140
  C       -2.8929490    -0.7786760    -0.0059160
  C       -0.8932074     0.6924587    -0.0031663
  C        0.0222220    -0.2866530     0.0001530
  C        1.4732850    -0.0238670     0.0030520
  H       -2.7101490     1.1874440    -0.8789970
  H       -2.7141290     1.1896330     0.8630350
  H       -3.9853730    -0.7577330    -0.0084480
  H       -2.5694230    -1.3301270     0.8805270
  H       -2.5653610    -1.3323610    -0.8894680
  H       -0.4156920     1.7426300    -0.0033930
  H       -0.3452503    -1.3066179     0.0006100
  H        3.1211320    -0.9203150     0.0096400
units angstrom
no_reorient  #important for SAPT in psi4, default
symmetry c1  #important for SAPT in psi4, default
}

set PROPERTIES_ORIGIN ["COM"]
properties('MP2/aug-cc-pvtz', properties = ['dipole'])
--------------------------------------------------------------------------

    Molecular point group: c1
  Charge       = 0
  Multiplicity = 1
  Basis Set: AUG-CC-PVTZ
    Blend: AUG-CC-PVTZ
  Basis Set: (AUG-CC-PVTZ AUX)
    Blend: AUG-CC-PVTZ-JKFIT

    Orbital Energies [Eh]
    ---------------------

    Doubly Occupied:

       1A    -20.611170     2A    -20.541669     3A    -11.388580
       4A    -11.269277     5A    -11.245863     6A    -11.239624
       7A    -11.228832     8A     -1.453716     9A     -1.348923
      10A     -1.119094    11A     -1.025061    12A     -0.919014
      13A     -0.846477    14A     -0.729668    15A     -0.709192
      16A     -0.692176    17A     -0.636013    18A     -0.624193
      19A     -0.621853    20A     -0.595096    21A     -0.570585
      22A     -0.521414    23A     -0.517999    24A     -0.488300
      25A     -0.483046    26A     -0.452960    27A     -0.379125

  @DF-RHF Final Energy:  -343.85259045782448

   => Energetics <=

    Nuclear Repulsion Energy =            285.8142950291508555
    One-Electron Energy =               -1034.8159297792906273
    Two-Electron Energy =                 405.1490442923153523
    Total Energy =                       -343.8525904578244763
  Basis Set: (AUG-CC-PVTZ AUX)
    Blend: AUG-CC-PVTZ-RI
    Molecular point group: c1

    Geometry (in Angstrom), charge = 0, multiplicity = 1:

       Center              X                  Y                   Z               Mass
    ------------   -----------------  -----------------  -----------------  -----------------
         O            2.186166339637    -1.182997450301     0.007091755625    15.994914619570
         O            2.021561339637     1.075736549699     0.003761755625    15.994914619570
         C           -2.326524660363     0.642735549699    -0.006405244375    12.000000000000
         C           -2.886109660363    -0.773270450301    -0.005907244375    12.000000000000
         C           -0.886368060363     0.697864249699    -0.003157544375    12.000000000000
         C            0.029061339637    -0.281247450301     0.000161755625    12.000000000000
         C            1.480124339637    -0.018461450301     0.003060755625    12.000000000000
         H           -2.703309660363     1.192849549699    -0.878988244375     1.007825032230
         H           -2.707289660363     1.195038549699     0.863043755625     1.007825032230
         H           -3.978533660363    -0.752327450301    -0.008439244375     1.007825032230
         H           -2.562583660363    -1.324721450301     0.880535755625     1.007825032230
         H           -2.558521660363    -1.326955450301    -0.889459244375     1.007825032230
         H           -0.408852660363     1.748035549699    -0.003384244375     1.007825032230
         H           -0.338410960363    -1.301212350301     0.000618755625     1.007825032230
         H            3.127971339637    -0.914909450301     0.009648755625     1.007825032230

  Basis Set: AUG-CC-PVTZ
    Blend: AUG-CC-PVTZ
  Basis Set: (AUG-CC-PVTZ AUX)
    Blend: AUG-CC-PVTZ-JKFIT
	 Reference Energy          =    -343.8525904578244763 [Eh]
	 Singles Energy            =      -0.0000000000000000 [Eh]
	 Same-Spin Energy          =      -0.3415821230269926 [Eh]
	 Opposite-Spin Energy      =      -1.1006701184226377 [Eh]
	 Correlation Energy        =      -1.4422522414496304 [Eh]
	 Total Energy              =    -345.2948426992741133 [Eh]

	 ================> DF-SCS-MP2 Energies <==================
	-----------------------------------------------------------
	 SCS Same-Spin Scale       =       0.3333333333333333 [-]
	 SCS Opposite-Spin Scale   =       1.2000000000000000 [-]
	 SCS Same-Spin Energy      =      -0.1138607076756642 [Eh]
	 SCS Opposite-Spin Energy  =      -1.3208041421071652 [Eh]
	 SCS Correlation Energy    =      -1.4346648497828294 [Eh]
	 SCS Total Energy          =    -345.2872553076073245 [Eh]
	-----------------------------------------------------------

  Dipole Moment: [D]
     X:    -1.8931      Y:    -0.9180      Z:    -0.0035     Total:     2.1040

*** Psi4 exiting successfully. Buy a developer a beer!
