                               Psi4 1.3.2 release

  ==> Input File <==

--------------------------------------------------------------------------
#psi4
#
memory 32 gb

molecule  {
0 1
  O        2.1793270    -1.1884030     0.0070830
  O        2.0147220     1.0703310     0.0037530
  C       -2.3333640     0.6373300    -0.0064140
  C       -2.8929490    -0.7786760    -0.0059160
  C       -0.8407100     0.7390270    -0.0031060
  C        0.0222220    -0.2866530     0.0001530
  C        1.4755229    -0.0365398     0.0030728
  H       -2.7101490     1.1874440    -0.8789970
  H       -2.7141290     1.1896330     0.8630350
  H       -3.9853730    -0.7577330    -0.0084480
  H       -2.5694230    -1.3301270     0.8805270
  H       -2.5653610    -1.3323610    -0.8894680
  H       -0.4156920     1.7426300    -0.0033930
  H       -0.2822977    -1.3271490     0.0007786
  H        3.1211320    -0.9203150     0.0096400
units angstrom
no_reorient  #important for SAPT in psi4, default
symmetry c1  #important for SAPT in psi4, default
}

set PROPERTIES_ORIGIN ["COM"]
properties('MP2/aug-cc-pvtz', properties = ['dipole'])
--------------------------------------------------------------------------

    Molecular point group: c1
  Charge       = 0
  Multiplicity = 1
  Basis Set: AUG-CC-PVTZ
    Blend: AUG-CC-PVTZ
  Basis Set: (AUG-CC-PVTZ AUX)
    Blend: AUG-CC-PVTZ-JKFIT

    Orbital Energies [Eh]
    ---------------------

    Doubly Occupied:

       1A    -20.613916     2A    -20.537480     3A    -11.385874
       4A    -11.267892     5A    -11.247299     6A    -11.240320
       7A    -11.228422     8A     -1.456284     9A     -1.343532
      10A     -1.111007    11A     -1.024024    12A     -0.917248
      13A     -0.844664    14A     -0.740481    15A     -0.705528
      16A     -0.695079    17A     -0.632340    18A     -0.622270
      19A     -0.614932    20A     -0.601799    21A     -0.566976
      22A     -0.514853    23A     -0.512311    24A     -0.504483
      25A     -0.480008    26A     -0.449139    27A     -0.380003

  @DF-RHF Final Energy:  -343.85952341606685

   => Energetics <=

    Nuclear Repulsion Energy =            285.4192012261389095
    One-Electron Energy =               -1034.0811202168911223
    Two-Electron Energy =                 404.8023955746853062
    Total Energy =                       -343.8595234160668497
  Basis Set: (AUG-CC-PVTZ AUX)
    Blend: AUG-CC-PVTZ-RI
    Molecular point group: c1

    Geometry (in Angstrom), charge = 0, multiplicity = 1:

       Center              X                  Y                   Z               Mass
    ------------   -----------------  -----------------  -----------------  -----------------
         O            2.178967425930    -1.186855969733     0.007080330423    15.994914619570
         O            2.014362425930     1.071878030267     0.003750330423    15.994914619570
         C           -2.333723574070     0.638877030267    -0.006416669577    12.000000000000
         C           -2.893308574070    -0.777128969733    -0.005918669577    12.000000000000
         C           -0.841069574070     0.740574030267    -0.003108669577    12.000000000000
         C            0.021862425930    -0.285105969733     0.000150330423    12.000000000000
         C            1.475163325930    -0.034992769733     0.003070130423    12.000000000000
         H           -2.710508574070     1.188991030267    -0.878999669577     1.007825032230
         H           -2.714488574070     1.191180030267     0.863032330423     1.007825032230
         H           -3.985732574070    -0.756185969733    -0.008450669577     1.007825032230
         H           -2.569782574070    -1.328579969733     0.880524330423     1.007825032230
         H           -2.565720574070    -1.330813969733    -0.889470669577     1.007825032230
         H           -0.416051574070     1.744177030267    -0.003395669577     1.007825032230
         H           -0.282657274070    -1.325601969733     0.000775930423     1.007825032230
         H            3.120772425930    -0.918767969733     0.009637330423     1.007825032230

  Basis Set: AUG-CC-PVTZ
    Blend: AUG-CC-PVTZ
  Basis Set: (AUG-CC-PVTZ AUX)
    Blend: AUG-CC-PVTZ-JKFIT
	 Reference Energy          =    -343.8595234160668497 [Eh]
	 Singles Energy            =      -0.0000000000000000 [Eh]
	 Same-Spin Energy          =      -0.3407375779771529 [Eh]
	 Opposite-Spin Energy      =      -1.0995451714504032 [Eh]
	 Correlation Energy        =      -1.4402827494275561 [Eh]
	 Total Energy              =    -345.2998061654944308 [Eh]

	 ================> DF-SCS-MP2 Energies <==================
	-----------------------------------------------------------
	 SCS Same-Spin Scale       =       0.3333333333333333 [-]
	 SCS Opposite-Spin Scale   =       1.2000000000000000 [-]
	 SCS Same-Spin Energy      =      -0.1135791926590509 [Eh]
	 SCS Opposite-Spin Energy  =      -1.3194542057404839 [Eh]
	 SCS Correlation Energy    =      -1.4330333983995349 [Eh]
	 SCS Total Energy          =    -345.2925568144663657 [Eh]
	-----------------------------------------------------------

  Dipole Moment: [D]
     X:    -1.7854      Y:    -1.0254      Z:    -0.0031     Total:     2.0589

*** Psi4 exiting successfully. Buy a developer a beer!
