                               Psi4 1.3.2 release

  ==> Input File <==

--------------------------------------------------------------------------
#psi4
#
memory 32 gb

molecule  {
0 1
  O        2.1793270    -1.1884030     0.0070830
  O        2.0147220     1.0703310     0.0037530
  C       -2.3333640     0.6373300    -0.0064140
  C       -2.8929490    -0.7786760    -0.0059160
  C       -0.8407100     0.7390270    -0.0031060
  C        0.0222220    -0.2866530     0.0001530
  C        1.4732850    -0.0238670     0.0030520
  H       -2.7101490     1.1874440    -0.8789970
  H       -2.7141290     1.1896330     0.8630350
  H       -3.9853730    -0.7577330    -0.0084480
  H       -2.5694230    -1.3301270     0.8805270
  H       -2.5653610    -1.3323610    -0.8894680
  H       -0.4156920     1.7426300    -0.0033930
  H       -0.2913660    -1.3244520     0.0007550
  H        3.2173110    -0.8929373     0.0099011
units angstrom
no_reorient  #important for SAPT in psi4, default
symmetry c1  #important for SAPT in psi4, default
}

set PROPERTIES_ORIGIN ["COM"]
properties('MP2/aug-cc-pvtz', properties = ['dipole'])
--------------------------------------------------------------------------

    Molecular point group: c1
  Charge       = 0
  Multiplicity = 1
  Basis Set: AUG-CC-PVTZ
    Blend: AUG-CC-PVTZ
  Basis Set: (AUG-CC-PVTZ AUX)
    Blend: AUG-CC-PVTZ-JKFIT

    Orbital Energies [Eh]
    ---------------------

    Doubly Occupied:

       1A    -20.615810     2A    -20.538321     3A    -11.383789
       4A    -11.267071     5A    -11.246887     6A    -11.240061
       7A    -11.228159     8A     -1.440675     9A     -1.339248
      10A     -1.110516    11A     -1.022447    12A     -0.912348
      13A     -0.832690    14A     -0.736102    15A     -0.700605
      16A     -0.684086    17A     -0.630975    18A     -0.617771
      19A     -0.613763    20A     -0.596353    21A     -0.564981
      22A     -0.514480    23A     -0.511438    24A     -0.504289
      25A     -0.479566    26A     -0.448954    27A     -0.379979

  @DF-RHF Final Energy:  -343.84701811608500

   => Energetics <=

    Nuclear Repulsion Energy =            284.8979380085568209
    One-Electron Energy =               -1033.1671881573820428
    Two-Electron Energy =                 404.4222320327402258
    Total Energy =                       -343.8470181160849961
  Basis Set: (AUG-CC-PVTZ AUX)
    Blend: AUG-CC-PVTZ-RI
    Molecular point group: c1

    Geometry (in Angstrom), charge = 0, multiplicity = 1:

       Center              X                  Y                   Z               Mass
    ------------   -----------------  -----------------  -----------------  -----------------
         O            2.178358369815    -1.188678850361     0.007080432784    15.994914619570
         O            2.013753369815     1.070055149639     0.003750432784    15.994914619570
         C           -2.334332630185     0.637054149639    -0.006416567216    12.000000000000
         C           -2.893917630185    -0.778951850361    -0.005918567216    12.000000000000
         C           -0.841678630185     0.738751149639    -0.003108567216    12.000000000000
         C            0.021253369815    -0.286928850361     0.000150432784    12.000000000000
         C            1.472316369815    -0.024142850361     0.003049432784    12.000000000000
         H           -2.711117630185     1.187168149639    -0.878999567216     1.007825032230
         H           -2.715097630185     1.189357149639     0.863032432784     1.007825032230
         H           -3.986341630185    -0.758008850361    -0.008450567216     1.007825032230
         H           -2.570391630185    -1.330402850361     0.880524432784     1.007825032230
         H           -2.566329630185    -1.332636850361    -0.889470567216     1.007825032230
         H           -0.416660630185     1.742354149639    -0.003395567216     1.007825032230
         H           -0.292334630185    -1.324727850361     0.000752432784     1.007825032230
         H            3.216342369815    -0.893213150361     0.009898532784     1.007825032230

  Basis Set: AUG-CC-PVTZ
    Blend: AUG-CC-PVTZ
  Basis Set: (AUG-CC-PVTZ AUX)
    Blend: AUG-CC-PVTZ-JKFIT
	 Reference Energy          =    -343.8470181160849961 [Eh]
	 Singles Energy            =      -0.0000000000000000 [Eh]
	 Same-Spin Energy          =      -0.3419173064177988 [Eh]
	 Opposite-Spin Energy      =      -1.1025879033341037 [Eh]
	 Correlation Energy        =      -1.4445052097519024 [Eh]
	 Total Energy              =    -345.2915233258369199 [Eh]

	 ================> DF-SCS-MP2 Energies <==================
	-----------------------------------------------------------
	 SCS Same-Spin Scale       =       0.3333333333333333 [-]
	 SCS Opposite-Spin Scale   =       1.2000000000000000 [-]
	 SCS Same-Spin Energy      =      -0.1139724354725996 [Eh]
	 SCS Opposite-Spin Energy  =      -1.3231054840009244 [Eh]
	 SCS Correlation Energy    =      -1.4370779194735239 [Eh]
	 SCS Total Energy          =    -345.2840960355585480 [Eh]
	-----------------------------------------------------------

  Dipole Moment: [D]
     X:    -1.6896      Y:    -0.9227      Z:    -0.0029     Total:     1.9251

*** Psi4 exiting successfully. Buy a developer a beer!
