                               Psi4 1.3.2 release

  ==> Input File <==

--------------------------------------------------------------------------
#psi4
#
memory 32 gb

molecule  {
0 1
  O        2.1793270    -1.1884030     0.0070830
  O        2.0147220     1.0703310     0.0037530
  C       -2.3333640     0.6373300    -0.0064140
  C       -2.8929490    -0.7786760    -0.0059160
  C       -0.8407100     0.7390270    -0.0031060
  C        0.0222220    -0.2866530     0.0001530
  C        1.4709366    -0.0112142     0.0030309
  H       -2.7101490     1.1874440    -0.8789970
  H       -2.7141290     1.1896330     0.8630350
  H       -3.9853730    -0.7577330    -0.0084480
  H       -2.5694230    -1.3301270     0.8805270
  H       -2.5653610    -1.3323610    -0.8894680
  H       -0.4156920     1.7426300    -0.0033930
  H       -0.3004104    -1.3216760     0.0007314
  H        3.1211320    -0.9203150     0.0096400
units angstrom
no_reorient  #important for SAPT in psi4, default
symmetry c1  #important for SAPT in psi4, default
}

set PROPERTIES_ORIGIN ["COM"]
properties('MP2/aug-cc-pvtz', properties = ['dipole'])
--------------------------------------------------------------------------

    Molecular point group: c1
  Charge       = 0
  Multiplicity = 1
  Basis Set: AUG-CC-PVTZ
    Blend: AUG-CC-PVTZ
  Basis Set: (AUG-CC-PVTZ AUX)
    Blend: AUG-CC-PVTZ-JKFIT

    Orbital Energies [Eh]
    ---------------------

    Doubly Occupied:

       1A    -20.606906     2A    -20.542616     3A    -11.385228
       4A    -11.267612     5A    -11.247408     6A    -11.240522
       7A    -11.228699     8A     -1.450710     9A     -1.351563
      10A     -1.111770    11A     -1.024343    12A     -0.915517
      13A     -0.840357    14A     -0.737912    15A     -0.705337
      16A     -0.693656    17A     -0.631747    18A     -0.619214
      19A     -0.616873    20A     -0.599782    21A     -0.571559
      22A     -0.515064    23A     -0.512456    24A     -0.505292
      25A     -0.484900    26A     -0.451999    27A     -0.381197

  @DF-RHF Final Energy:  -343.86041027769039

   => Energetics <=

    Nuclear Repulsion Energy =            285.4870390593552543
    One-Electron Energy =               -1034.2144180334084922
    Two-Electron Energy =                 404.8669686963627896
    Total Energy =                       -343.8604102776903915
  Basis Set: (AUG-CC-PVTZ AUX)
    Blend: AUG-CC-PVTZ-RI
    Molecular point group: c1

    Geometry (in Angstrom), charge = 0, multiplicity = 1:

       Center              X                  Y                   Z               Mass
    ------------   -----------------  -----------------  -----------------  -----------------
         O            2.179699942200    -1.189948578558     0.007085831232    15.994914619570
         O            2.015094942200     1.068785421442     0.003755831232    15.994914619570
         C           -2.332991057800     0.635784421442    -0.006411168768    12.000000000000
         C           -2.892576057800    -0.780221578558    -0.005913168768    12.000000000000
         C           -0.840337057800     0.737481421442    -0.003103168768    12.000000000000
         C            0.022594942200    -0.288198578558     0.000155831232    12.000000000000
         C            1.471309542200    -0.012759778558     0.003033731232    12.000000000000
         H           -2.709776057800     1.185898421442    -0.878994168768     1.007825032230
         H           -2.713756057800     1.188087421442     0.863037831232     1.007825032230
         H           -3.985000057800    -0.759278578558    -0.008445168768     1.007825032230
         H           -2.569050057800    -1.331672578558     0.880529831232     1.007825032230
         H           -2.564988057800    -1.333906578558    -0.889465168768     1.007825032230
         H           -0.415319057800     1.741084421442    -0.003390168768     1.007825032230
         H           -0.300037457800    -1.323221578558     0.000734231232     1.007825032230
         H            3.121504942200    -0.921860578558     0.009642831232     1.007825032230

  Basis Set: AUG-CC-PVTZ
    Blend: AUG-CC-PVTZ
  Basis Set: (AUG-CC-PVTZ AUX)
    Blend: AUG-CC-PVTZ-JKFIT
	 Reference Energy          =    -343.8604102776903915 [Eh]
	 Singles Energy            =      -0.0000000000000000 [Eh]
	 Same-Spin Energy          =      -0.3405489653019205 [Eh]
	 Opposite-Spin Energy      =      -1.0992769893984975 [Eh]
	 Correlation Energy        =      -1.4398259547004180 [Eh]
	 Total Energy              =    -345.3002362323908301 [Eh]

	 ================> DF-SCS-MP2 Energies <==================
	-----------------------------------------------------------
	 SCS Same-Spin Scale       =       0.3333333333333333 [-]
	 SCS Opposite-Spin Scale   =       1.2000000000000000 [-]
	 SCS Same-Spin Energy      =      -0.1135163217673068 [Eh]
	 SCS Opposite-Spin Energy  =      -1.3191323872781970 [Eh]
	 SCS Correlation Energy    =      -1.4326487090455038 [Eh]
	 SCS Total Energy          =    -345.2930589867359004 [Eh]
	-----------------------------------------------------------

  Dipole Moment: [D]
     X:    -1.8542      Y:    -0.8197      Z:    -0.0036     Total:     2.0274

*** Psi4 exiting successfully. Buy a developer a beer!
