                               Psi4 1.3.2 release

  ==> Input File <==

--------------------------------------------------------------------------
#psi4
#
memory 32 gb

molecule  {
0 1
  O        2.1793270    -1.1884030     0.0070830
  O        1.9762053     1.0885603     0.0036664
  C       -2.3333640     0.6373300    -0.0064140
  C       -2.8929490    -0.7786760    -0.0059160
  C       -0.8407100     0.7390270    -0.0031060
  C        0.0139349    -0.2358515     0.0001165
  C        1.4732850    -0.0238670     0.0030520
  H       -2.7101490     1.1874440    -0.8789970
  H       -2.7141290     1.1896330     0.8630350
  H       -3.9853730    -0.7577330    -0.0084480
  H       -2.5694230    -1.3301270     0.8805270
  H       -2.5653610    -1.3323610    -0.8894680
  H       -0.4156920     1.7426300    -0.0033930
  H       -0.2913660    -1.3244520     0.0007550
  H        3.1211320    -0.9203150     0.0096400
units angstrom
no_reorient  #important for SAPT in psi4, default
symmetry c1  #important for SAPT in psi4, default
}

set PROPERTIES_ORIGIN ["COM"]
properties('MP2/aug-cc-pvtz', properties = ['dipole'])
--------------------------------------------------------------------------

    Molecular point group: c1
  Charge       = 0
  Multiplicity = 1
  Basis Set: AUG-CC-PVTZ
    Blend: AUG-CC-PVTZ
  Basis Set: (AUG-CC-PVTZ AUX)
    Blend: AUG-CC-PVTZ-JKFIT

    Orbital Energies [Eh]
    ---------------------

    Doubly Occupied:

       1A    -20.616936     2A    -20.541590     3A    -11.387167
       4A    -11.256570     5A    -11.245325     6A    -11.237077
       7A    -11.226702     8A     -1.455105     9A     -1.352913
      10A     -1.114924    11A     -1.024487    12A     -0.914454
      13A     -0.846589    14A     -0.733057    15A     -0.707603
      16A     -0.696316    17A     -0.631961    18A     -0.621936
      19A     -0.617894    20A     -0.601500    21A     -0.562922
      22A     -0.513704    23A     -0.512040    24A     -0.497827
      25A     -0.486248    26A     -0.449261    27A     -0.387608

  @DF-RHF Final Energy:  -343.85653349782217

   => Energetics <=

    Nuclear Repulsion Energy =            286.0782323566807008
    One-Electron Energy =               -1035.3900965372661176
    Two-Electron Energy =                 405.4553306827632468
    Total Energy =                       -343.8565334978221699
  Basis Set: (AUG-CC-PVTZ AUX)
    Blend: AUG-CC-PVTZ-RI
    Molecular point group: c1

    Geometry (in Angstrom), charge = 0, multiplicity = 1:

       Center              X                  Y                   Z               Mass
    ------------   -----------------  -----------------  -----------------  -----------------
         O            2.186478593740    -1.197410294166     0.007101284879    15.994914619570
         O            1.983356893740     1.079553005834     0.003684684879    15.994914619570
         C           -2.326212406260     0.628322705834    -0.006395715121    12.000000000000
         C           -2.885797406260    -0.787683294166    -0.005897715121    12.000000000000
         C           -0.833558406260     0.730019705834    -0.003087715121    12.000000000000
         C            0.021086493740    -0.244858794166     0.000134784879    12.000000000000
         C            1.480436593740    -0.032874294166     0.003070284879    12.000000000000
         H           -2.702997406260     1.178436705834    -0.878978715121     1.007825032230
         H           -2.706977406260     1.180625705834     0.863053284879     1.007825032230
         H           -3.978221406260    -0.766740294166    -0.008429715121     1.007825032230
         H           -2.562271406260    -1.339134294166     0.880545284879     1.007825032230
         H           -2.558209406260    -1.341368294166    -0.889449715121     1.007825032230
         H           -0.408540406260     1.733622705834    -0.003374715121     1.007825032230
         H           -0.284214406260    -1.333459294166     0.000773284879     1.007825032230
         H            3.128283593740    -0.929322294166     0.009658284879     1.007825032230

  Basis Set: AUG-CC-PVTZ
    Blend: AUG-CC-PVTZ
  Basis Set: (AUG-CC-PVTZ AUX)
    Blend: AUG-CC-PVTZ-JKFIT
	 Reference Energy          =    -343.8565334978221699 [Eh]
	 Singles Energy            =      -0.0000000000000000 [Eh]
	 Same-Spin Energy          =      -0.3405012856646269 [Eh]
	 Opposite-Spin Energy      =      -1.0990707470434979 [Eh]
	 Correlation Energy        =      -1.4395720327081247 [Eh]
	 Total Energy              =    -345.2961055305302693 [Eh]

	 ================> DF-SCS-MP2 Energies <==================
	-----------------------------------------------------------
	 SCS Same-Spin Scale       =       0.3333333333333333 [-]
	 SCS Opposite-Spin Scale   =       1.2000000000000000 [-]
	 SCS Same-Spin Energy      =      -0.1135004285548756 [Eh]
	 SCS Opposite-Spin Energy  =      -1.3188848964521975 [Eh]
	 SCS Correlation Energy    =      -1.4323853250070733 [Eh]
	 SCS Total Energy          =    -345.2889188228292596 [Eh]
	-----------------------------------------------------------

  Dipole Moment: [D]
     X:    -1.5825      Y:    -0.9659      Z:    -0.0028     Total:     1.8539

*** Psi4 exiting successfully. Buy a developer a beer!
