                               Psi4 1.3.2 release

  ==> Input File <==

--------------------------------------------------------------------------
#psi4
#
memory 32 gb

molecule  {
0 1
  O        2.1793270    -1.1884030     0.0070830
  O        2.0147220     1.0703310     0.0037530
  C       -2.3333640     0.6373300    -0.0064140
  C       -2.8929490    -0.7786760    -0.0059160
  C       -0.8407100     0.7390270    -0.0031060
  C        0.0222220    -0.2866530     0.0001530
  C        1.4330734    -0.0492172     0.0029644
  H       -2.7101490     1.1874440    -0.8789970
  H       -2.7141290     1.1896330     0.8630350
  H       -3.9853730    -0.7577330    -0.0084480
  H       -2.5694230    -1.3301270     0.8805270
  H       -2.5653610    -1.3323610    -0.8894680
  H       -0.4156920     1.7426300    -0.0033930
  H       -0.2913660    -1.3244520     0.0007550
  H        3.1299142    -0.9533469     0.0097189
units angstrom
no_reorient  #important for SAPT in psi4, default
symmetry c1  #important for SAPT in psi4, default
}

set PROPERTIES_ORIGIN ["COM"]
properties('MP2/aug-cc-pvtz', properties = ['dipole'])
--------------------------------------------------------------------------

    Molecular point group: c1
  Charge       = 0
  Multiplicity = 1
  Basis Set: AUG-CC-PVTZ
    Blend: AUG-CC-PVTZ
  Basis Set: (AUG-CC-PVTZ AUX)
    Blend: AUG-CC-PVTZ-JKFIT

    Orbital Energies [Eh]
    ---------------------

    Doubly Occupied:

       1A    -20.608671     2A    -20.531000     3A    -11.386615
       4A    -11.275062     5A    -11.250973     6A    -11.240623
       7A    -11.231106     8A     -1.442738     9A     -1.321967
      10A     -1.117776    11A     -1.032609    12A     -0.923898
      13A     -0.847919    14A     -0.742963    15A     -0.711016
      16A     -0.684557    17A     -0.634006    18A     -0.614971
      19A     -0.610863    20A     -0.604057    21A     -0.562721
      22A     -0.517818    23A     -0.515941    24A     -0.507931
      25A     -0.470974    26A     -0.444542    27A     -0.382358

  @DF-RHF Final Energy:  -343.85280488548102

   => Energetics <=

    Nuclear Repulsion Energy =            285.3478610362719223
    One-Electron Energy =               -1033.9699802623192681
    Two-Electron Energy =                 404.7693143405662681
    Total Energy =                       -343.8528048854810208
  Basis Set: (AUG-CC-PVTZ AUX)
    Blend: AUG-CC-PVTZ-RI
    Molecular point group: c1

    Geometry (in Angstrom), charge = 0, multiplicity = 1:

       Center              X                  Y                   Z               Mass
    ------------   -----------------  -----------------  -----------------  -----------------
         O            2.184061578479    -1.185029916408     0.007092774571    15.994914619570
         O            2.019456578479     1.073704083592     0.003762774571    15.994914619570
         C           -2.328629421521     0.640703083592    -0.006404225429    12.000000000000
         C           -2.888214421521    -0.775302916408    -0.005906225429    12.000000000000
         C           -0.835975421521     0.742400083592    -0.003096225429    12.000000000000
         C            0.026956578479    -0.283279916408     0.000162774571    12.000000000000
         C            1.437807978479    -0.045844116408     0.002974174571    12.000000000000
         H           -2.705414421521     1.190817083592    -0.878987225429     1.007825032230
         H           -2.709394421521     1.193006083592     0.863044774571     1.007825032230
         H           -3.980638421521    -0.754359916408    -0.008438225429     1.007825032230
         H           -2.564688421521    -1.326753916408     0.880536774571     1.007825032230
         H           -2.560626421521    -1.328987916408    -0.889458225429     1.007825032230
         H           -0.410957421521     1.746003083592    -0.003383225429     1.007825032230
         H           -0.286631421521    -1.321078916408     0.000764774571     1.007825032230
         H            3.134648778479    -0.949973816408     0.009728674571     1.007825032230

  Basis Set: AUG-CC-PVTZ
    Blend: AUG-CC-PVTZ
  Basis Set: (AUG-CC-PVTZ AUX)
    Blend: AUG-CC-PVTZ-JKFIT
	 Reference Energy          =    -343.8528048854810208 [Eh]
	 Singles Energy            =      -0.0000000000000000 [Eh]
	 Same-Spin Energy          =      -0.3416103763551940 [Eh]
	 Opposite-Spin Energy      =      -1.1010744085324595 [Eh]
	 Correlation Energy        =      -1.4426847848876536 [Eh]
	 Total Energy              =    -345.2954896703686813 [Eh]

	 ================> DF-SCS-MP2 Energies <==================
	-----------------------------------------------------------
	 SCS Same-Spin Scale       =       0.3333333333333333 [-]
	 SCS Opposite-Spin Scale   =       1.2000000000000000 [-]
	 SCS Same-Spin Energy      =      -0.1138701254517313 [Eh]
	 SCS Opposite-Spin Energy  =      -1.3212892902389515 [Eh]
	 SCS Correlation Energy    =      -1.4351594156906828 [Eh]
	 SCS Total Energy          =    -345.2879643011717121 [Eh]
	-----------------------------------------------------------

  Dipole Moment: [D]
     X:    -2.1251      Y:    -1.0846      Z:    -0.0038     Total:     2.3859

*** Psi4 exiting successfully. Buy a developer a beer!
