                               Psi4 1.3.2 release

  ==> Input File <==

--------------------------------------------------------------------------
#psi4
#
memory 32 gb

molecule  {
0 1
  O        2.1793270    -1.1884030     0.0070830
  O        2.0147220     1.0703310     0.0037530
  C       -2.3333640     0.6373300    -0.0064140
  C       -2.8929490    -0.7786760    -0.0059160
  C       -0.8403026     0.7318547     0.0077959
  C        0.0222220    -0.2866530     0.0001530
  C        1.4732850    -0.0238670     0.0030520
  H       -2.7191191     1.1851725    -0.8765031
  H       -2.7141290     1.1896330     0.8630350
  H       -3.9853730    -0.7577330    -0.0084480
  H       -2.5694230    -1.3301270     0.8805270
  H       -2.5653610    -1.3323610    -0.8894680
  H       -0.4156920     1.7426300    -0.0033930
  H       -0.2913660    -1.3244520     0.0007550
  H        3.1211320    -0.9203150     0.0096400
units angstrom
no_reorient  #important for SAPT in psi4, default
symmetry c1  #important for SAPT in psi4, default
}

set PROPERTIES_ORIGIN ["COM"]
properties('MP2/aug-cc-pvtz', properties = ['dipole'])
--------------------------------------------------------------------------

    Molecular point group: c1
  Charge       = 0
  Multiplicity = 1
  Basis Set: AUG-CC-PVTZ
    Blend: AUG-CC-PVTZ
  Basis Set: (AUG-CC-PVTZ AUX)
    Blend: AUG-CC-PVTZ-JKFIT

    Orbital Energies [Eh]
    ---------------------

    Doubly Occupied:

       1A    -20.610687     2A    -20.540387     3A    -11.385870
       4A    -11.267203     5A    -11.247194     6A    -11.239929
       7A    -11.228249     8A     -1.453213     9A     -1.348269
      10A     -1.111986    11A     -1.024748    12A     -0.915767
      13A     -0.843051    14A     -0.738116    15A     -0.706087
      16A     -0.694212    17A     -0.631792    18A     -0.620781
      19A     -0.616422    20A     -0.600875    21A     -0.569399
      22A     -0.514631    23A     -0.512942    24A     -0.502824
      25A     -0.482795    26A     -0.450973    27A     -0.381992

  @DF-RHF Final Energy:  -343.86019665174570

   => Energetics <=

    Nuclear Repulsion Energy =            285.5221375137623454
    One-Electron Energy =               -1034.2838819661587877
    Two-Electron Energy =                 404.9015478006507465
    Total Energy =                       -343.8601966517456958
  Basis Set: (AUG-CC-PVTZ AUX)
    Blend: AUG-CC-PVTZ-RI
    Molecular point group: c1

    Geometry (in Angstrom), charge = 0, multiplicity = 1:

       Center              X                  Y                   Z               Mass
    ------------   -----------------  -----------------  -----------------  -----------------
         O            2.179368671070    -1.187519969897     0.005750399397    15.994914619570
         O            2.014763671070     1.071214030103     0.002420399397    15.994914619570
         C           -2.333322328930     0.638213030103    -0.007746600603    12.000000000000
         C           -2.892907328930    -0.777792969897    -0.007248600603    12.000000000000
         C           -0.840260928930     0.732737730103     0.006463299397    12.000000000000
         C            0.022263671070    -0.285769969897    -0.001179600603    12.000000000000
         C            1.473326671070    -0.022983969897     0.001719399397    12.000000000000
         H           -2.719077428930     1.186055530103    -0.877835700603     1.007825032230
         H           -2.714087328930     1.190516030103     0.861702399397     1.007825032230
         H           -3.985331328930    -0.756849969897    -0.009780600603     1.007825032230
         H           -2.569381328930    -1.329243969897     0.879194399397     1.007825032230
         H           -2.565319328930    -1.331477969897    -0.890800600603     1.007825032230
         H           -0.415650328930     1.743513030103    -0.004725600603     1.007825032230
         H           -0.291324328930    -1.323568969897    -0.000577600603     1.007825032230
         H            3.121173671070    -0.919431969897     0.008307399397     1.007825032230

  Basis Set: AUG-CC-PVTZ
    Blend: AUG-CC-PVTZ
  Basis Set: (AUG-CC-PVTZ AUX)
    Blend: AUG-CC-PVTZ-JKFIT
	 Reference Energy          =    -343.8601966517456958 [Eh]
	 Singles Energy            =      -0.0000000000000000 [Eh]
	 Same-Spin Energy          =      -0.3406156500051123 [Eh]
	 Opposite-Spin Energy      =      -1.0993481970848140 [Eh]
	 Correlation Energy        =      -1.4399638470899263 [Eh]
	 Total Energy              =    -345.3001604988356235 [Eh]

	 ================> DF-SCS-MP2 Energies <==================
	-----------------------------------------------------------
	 SCS Same-Spin Scale       =       0.3333333333333333 [-]
	 SCS Opposite-Spin Scale   =       1.2000000000000000 [-]
	 SCS Same-Spin Energy      =      -0.1135385500017041 [Eh]
	 SCS Opposite-Spin Energy  =      -1.3192178365017768 [Eh]
	 SCS Correlation Energy    =      -1.4327563865034809 [Eh]
	 SCS Total Energy          =    -345.2929530382491521 [Eh]
	-----------------------------------------------------------

  Dipole Moment: [D]
     X:    -1.8096      Y:    -0.9253      Z:    -0.0102     Total:     2.0325

*** Psi4 exiting successfully. Buy a developer a beer!
