                               Psi4 1.3.2 release

  ==> Input File <==

--------------------------------------------------------------------------
#psi4
#
memory 32 gb

molecule  {
0 1
  O        2.1793270    -1.1884030     0.0070830
  O        2.0147220     1.0703310     0.0037530
  C       -2.3333640     0.6373300    -0.0064140
  C       -2.8929490    -0.7786760    -0.0059160
  C       -0.8434759     0.7676334    -0.0467080
  C        0.0222220    -0.2866530     0.0001530
  C        1.4732850    -0.0238670     0.0030520
  H       -2.6739887     1.1961093    -0.8883063
  H       -2.7141290     1.1896330     0.8630350
  H       -3.9853730    -0.7577330    -0.0084480
  H       -2.5694230    -1.3301270     0.8805270
  H       -2.5653610    -1.3323610    -0.8894680
  H       -0.4156920     1.7426300    -0.0033930
  H       -0.2913660    -1.3244520     0.0007550
  H        3.1211320    -0.9203150     0.0096400
units angstrom
no_reorient  #important for SAPT in psi4, default
symmetry c1  #important for SAPT in psi4, default
}

set PROPERTIES_ORIGIN ["COM"]
properties('MP2/aug-cc-pvtz', properties = ['dipole'])
--------------------------------------------------------------------------

    Molecular point group: c1
  Charge       = 0
  Multiplicity = 1
  Basis Set: AUG-CC-PVTZ
    Blend: AUG-CC-PVTZ
  Basis Set: (AUG-CC-PVTZ AUX)
    Blend: AUG-CC-PVTZ-JKFIT

    Orbital Energies [Eh]
    ---------------------

    Doubly Occupied:

       1A    -20.609481     2A    -20.538833     3A    -11.384363
       4A    -11.270314     5A    -11.248056     6A    -11.242648
       7A    -11.229792     8A     -1.452004     9A     -1.347052
      10A     -1.109088    11A     -1.021741    12A     -0.918802
      13A     -0.840241    14A     -0.742779    15A     -0.703311
      16A     -0.694164    17A     -0.632965    18A     -0.620497
      19A     -0.614083    20A     -0.599728    21A     -0.569072
      22A     -0.517938    23A     -0.511689    24A     -0.508831
      25A     -0.481706    26A     -0.449565    27A     -0.374821

  @DF-RHF Final Energy:  -343.85732810946899

   => Energetics <=

    Nuclear Repulsion Energy =            285.1442901804361441
    One-Electron Energy =               -1033.5361066324153398
    Two-Electron Energy =                 404.5344883425101443
    Total Energy =                       -343.8573281094689946
  Basis Set: (AUG-CC-PVTZ AUX)
    Blend: AUG-CC-PVTZ-RI
    Molecular point group: c1

    Geometry (in Angstrom), charge = 0, multiplicity = 1:

       Center              X                  Y                   Z               Mass
    ------------   -----------------  -----------------  -----------------  -----------------
         O            2.179294670400    -1.191921330094     0.012406333328    15.994914619570
         O            2.014689670400     1.066812669906     0.009076333328    15.994914619570
         C           -2.333396329600     0.633811669906    -0.001090666672    12.000000000000
         C           -2.892981329600    -0.782194330094    -0.000592666672    12.000000000000
         C           -0.843508229600     0.764115069906    -0.041384666672    12.000000000000
         C            0.022189670400    -0.290171330094     0.005476333328    12.000000000000
         C            1.473252670400    -0.027385330094     0.008375333328    12.000000000000
         H           -2.674021029600     1.192590969906    -0.882982966672     1.007825032230
         H           -2.714161329600     1.186114669906     0.868358333328     1.007825032230
         H           -3.985405329600    -0.761251330094    -0.003124666672     1.007825032230
         H           -2.569455329600    -1.333645330094     0.885850333328     1.007825032230
         H           -2.565393329600    -1.335879330094    -0.884144666672     1.007825032230
         H           -0.415724329600     1.739111669906     0.001930333328     1.007825032230
         H           -0.291398329600    -1.327970330094     0.006078333328     1.007825032230
         H            3.121099670400    -0.923833330094     0.014963333328     1.007825032230

  Basis Set: AUG-CC-PVTZ
    Blend: AUG-CC-PVTZ
  Basis Set: (AUG-CC-PVTZ AUX)
    Blend: AUG-CC-PVTZ-JKFIT
	 Reference Energy          =    -343.8573281094689946 [Eh]
	 Singles Energy            =      -0.0000000000000000 [Eh]
	 Same-Spin Energy          =      -0.3408568988714240 [Eh]
	 Opposite-Spin Energy      =      -1.0998930774073106 [Eh]
	 Correlation Energy        =      -1.4407499762787346 [Eh]
	 Total Energy              =    -345.2980780857477043 [Eh]

	 ================> DF-SCS-MP2 Energies <==================
	-----------------------------------------------------------
	 SCS Same-Spin Scale       =       0.3333333333333333 [-]
	 SCS Opposite-Spin Scale   =       1.2000000000000000 [-]
	 SCS Same-Spin Energy      =      -0.1136189662904747 [Eh]
	 SCS Opposite-Spin Energy  =      -1.3198716928887726 [Eh]
	 SCS Correlation Energy    =      -1.4334906591792473 [Eh]
	 SCS Total Energy          =    -345.2908187686482506 [Eh]
	-----------------------------------------------------------

  Dipole Moment: [D]
     X:    -1.8506      Y:    -0.9199      Z:     0.0246     Total:     2.0668

*** Psi4 exiting successfully. Buy a developer a beer!
