                               Psi4 1.3.2 release

  ==> Input File <==

--------------------------------------------------------------------------
#psi4
#
memory 32 gb

molecule  {
0 1
  O        2.1793270    -1.1884030     0.0070830
  O        2.0147220     1.0703310     0.0037530
  C       -2.3259962     0.5593498    -0.0063002
  C       -2.8929490    -0.7786760    -0.0059160
  C       -0.8407100     0.7390270    -0.0031060
  C       -0.0326406    -0.3304100     0.0000811
  C        1.4732850    -0.0238670     0.0030520
  H       -2.7101490     1.1874440    -0.8789970
  H       -2.7141290     1.1896330     0.8630350
  H       -3.9853730    -0.7577330    -0.0084480
  H       -2.5694230    -1.3301270     0.8805270
  H       -2.5653610    -1.3323610    -0.8894680
  H       -0.4156920     1.7426300    -0.0033930
  H       -0.2913660    -1.3244520     0.0007550
  H        3.1211320    -0.9203150     0.0096400
units angstrom
no_reorient  #important for SAPT in psi4, default
symmetry c1  #important for SAPT in psi4, default
}

set PROPERTIES_ORIGIN ["COM"]
properties('MP2/aug-cc-pvtz', properties = ['dipole'])
--------------------------------------------------------------------------

    Molecular point group: c1
  Charge       = 0
  Multiplicity = 1
  Basis Set: AUG-CC-PVTZ
    Blend: AUG-CC-PVTZ
  Basis Set: (AUG-CC-PVTZ AUX)
    Blend: AUG-CC-PVTZ-JKFIT

    Orbital Energies [Eh]
    ---------------------

    Doubly Occupied:

       1A    -20.610461     2A    -20.542818     3A    -11.388441
       4A    -11.266616     5A    -11.249049     6A    -11.240067
       7A    -11.225792     8A     -1.452415     9A     -1.348627
      10A     -1.116099    11A     -1.026125    12A     -0.912129
      13A     -0.833198    14A     -0.748876    15A     -0.698875
      16A     -0.695599    17A     -0.628246    18A     -0.619540
      19A     -0.618638    20A     -0.614446    21A     -0.569992
      22A     -0.529227    23A     -0.500231    24A     -0.498965
      25A     -0.481523    26A     -0.447499    27A     -0.377367

  @DF-RHF Final Energy:  -343.84662248885820

   => Energetics <=

    Nuclear Repulsion Energy =            285.5971999721186307
    One-Electron Energy =               -1034.4059280378137373
    Two-Electron Energy =                 404.9621055768368478
    Total Energy =                       -343.8466224888582019
  Basis Set: (AUG-CC-PVTZ AUX)
    Blend: AUG-CC-PVTZ-RI
    Molecular point group: c1

    Geometry (in Angstrom), charge = 0, multiplicity = 1:

       Center              X                  Y                   Z               Mass
    ------------   -----------------  -----------------  -----------------  -----------------
         O            2.185023567323    -1.173802266765     0.007078037471    15.994914619570
         O            2.020418567323     1.084931733235     0.003748037471    15.994914619570
         C           -2.320299632677     0.573950533235    -0.006305162529    12.000000000000
         C           -2.887252432677    -0.764075266765    -0.005920962529    12.000000000000
         C           -0.835013432677     0.753627733235    -0.003110962529    12.000000000000
         C           -0.026944032677    -0.315809266765     0.000076137471    12.000000000000
         C            1.478981567323    -0.009266266765     0.003047037471    12.000000000000
         H           -2.704452432677     1.202044733235    -0.879001962529     1.007825032230
         H           -2.708432432677     1.204233733235     0.863030037471     1.007825032230
         H           -3.979676432677    -0.743132266765    -0.008452962529     1.007825032230
         H           -2.563726432677    -1.315526266765     0.880522037471     1.007825032230
         H           -2.559664432677    -1.317760266765    -0.889472962529     1.007825032230
         H           -0.409995432677     1.757230733235    -0.003397962529     1.007825032230
         H           -0.285669432677    -1.309851266765     0.000750037471     1.007825032230
         H            3.126828567323    -0.905714266765     0.009635037471     1.007825032230

  Basis Set: AUG-CC-PVTZ
    Blend: AUG-CC-PVTZ
  Basis Set: (AUG-CC-PVTZ AUX)
    Blend: AUG-CC-PVTZ-JKFIT
	 Reference Energy          =    -343.8466224888582019 [Eh]
	 Singles Energy            =      -0.0000000000000000 [Eh]
	 Same-Spin Energy          =      -0.3412831594235734 [Eh]
	 Opposite-Spin Energy      =      -1.1003362982268614 [Eh]
	 Correlation Energy        =      -1.4416194576504349 [Eh]
	 Total Energy              =    -345.2882419465086627 [Eh]

	 ================> DF-SCS-MP2 Energies <==================
	-----------------------------------------------------------
	 SCS Same-Spin Scale       =       0.3333333333333333 [-]
	 SCS Opposite-Spin Scale   =       1.2000000000000000 [-]
	 SCS Same-Spin Energy      =      -0.1137610531411911 [Eh]
	 SCS Opposite-Spin Energy  =      -1.3204035578722337 [Eh]
	 SCS Correlation Energy    =      -1.4341646110134250 [Eh]
	 SCS Total Energy          =    -345.2807870998716453 [Eh]
	-----------------------------------------------------------

  Dipole Moment: [D]
     X:    -1.7484      Y:    -0.9666      Z:    -0.0031     Total:     1.9978

*** Psi4 exiting successfully. Buy a developer a beer!
