                               Psi4 1.3.2 release

  ==> Input File <==

--------------------------------------------------------------------------
#psi4
#
memory 32 gb

molecule  {
0 1
  O        2.1793270    -1.1884030     0.0070830
  O        2.0147220     1.0703310     0.0037530
  C       -2.3333640     0.6373300    -0.0064140
  C       -2.8929490    -0.7786760    -0.0059160
  C       -0.8412311     0.7461916    -0.0140082
  C        0.0222220    -0.2866530     0.0001530
  C        1.4732850    -0.0238670     0.0030520
  H       -2.7011502     1.1896736    -0.8814244
  H       -2.7141290     1.1896330     0.8630350
  H       -3.9853730    -0.7577330    -0.0084480
  H       -2.5694230    -1.3301270     0.8805270
  H       -2.5653610    -1.3323610    -0.8894680
  H       -0.4156920     1.7426300    -0.0033930
  H       -0.2913660    -1.3244520     0.0007550
  H        3.1211320    -0.9203150     0.0096400
units angstrom
no_reorient  #important for SAPT in psi4, default
symmetry c1  #important for SAPT in psi4, default
}

set PROPERTIES_ORIGIN ["COM"]
properties('MP2/aug-cc-pvtz', properties = ['dipole'])
--------------------------------------------------------------------------

    Molecular point group: c1
  Charge       = 0
  Multiplicity = 1
  Basis Set: AUG-CC-PVTZ
    Blend: AUG-CC-PVTZ
  Basis Set: (AUG-CC-PVTZ AUX)
    Blend: AUG-CC-PVTZ-JKFIT

    Orbital Energies [Eh]
    ---------------------

    Doubly Occupied:

       1A    -20.610188     2A    -20.539739     3A    -11.385245
       4A    -11.268320     5A    -11.247511     6A    -11.240909
       7A    -11.228863     8A     -1.452712     9A     -1.347765
      10A     -1.110781    11A     -1.023575    12A     -0.916933
      13A     -0.841923    14A     -0.739939    15A     -0.704980
      16A     -0.694238    17A     -0.632123    18A     -0.620586
      19A     -0.615406    20A     -0.600675    21A     -0.569315
      22A     -0.515448    23A     -0.511659    24A     -0.506849
      25A     -0.482364    26A     -0.450394    27A     -0.379187

  @DF-RHF Final Energy:  -343.85994866337012

   => Energetics <=

    Nuclear Repulsion Energy =            285.3777488204280530
    One-Electron Energy =               -1034.0001441491065179
    Two-Electron Energy =                 404.7624466653084028
    Total Energy =                       -343.8599486633701190
  Basis Set: (AUG-CC-PVTZ AUX)
    Blend: AUG-CC-PVTZ-RI
    Molecular point group: c1

    Geometry (in Angstrom), charge = 0, multiplicity = 1:

       Center              X                  Y                   Z               Mass
    ------------   -----------------  -----------------  -----------------  -----------------
         O            2.179299032509    -1.189284835799     0.008415092405    15.994914619570
         O            2.014694032509     1.069449164201     0.005085092405    15.994914619570
         C           -2.333391967491     0.636448164201    -0.005081907595    12.000000000000
         C           -2.892976967491    -0.779557835799    -0.004583907595    12.000000000000
         C           -0.841259067491     0.745309764201    -0.012676107595    12.000000000000
         C            0.022194032509    -0.287534835799     0.001485092405    12.000000000000
         C            1.473257032509    -0.024748835799     0.004384092405    12.000000000000
         H           -2.701178167491     1.188791764201    -0.880092307595     1.007825032230
         H           -2.714156967491     1.188751164201     0.864367092405     1.007825032230
         H           -3.985400967491    -0.758614835799    -0.007115907595     1.007825032230
         H           -2.569450967491    -1.331008835799     0.881859092405     1.007825032230
         H           -2.565388967491    -1.333242835799    -0.888135907595     1.007825032230
         H           -0.415719967491     1.741748164201    -0.002060907595     1.007825032230
         H           -0.291393967491    -1.325333835799     0.002087092405     1.007825032230
         H            3.121104032509    -0.921196835799     0.010972092405     1.007825032230

  Basis Set: AUG-CC-PVTZ
    Blend: AUG-CC-PVTZ
  Basis Set: (AUG-CC-PVTZ AUX)
    Blend: AUG-CC-PVTZ-JKFIT
	 Reference Energy          =    -343.8599486633701190 [Eh]
	 Singles Energy            =      -0.0000000000000000 [Eh]
	 Same-Spin Energy          =      -0.3406739902526967 [Eh]
	 Opposite-Spin Energy      =      -1.0994837671960531 [Eh]
	 Correlation Energy        =      -1.4401577574487499 [Eh]
	 Total Energy              =    -345.3001064208188495 [Eh]

	 ================> DF-SCS-MP2 Energies <==================
	-----------------------------------------------------------
	 SCS Same-Spin Scale       =       0.3333333333333333 [-]
	 SCS Opposite-Spin Scale   =       1.2000000000000000 [-]
	 SCS Same-Spin Energy      =      -0.1135579967508989 [Eh]
	 SCS Opposite-Spin Energy  =      -1.3193805206352638 [Eh]
	 SCS Correlation Energy    =      -1.4329385173861626 [Eh]
	 SCS Total Energy          =    -345.2928871807562814 [Eh]
	-----------------------------------------------------------

  Dipole Moment: [D]
     X:    -1.8280      Y:    -0.9214      Z:     0.0036     Total:     2.0471

*** Psi4 exiting successfully. Buy a developer a beer!
