                               Psi4 1.4a3.dev225

  ==> Input File <==

--------------------------------------------------------------------------
#psi4
#
memory 32 gb

molecule  {
0 1
  O       -2.3109350    -1.1403470    -0.0000450
  O       -2.1116090     1.1175510    -0.0000760
  C        2.2339710     0.6185460     0.0000510
  C        2.7736950    -0.8069580     0.0000920
  C        0.7414440     0.7423990     0.0000070
  C       -0.1379540    -0.2713190     0.0000010
  C       -1.5648354    -0.0305491    -0.0000437
  H        2.6208160     1.1641270     0.8715420
  H        2.6208650     1.1640950    -0.8714390
  H        3.8667590    -0.8011940     0.0001220
  H        2.4401730    -1.3549900    -0.8853120
  H        2.4401230    -1.3549580     0.8854960
  H        0.3318170     1.7528370    -0.0000240
  H        0.1592700    -1.3142900     0.0000290
  H       -3.2484020    -0.8568190    -0.0000760
units angstrom
no_reorient  #important for SAPT in psi4, default
symmetry c1  #important for SAPT in psi4, default
}

set PROPERTIES_ORIGIN ["COM"]
properties('MP2/aug-cc-pvtz', properties = ['dipole'])
--------------------------------------------------------------------------

    Molecular point group: c1
  Charge       = 0
  Multiplicity = 1
  Basis Set: AUG-CC-PVTZ
    Blend: AUG-CC-PVTZ
  Basis Set: (AUG-CC-PVTZ AUX)
    Blend: AUG-CC-PVTZ-JKFIT

    Orbital Energies [Eh]
    ---------------------

    Doubly Occupied:

       1A    -20.617283     2A    -20.529341     3A    -11.387860
       4A    -11.273373     5A    -11.250235     6A    -11.241045
       7A    -11.230520     8A     -1.456347     9A     -1.319144
      10A     -1.114235    11A     -1.028977    12A     -0.922807
      13A     -0.849820    14A     -0.744864    15A     -0.708552
      16A     -0.691877    17A     -0.633518    18A     -0.621907
      19A     -0.610844    20A     -0.604384    21A     -0.559819
      22A     -0.516867    23A     -0.514746    24A     -0.505699
      25A     -0.469251    26A     -0.443730    27A     -0.380322

  @DF-RHF Final Energy:  -343.85262128380543

   => Energetics <=

    Nuclear Repulsion Energy =            285.0911572832418415
    One-Electron Energy =               -1033.4328227263781628
    Two-Electron Energy =                 404.4890441593308879
    Total Energy =                       -343.8526212838054334
  Basis Set: (AUG-CC-PVTZ AUX)
    Blend: AUG-CC-PVTZ-RI
    Molecular point group: c1

    Geometry (in Angstrom), charge = 0, multiplicity = 1:

       Center              X                  Y                   Z               Mass
    ------------   -----------------  -----------------  -----------------  -----------------
         O           -2.202361332128    -1.150812366534    -0.000041930211    15.994914619570
         O           -2.003035332128     1.107085633466    -0.000072930211    15.994914619570
         C            2.342544667872     0.608080633466     0.000054069789    12.000000000000
         C            2.882268667872    -0.817423366534     0.000095069789    12.000000000000
         C            0.850017667872     0.731933633466     0.000010069789    12.000000000000
         C           -0.029380332128    -0.281784366534     0.000004069789    12.000000000000
         C           -1.456261732128    -0.041014466534    -0.000040630211    12.000000000000
         H            2.729389667872     1.153661633466     0.871545069789     1.007825032230
         H            2.729438667872     1.153629633466    -0.871435930211     1.007825032230
         H            3.975332667872    -0.811659366534     0.000125069789     1.007825032230
         H            2.548746667872    -1.365455366534    -0.885308930211     1.007825032230
         H            2.548696667872    -1.365423366534     0.885499069789     1.007825032230
         H            0.440390667872     1.742371633466    -0.000020930211     1.007825032230
         H            0.267843667872    -1.324755366534     0.000032069789     1.007825032230
         H           -3.139828332128    -0.867284366534    -0.000072930211     1.007825032230

  Basis Set: AUG-CC-PVTZ
    Blend: AUG-CC-PVTZ
  Basis Set: (AUG-CC-PVTZ AUX)
    Blend: AUG-CC-PVTZ-JKFIT
	 Reference Energy          =    -343.8526212838054334 [Eh]
	 Singles Energy            =      -0.0000000000000000 [Eh]
	 Same-Spin Energy          =      -0.3415589059297791 [Eh]
	 Opposite-Spin Energy      =      -1.1010562079895292 [Eh]
	 Correlation Energy        =      -1.4426151139193082 [Eh]
	 Total Energy              =    -345.2952363977247501 [Eh]

	 ================> DF-SCS-MP2 Energies <==================
	-----------------------------------------------------------
	 SCS Same-Spin Scale       =       0.3333333333333333 [-]
	 SCS Opposite-Spin Scale   =       1.2000000000000000 [-]
	 SCS Same-Spin Energy      =      -0.1138529686432597 [Eh]
	 SCS Opposite-Spin Energy  =      -1.3212674495874350 [Eh]
	 SCS Correlation Energy    =      -1.4351204182306947 [Eh]
	 SCS Total Energy          =    -345.2877417020361008 [Eh]
	-----------------------------------------------------------

  Dipole Moment: [D]
     X:     1.9610      Y:    -1.2450      Z:     0.0001     Total:     2.3228

*** Psi4 exiting successfully. Buy a developer a beer!
