                               Psi4 1.4a3.dev225

  ==> Input File <==

--------------------------------------------------------------------------
#psi4
#
memory 32 gb

molecule  {
0 1
  O       -2.3109350    -1.1403470    -0.0000450
  O       -2.1116090     1.1175510    -0.0000760
  C        2.2339710     0.6185460     0.0000510
  C        2.7736950    -0.8069580     0.0000920
  C        0.7414440     0.7423990     0.0000070
  C       -0.1379540    -0.2713190     0.0000010
  C       -1.5949334     0.0326498    -0.0000455
  H        2.6208160     1.1641270     0.8715420
  H        2.6208650     1.1640950    -0.8714390
  H        3.8667590    -0.8011940     0.0001220
  H        2.4401730    -1.3549900    -0.8853120
  H        2.4401230    -1.3549580     0.8854960
  H        0.3318170     1.7528370    -0.0000240
  H        0.1592700    -1.3142900     0.0000290
  H       -3.2484020    -0.8568190    -0.0000760
units angstrom
no_reorient  #important for SAPT in psi4, default
symmetry c1  #important for SAPT in psi4, default
}

set PROPERTIES_ORIGIN ["COM"]
properties('MP2/aug-cc-pvtz', properties = ['dipole'])
--------------------------------------------------------------------------

    Molecular point group: c1
  Charge       = 0
  Multiplicity = 1
  Basis Set: AUG-CC-PVTZ
    Blend: AUG-CC-PVTZ
  Basis Set: (AUG-CC-PVTZ AUX)
    Blend: AUG-CC-PVTZ-JKFIT

    Orbital Energies [Eh]
    ---------------------

    Doubly Occupied:

       1A    -20.607542     2A    -20.544758     3A    -11.385214
       4A    -11.266460     5A    -11.246907     6A    -11.241067
       7A    -11.228323     8A     -1.453549     9A     -1.356897
      10A     -1.109293    11A     -1.021650    12A     -0.913393
      13A     -0.838895    14A     -0.737411    15A     -0.703823
      16A     -0.695580    17A     -0.631094    18A     -0.620421
      19A     -0.618406    20A     -0.598716    21A     -0.572067
      22A     -0.514316    23A     -0.511584    24A     -0.504377
      25A     -0.487666    26A     -0.452333    27A     -0.380190

  @DF-RHF Final Energy:  -343.86056842119962

   => Energetics <=

    Nuclear Repulsion Energy =            285.2253316811274999
    One-Electron Energy =               -1033.6879359721417586
    Two-Electron Energy =                 404.6020358698146424
    Total Energy =                       -343.8605684211996163
  Basis Set: (AUG-CC-PVTZ AUX)
    Blend: AUG-CC-PVTZ-RI
    Molecular point group: c1

    Geometry (in Angstrom), charge = 0, multiplicity = 1:

       Center              X                  Y                   Z               Mass
    ------------   -----------------  -----------------  -----------------  -----------------
         O           -2.198751464763    -1.158392260434    -0.000041714325    15.994914619570
         O           -1.999425464763     1.099505739566    -0.000072714325    15.994914619570
         C            2.346154535237     0.600500739566     0.000054285675    12.000000000000
         C            2.885878535237    -0.825003260434     0.000095285675    12.000000000000
         C            0.853627535237     0.724353739566     0.000010285675    12.000000000000
         C           -0.025770464763    -0.289364260434     0.000004285675    12.000000000000
         C           -1.482749864763     0.014604539566    -0.000042214325    12.000000000000
         H            2.732999535237     1.146081739566     0.871545285675     1.007825032230
         H            2.733048535237     1.146049739566    -0.871435714325     1.007825032230
         H            3.978942535237    -0.819239260434     0.000125285675     1.007825032230
         H            2.552356535237    -1.373035260434    -0.885308714325     1.007825032230
         H            2.552306535237    -1.373003260434     0.885499285675     1.007825032230
         H            0.444000535237     1.734791739566    -0.000020714325     1.007825032230
         H            0.271453535237    -1.332335260434     0.000032285675     1.007825032230
         H           -3.136218464763    -0.874864260434    -0.000072714325     1.007825032230

  Basis Set: AUG-CC-PVTZ
    Blend: AUG-CC-PVTZ
  Basis Set: (AUG-CC-PVTZ AUX)
    Blend: AUG-CC-PVTZ-JKFIT
	 Reference Energy          =    -343.8605684211996163 [Eh]
	 Singles Energy            =      -0.0000000000000000 [Eh]
	 Same-Spin Energy          =      -0.3402915597590216 [Eh]
	 Opposite-Spin Energy      =      -1.0989907180541860 [Eh]
	 Correlation Energy        =      -1.4392822778132075 [Eh]
	 Total Energy              =    -345.2998506990128362 [Eh]

	 ================> DF-SCS-MP2 Energies <==================
	-----------------------------------------------------------
	 SCS Same-Spin Scale       =       0.3333333333333333 [-]
	 SCS Opposite-Spin Scale   =       1.2000000000000000 [-]
	 SCS Same-Spin Energy      =      -0.1134305199196739 [Eh]
	 SCS Opposite-Spin Energy  =      -1.3187888616650232 [Eh]
	 SCS Correlation Energy    =      -1.4322193815846971 [Eh]
	 SCS Total Energy          =    -345.2927878027842894 [Eh]
	-----------------------------------------------------------

  Dipole Moment: [D]
     X:     1.7485      Y:    -0.8206      Z:     0.0001     Total:     1.9315

*** Psi4 exiting successfully. Buy a developer a beer!
