                               Psi4 1.3.2 release

  ==> Input File <==

--------------------------------------------------------------------------
#psi4
#
memory 32 gb

molecule  {
0 1
  O        2.1793270    -1.1884030     0.0070830
  O        2.0147220     1.0703310     0.0037530
  C       -2.3349114     0.6633959    -0.0064504
  C       -2.8929490    -0.7786760    -0.0059160
  C       -0.8407100     0.7390270    -0.0031060
  C        0.0222220    -0.2866530     0.0001530
  C        1.4732850    -0.0238670     0.0030520
  H       -2.7101490     1.1874440    -0.8789970
  H       -2.7141290     1.1896330     0.8630350
  H       -3.9853730    -0.7577330    -0.0084480
  H       -2.5694230    -1.3301270     0.8805270
  H       -2.5653610    -1.3323610    -0.8894680
  H       -0.4332720     1.7498947    -0.0034426
  H       -0.2913660    -1.3244520     0.0007550
  H        3.1211320    -0.9203150     0.0096400
units angstrom
no_reorient  #important for SAPT in psi4, default
symmetry c1  #important for SAPT in psi4, default
}

set PROPERTIES_ORIGIN ["COM"]
properties('MP2/aug-cc-pvtz', properties = ['dipole'])
--------------------------------------------------------------------------

    Molecular point group: c1
  Charge       = 0
  Multiplicity = 1
  Basis Set: AUG-CC-PVTZ
    Blend: AUG-CC-PVTZ
  Basis Set: (AUG-CC-PVTZ AUX)
    Blend: AUG-CC-PVTZ-JKFIT

    Orbital Energies [Eh]
    ---------------------

    Doubly Occupied:

       1A    -20.610566     2A    -20.540078     3A    -11.385746
       4A    -11.267839     5A    -11.245852     6A    -11.241283
       7A    -11.228959     8A     -1.453049     9A     -1.348017
      10A     -1.110010    11A     -1.021868    12A     -0.916074
      13A     -0.844096    14A     -0.739710    15A     -0.705225
      16A     -0.694206    17A     -0.633351    18A     -0.621081
      19A     -0.615079    20A     -0.601130    21A     -0.567760
      22A     -0.518891    23A     -0.514604    24A     -0.497295
      25A     -0.482720    26A     -0.450741    27A     -0.381596

  @DF-RHF Final Energy:  -343.85973800789492

   => Energetics <=

    Nuclear Repulsion Energy =            285.2145085943461709
    One-Electron Energy =               -1033.6748432771164516
    Two-Electron Energy =                 404.6005966748753622
    Total Energy =                       -343.8597380078949186
  Basis Set: (AUG-CC-PVTZ AUX)
    Blend: AUG-CC-PVTZ-RI
    Molecular point group: c1

    Geometry (in Angstrom), charge = 0, multiplicity = 1:

       Center              X                  Y                   Z               Mass
    ------------   -----------------  -----------------  -----------------  -----------------
         O            2.179689851404    -1.191602521646     0.007087928167    15.994914619570
         O            2.015084851404     1.067131478354     0.003757928167    15.994914619570
         C           -2.334548548596     0.660196378354    -0.006445471833    12.000000000000
         C           -2.892586148596    -0.781875521646    -0.005911071833    12.000000000000
         C           -0.840347148596     0.735827478354    -0.003101071833    12.000000000000
         C            0.022584851404    -0.289852521646     0.000157928167    12.000000000000
         C            1.473647851404    -0.027066521646     0.003056928167    12.000000000000
         H           -2.709786148596     1.184244478354    -0.878992071833     1.007825032230
         H           -2.713766148596     1.186433478354     0.863039928167     1.007825032230
         H           -3.985010148596    -0.760932521646    -0.008443071833     1.007825032230
         H           -2.569060148596    -1.333326521646     0.880531928167     1.007825032230
         H           -2.564998148596    -1.335560521646    -0.889463071833     1.007825032230
         H           -0.432909148596     1.746695178354    -0.003437671833     1.007825032230
         H           -0.291003148596    -1.327651521646     0.000759928167     1.007825032230
         H            3.121494851404    -0.923514521646     0.009644928167     1.007825032230

  Basis Set: AUG-CC-PVTZ
    Blend: AUG-CC-PVTZ
  Basis Set: (AUG-CC-PVTZ AUX)
    Blend: AUG-CC-PVTZ-JKFIT
	 Reference Energy          =    -343.8597380078949186 [Eh]
	 Singles Energy            =      -0.0000000000000000 [Eh]
	 Same-Spin Energy          =      -0.3404369292899345 [Eh]
	 Opposite-Spin Energy      =      -1.0993160898014067 [Eh]
	 Correlation Energy        =      -1.4397530190913412 [Eh]
	 Total Energy              =    -345.2994910269862316 [Eh]

	 ================> DF-SCS-MP2 Energies <==================
	-----------------------------------------------------------
	 SCS Same-Spin Scale       =       0.3333333333333333 [-]
	 SCS Opposite-Spin Scale   =       1.2000000000000000 [-]
	 SCS Same-Spin Energy      =      -0.1134789764299782 [Eh]
	 SCS Opposite-Spin Energy  =      -1.3191793077616880 [Eh]
	 SCS Correlation Energy    =      -1.4326582841916662 [Eh]
	 SCS Total Energy          =    -345.2923962920866074 [Eh]
	-----------------------------------------------------------

  Dipole Moment: [D]
     X:    -1.8019      Y:    -0.9091      Z:    -0.0033     Total:     2.0182

*** Psi4 exiting successfully. Buy a developer a beer!
