                               Psi4 1.3.2 release

  ==> Input File <==

--------------------------------------------------------------------------
#psi4
#
memory 32 gb

molecule  {
0 1
  O        2.1793270    -1.1884030     0.0070830
  O        2.0147220     1.0703310     0.0037530
  C       -2.3259962     0.5593498    -0.0062987
  C       -2.8929490    -0.7786760    -0.0059160
  C       -0.8407100     0.7390270    -0.0031060
  C        0.0222220    -0.2866530     0.0001530
  C        1.4732850    -0.0238670     0.0030520
  H       -2.7101490     1.1874440    -0.8789970
  H       -2.7141290     1.1896330     0.8630350
  H       -3.9853730    -0.7577330    -0.0084480
  H       -2.5694230    -1.3301270     0.8805270
  H       -2.5653610    -1.3323610    -0.8894680
  H       -0.3637501     1.7190110    -0.0032436
  H       -0.2913660    -1.3244520     0.0007550
  H        3.1211320    -0.9203150     0.0096400
units angstrom
no_reorient  #important for SAPT in psi4, default
symmetry c1  #important for SAPT in psi4, default
}

set PROPERTIES_ORIGIN ["COM"]
properties('MP2/aug-cc-pvtz', properties = ['dipole'])
--------------------------------------------------------------------------

    Molecular point group: c1
  Charge       = 0
  Multiplicity = 1
  Basis Set: AUG-CC-PVTZ
    Blend: AUG-CC-PVTZ
  Basis Set: (AUG-CC-PVTZ AUX)
    Blend: AUG-CC-PVTZ-JKFIT

    Orbital Energies [Eh]
    ---------------------

    Doubly Occupied:

       1A    -20.610103     2A    -20.540108     3A    -11.385045
       4A    -11.267930     5A    -11.253100     6A    -11.237880
       7A    -11.227221     8A     -1.452771     9A     -1.348109
      10A     -1.116827    11A     -1.032496    12A     -0.917008
      13A     -0.837368    14A     -0.737699    15A     -0.706536
      16A     -0.694363    17A     -0.630082    18A     -0.619991
      19A     -0.618895    20A     -0.601815    21A     -0.574865
      22A     -0.524377    23A     -0.503798    24A     -0.501910
      25A     -0.481779    26A     -0.450499    27A     -0.377146

  @DF-RHF Final Energy:  -343.85180607079542

   => Energetics <=

    Nuclear Repulsion Energy =            286.1995946863831932
    One-Electron Energy =               -1035.6033615075491525
    Two-Electron Energy =                 405.5519607503705402
    Total Energy =                       -343.8518060707954191
  Basis Set: (AUG-CC-PVTZ AUX)
    Blend: AUG-CC-PVTZ-RI
    Molecular point group: c1

    Geometry (in Angstrom), charge = 0, multiplicity = 1:

       Center              X                  Y                   Z               Mass
    ------------   -----------------  -----------------  -----------------  -----------------
         O            2.177920296062    -1.178812441761     0.007067729185    15.994914619570
         O            2.013315296062     1.079921558239     0.003737729185    15.994914619570
         C           -2.327402903938     0.568940358239    -0.006313970815    12.000000000000
         C           -2.894355703938    -0.769085441761    -0.005931270815    12.000000000000
         C           -0.842116703938     0.748617558239    -0.003121270815    12.000000000000
         C            0.020815296062    -0.277062441761     0.000137729185    12.000000000000
         C            1.471878296062    -0.014276441761     0.003036729185    12.000000000000
         H           -2.711555703938     1.197034558239    -0.879012270815     1.007825032230
         H           -2.715535703938     1.199223558239     0.863019729185     1.007825032230
         H           -3.986779703938    -0.748142441761    -0.008463270815     1.007825032230
         H           -2.570829703938    -1.320536441761     0.880511729185     1.007825032230
         H           -2.566767703938    -1.322770441761    -0.889483270815     1.007825032230
         H           -0.365156803938     1.728601558239    -0.003258870815     1.007825032230
         H           -0.292772703938    -1.314861441761     0.000739729185     1.007825032230
         H            3.119725296062    -0.910724441761     0.009624729185     1.007825032230

  Basis Set: AUG-CC-PVTZ
    Blend: AUG-CC-PVTZ
  Basis Set: (AUG-CC-PVTZ AUX)
    Blend: AUG-CC-PVTZ-JKFIT
	 Reference Energy          =    -343.8518060707954191 [Eh]
	 Singles Energy            =      -0.0000000000000000 [Eh]
	 Same-Spin Energy          =      -0.3415820046337784 [Eh]
	 Opposite-Spin Energy      =      -1.1003011744727216 [Eh]
	 Correlation Energy        =      -1.4418831791064999 [Eh]
	 Total Energy              =    -345.2936892499019450 [Eh]

	 ================> DF-SCS-MP2 Energies <==================
	-----------------------------------------------------------
	 SCS Same-Spin Scale       =       0.3333333333333333 [-]
	 SCS Opposite-Spin Scale   =       1.2000000000000000 [-]
	 SCS Same-Spin Energy      =      -0.1138606682112595 [Eh]
	 SCS Opposite-Spin Energy  =      -1.3203614093672658 [Eh]
	 SCS Correlation Energy    =      -1.4342220775785253 [Eh]
	 SCS Total Energy          =    -345.2860281483739300 [Eh]
	-----------------------------------------------------------

  Dipole Moment: [D]
     X:    -1.8678      Y:    -0.9732      Z:    -0.0034     Total:     2.1062

*** Psi4 exiting successfully. Buy a developer a beer!
