                               Psi4 1.4a3.dev225

  ==> Input File <==

--------------------------------------------------------------------------
#psi4
#
memory 32 gb

molecule  {
0 1
  O       -2.3109350    -1.1403470    -0.0000450
  O       -2.1116090     1.1175510    -0.0000760
  C        2.2339710     0.6185460     0.0000510
  C        2.7736950    -0.8069580     0.0000920
  C        0.7414440     0.7423990     0.0000070
  C       -0.1379540    -0.2713190     0.0000010
  C       -1.5372806     0.0049098    -0.0000434
  H        2.6208160     1.1641270     0.8715420
  H        2.6208650     1.1640950    -0.8714390
  H        3.8667590    -0.8011940     0.0001220
  H        2.4401730    -1.3549900    -0.8853120
  H        2.4401230    -1.3549580     0.8854960
  H        0.3318170     1.7528370    -0.0000240
  H        0.1592700    -1.3142900     0.0000290
  H       -3.2484020    -0.8568190    -0.0000760
units angstrom
no_reorient  #important for SAPT in psi4, default
symmetry c1  #important for SAPT in psi4, default
}

set PROPERTIES_ORIGIN ["COM"]
properties('MP2/aug-cc-pvtz', properties = ['dipole'])
--------------------------------------------------------------------------

    Molecular point group: c1
  Charge       = 0
  Multiplicity = 1
  Basis Set: AUG-CC-PVTZ
    Blend: AUG-CC-PVTZ
  Basis Set: (AUG-CC-PVTZ AUX)
    Blend: AUG-CC-PVTZ-JKFIT

    Orbital Energies [Eh]
    ---------------------

    Doubly Occupied:

       1A    -20.604029     2A    -20.534707     3A    -11.386740
       4A    -11.276903     5A    -11.252154     6A    -11.241619
       7A    -11.232091     8A     -1.436517     9A     -1.326060
      10A     -1.118813    11A     -1.033764    12A     -0.923346
      13A     -0.844232    14A     -0.740410    15A     -0.708901
      16A     -0.684132    17A     -0.634209    18A     -0.610973
      19A     -0.610563    20A     -0.604963    21A     -0.567012
      22A     -0.518508    23A     -0.516498    24A     -0.509203
      25A     -0.473648    26A     -0.446676    27A     -0.383960

  @DF-RHF Final Energy:  -343.85284117364233

   => Energetics <=

    Nuclear Repulsion Energy =            285.1676068826938604
    One-Electron Energy =               -1033.5996298058278171
    Two-Electron Energy =                 404.5791817494915676
    Total Energy =                       -343.8528411736423323
  Basis Set: (AUG-CC-PVTZ AUX)
    Blend: AUG-CC-PVTZ-RI
    Molecular point group: c1

    Geometry (in Angstrom), charge = 0, multiplicity = 1:

       Center              X                  Y                   Z               Mass
    ------------   -----------------  -----------------  -----------------  -----------------
         O           -2.205666175415    -1.155065204793    -0.000041966193    15.994914619570
         O           -2.006340175415     1.102832795207    -0.000072966193    15.994914619570
         C            2.339239824585     0.603827795207     0.000054033807    12.000000000000
         C            2.878963824585    -0.821676204793     0.000095033807    12.000000000000
         C            0.846712824585     0.727680795207     0.000010033807    12.000000000000
         C           -0.032685175415    -0.286037204793     0.000004033807    12.000000000000
         C           -1.432011775415    -0.009808404793    -0.000040366193    12.000000000000
         H            2.726084824585     1.149408795207     0.871545033807     1.007825032230
         H            2.726133824585     1.149376795207    -0.871435966193     1.007825032230
         H            3.972027824585    -0.815912204793     0.000125033807     1.007825032230
         H            2.545441824585    -1.369708204793    -0.885308966193     1.007825032230
         H            2.545391824585    -1.369676204793     0.885499033807     1.007825032230
         H            0.437085824585     1.738118795207    -0.000020966193     1.007825032230
         H            0.264538824585    -1.329008204793     0.000032033807     1.007825032230
         H           -3.143133175415    -0.871537204793    -0.000072966193     1.007825032230

  Basis Set: AUG-CC-PVTZ
    Blend: AUG-CC-PVTZ
  Basis Set: (AUG-CC-PVTZ AUX)
    Blend: AUG-CC-PVTZ-JKFIT
	 Reference Energy          =    -343.8528411736423323 [Eh]
	 Singles Energy            =      -0.0000000000000000 [Eh]
	 Same-Spin Energy          =      -0.3416779322427360 [Eh]
	 Opposite-Spin Energy      =      -1.1013857574845507 [Eh]
	 Correlation Energy        =      -1.4430636897272868 [Eh]
	 Total Energy              =    -345.2959048633696284 [Eh]

	 ================> DF-SCS-MP2 Energies <==================
	-----------------------------------------------------------
	 SCS Same-Spin Scale       =       0.3333333333333333 [-]
	 SCS Opposite-Spin Scale   =       1.2000000000000000 [-]
	 SCS Same-Spin Energy      =      -0.1138926440809120 [Eh]
	 SCS Opposite-Spin Energy  =      -1.3216629089814609 [Eh]
	 SCS Correlation Energy    =      -1.4355555530623729 [Eh]
	 SCS Total Energy          =    -345.2883967267047183 [Eh]
	-----------------------------------------------------------

  Dipole Moment: [D]
     X:     2.2476      Y:    -0.9330      Z:     0.0001     Total:     2.4335

*** Psi4 exiting successfully. Buy a developer a beer!
