                               Psi4 1.3.2 release

  ==> Input File <==

--------------------------------------------------------------------------
#psi4
#
memory 32 gb

molecule  {
0 1
  O        2.1793270    -1.1884030     0.0070830
  O        2.0147220     1.0703310     0.0037530
  C       -2.3333640     0.6373300    -0.0064140
  C       -2.8661603    -0.7882494     0.0389738
  C       -0.8407100     0.7390270    -0.0031060
  C        0.0222220    -0.2866530     0.0001530
  C        1.4732850    -0.0238670     0.0030520
  H       -2.6901865     1.2180690    -0.8674676
  H       -2.7141290     1.1896330     0.8630350
  H       -3.9853730    -0.7577330    -0.0084480
  H       -2.5694230    -1.3301270     0.8805270
  H       -2.5653610    -1.3323610    -0.8894680
  H       -0.4156920     1.7426300    -0.0033930
  H       -0.2913660    -1.3244520     0.0007550
  H        3.1211320    -0.9203150     0.0096400
units angstrom
no_reorient  #important for SAPT in psi4, default
symmetry c1  #important for SAPT in psi4, default
}

set PROPERTIES_ORIGIN ["COM"]
properties('MP2/aug-cc-pvtz', properties = ['dipole'])
--------------------------------------------------------------------------

    Molecular point group: c1
  Charge       = 0
  Multiplicity = 1
  Basis Set: AUG-CC-PVTZ
    Blend: AUG-CC-PVTZ
  Basis Set: (AUG-CC-PVTZ AUX)
    Blend: AUG-CC-PVTZ-JKFIT

    Orbital Energies [Eh]
    ---------------------

    Doubly Occupied:

       1A    -20.610183     2A    -20.539714     3A    -11.385233
       4A    -11.267077     5A    -11.247868     6A    -11.239791
       7A    -11.229611     8A     -1.452687     9A     -1.347721
      10A     -1.111797    11A     -1.023691    12A     -0.916850
      13A     -0.843466    14A     -0.738682    15A     -0.705112
      16A     -0.693933    17A     -0.633801    18A     -0.621208
      19A     -0.613715    20A     -0.601898    21A     -0.566356
      22A     -0.528826    23A     -0.504477    24A     -0.500488
      25A     -0.482291    26A     -0.450374    27A     -0.380012

  @DF-RHF Final Energy:  -343.85656234649713

   => Energetics <=

    Nuclear Repulsion Energy =            285.6319797828244305
    One-Electron Energy =               -1034.5033596575747197
    Two-Electron Energy =                 405.0148175282532179
    Total Energy =                       -343.8565623464971281
  Basis Set: (AUG-CC-PVTZ AUX)
    Blend: AUG-CC-PVTZ-RI
    Molecular point group: c1

    Geometry (in Angstrom), charge = 0, multiplicity = 1:

       Center              X                  Y                   Z               Mass
    ------------   -----------------  -----------------  -----------------  -----------------
         O            2.175913136804    -1.187563354312     0.001582974326    15.994914619570
         O            2.011308136804     1.071170645688    -0.001747025674    15.994914619570
         C           -2.336777863196     0.638169645688    -0.011914025674    12.000000000000
         C           -2.869574163196    -0.787409754312     0.033473774326    12.000000000000
         C           -0.844123863196     0.739866645688    -0.008606025674    12.000000000000
         C            0.018808136804    -0.285813354312    -0.005347025674    12.000000000000
         C            1.469871136804    -0.023027354312    -0.002448025674    12.000000000000
         H           -2.693600363196     1.218908645688    -0.872967625674     1.007825032230
         H           -2.717542863196     1.190472645688     0.857534974326     1.007825032230
         H           -3.988786863196    -0.756893354312    -0.013948025674     1.007825032230
         H           -2.572836863196    -1.329287354312     0.875026974326     1.007825032230
         H           -2.568774863196    -1.331521354312    -0.894968025674     1.007825032230
         H           -0.419105863196     1.743469645688    -0.008893025674     1.007825032230
         H           -0.294779863196    -1.323612354312    -0.004745025674     1.007825032230
         H            3.117718136804    -0.919475354312     0.004139974326     1.007825032230

  Basis Set: AUG-CC-PVTZ
    Blend: AUG-CC-PVTZ
  Basis Set: (AUG-CC-PVTZ AUX)
    Blend: AUG-CC-PVTZ-JKFIT
	 Reference Energy          =    -343.8565623464971281 [Eh]
	 Singles Energy            =      -0.0000000000000000 [Eh]
	 Same-Spin Energy          =      -0.3407461375098310 [Eh]
	 Opposite-Spin Energy      =      -1.0995819161456653 [Eh]
	 Correlation Energy        =      -1.4403280536554961 [Eh]
	 Total Energy              =    -345.2968904001526198 [Eh]

	 ================> DF-SCS-MP2 Energies <==================
	-----------------------------------------------------------
	 SCS Same-Spin Scale       =       0.3333333333333333 [-]
	 SCS Opposite-Spin Scale   =       1.2000000000000000 [-]
	 SCS Same-Spin Energy      =      -0.1135820458366103 [Eh]
	 SCS Opposite-Spin Energy  =      -1.3194982993747983 [Eh]
	 SCS Correlation Energy    =      -1.4330803452114087 [Eh]
	 SCS Total Energy          =    -345.2896426917085364 [Eh]
	-----------------------------------------------------------

  Dipole Moment: [D]
     X:    -1.8314      Y:    -0.9133      Z:     0.0151     Total:     2.0466

*** Psi4 exiting successfully. Buy a developer a beer!
