                               Psi4 1.3.2 release

  ==> Input File <==

--------------------------------------------------------------------------
#psi4
#
memory 32 gb

molecule  {
0 1
  O        2.1793270    -1.1884030     0.0070830
  O        2.0147220     1.0703310     0.0037530
  C       -2.3289057     0.5852990    -0.0063391
  C       -2.8929490    -0.7786760    -0.0059160
  C       -0.8407100     0.7390270    -0.0031060
  C       -0.0140994    -0.3161442     0.0001061
  C        1.4732850    -0.0238670     0.0030520
  H       -2.7101490     1.1874440    -0.8789970
  H       -2.7141290     1.1896330     0.8630350
  H       -3.9853730    -0.7577330    -0.0084480
  H       -2.5694230    -1.3301270     0.8805270
  H       -2.5653610    -1.3323610    -0.8894680
  H       -0.4156920     1.7426300    -0.0033930
  H       -0.2913660    -1.3244520     0.0007550
  H        3.1211320    -0.9203150     0.0096400
units angstrom
no_reorient  #important for SAPT in psi4, default
symmetry c1  #important for SAPT in psi4, default
}

set PROPERTIES_ORIGIN ["COM"]
properties('MP2/aug-cc-pvtz', properties = ['dipole'])
--------------------------------------------------------------------------

    Molecular point group: c1
  Charge       = 0
  Multiplicity = 1
  Basis Set: AUG-CC-PVTZ
    Blend: AUG-CC-PVTZ
  Basis Set: (AUG-CC-PVTZ AUX)
    Blend: AUG-CC-PVTZ-JKFIT

    Orbital Energies [Eh]
    ---------------------

    Doubly Occupied:

       1A    -20.610487     2A    -20.541935     3A    -11.387620
       4A    -11.266740     5A    -11.248215     6A    -11.240045
       7A    -11.226674     8A     -1.452622     9A     -1.348441
      10A     -1.114120    11A     -1.025102    12A     -0.913539
      13A     -0.836194    14A     -0.745151    15A     -0.701136
      16A     -0.695346    17A     -0.629061    18A     -0.619157
      19A     -0.617041    20A     -0.610414    21A     -0.570345
      22A     -0.521519    23A     -0.505210    24A     -0.503518
      25A     -0.481969    26A     -0.448990    27A     -0.378527

  @DF-RHF Final Energy:  -343.85412425751827

   => Energetics <=

    Nuclear Repulsion Energy =            285.5356035266657386
    One-Electron Energy =               -1034.3012178739775209
    Two-Electron Energy =                 404.9114900897935740
    Total Energy =                       -343.8541242575182650
  Basis Set: (AUG-CC-PVTZ AUX)
    Blend: AUG-CC-PVTZ-RI
    Molecular point group: c1

    Geometry (in Angstrom), charge = 0, multiplicity = 1:

       Center              X                  Y                   Z               Mass
    ------------   -----------------  -----------------  -----------------  -----------------
         O            2.183148746283    -1.178625537948     0.007079704597    15.994914619570
         O            2.018543746283     1.080108462052     0.003749704597    15.994914619570
         C           -2.325083953717     0.595076462052    -0.006342395403    12.000000000000
         C           -2.889127253717    -0.768898537948    -0.005919295403    12.000000000000
         C           -0.836888253717     0.748804462052    -0.003109295403    12.000000000000
         C           -0.010277653717    -0.306366737948     0.000102804597    12.000000000000
         C            1.477106746283    -0.014089537948     0.003048704597    12.000000000000
         H           -2.706327253717     1.197221462052    -0.879000295403     1.007825032230
         H           -2.710307253717     1.199410462052     0.863031704597     1.007825032230
         H           -3.981551253717    -0.747955537948    -0.008451295403     1.007825032230
         H           -2.565601253717    -1.320349537948     0.880523704597     1.007825032230
         H           -2.561539253717    -1.322583537948    -0.889471295403     1.007825032230
         H           -0.411870253717     1.752407462052    -0.003396295403     1.007825032230
         H           -0.287544253717    -1.314674537948     0.000751704597     1.007825032230
         H            3.124953746283    -0.910537537948     0.009636704597     1.007825032230

  Basis Set: AUG-CC-PVTZ
    Blend: AUG-CC-PVTZ
  Basis Set: (AUG-CC-PVTZ AUX)
    Blend: AUG-CC-PVTZ-JKFIT
	 Reference Energy          =    -343.8541242575182650 [Eh]
	 Singles Energy            =      -0.0000000000000000 [Eh]
	 Same-Spin Energy          =      -0.3409764556280441 [Eh]
	 Opposite-Spin Energy      =      -1.0998293101342564 [Eh]
	 Correlation Energy        =      -1.4408057657623006 [Eh]
	 Total Energy              =    -345.2949300232805854 [Eh]

	 ================> DF-SCS-MP2 Energies <==================
	-----------------------------------------------------------
	 SCS Same-Spin Scale       =       0.3333333333333333 [-]
	 SCS Opposite-Spin Scale   =       1.2000000000000000 [-]
	 SCS Same-Spin Energy      =      -0.1136588185426814 [Eh]
	 SCS Opposite-Spin Energy  =      -1.3197951721611076 [Eh]
	 SCS Correlation Energy    =      -1.4334539907037891 [Eh]
	 SCS Total Energy          =    -345.2875782482220757 [Eh]
	-----------------------------------------------------------

  Dipole Moment: [D]
     X:    -1.7710      Y:    -0.9523      Z:    -0.0032     Total:     2.0108

*** Psi4 exiting successfully. Buy a developer a beer!
