                               Psi4 1.4a3.dev225

  ==> Input File <==

--------------------------------------------------------------------------
#psi4
#
memory 32 gb

molecule  {
0 1
  O       -2.3109350    -1.1403470    -0.0000450
  O       -2.1116090     1.1175510    -0.0000760
  C        2.2339710     0.6185460     0.0000510
  C        2.7736950    -0.8069580     0.0000920
  C        0.7215125     0.7440530     0.0000064
  C       -0.1379540    -0.2713190     0.0000010
  C       -1.5863340     0.0145930    -0.0000450
  H        2.6208160     1.1641270     0.8715420
  H        2.6208650     1.1640950    -0.8714390
  H        3.8667590    -0.8011940     0.0001220
  H        2.4401730    -1.3549900    -0.8853120
  H        2.4401230    -1.3549580     0.8854960
  H        0.3318170     1.7528370    -0.0000240
  H        0.1592700    -1.3142900     0.0000290
  H       -3.2484020    -0.8568190    -0.0000760
units angstrom
no_reorient  #important for SAPT in psi4, default
symmetry c1  #important for SAPT in psi4, default
}

set PROPERTIES_ORIGIN ["COM"]
properties('MP2/aug-cc-pvtz', properties = ['dipole'])
--------------------------------------------------------------------------

    Molecular point group: c1
  Charge       = 0
  Multiplicity = 1
  Basis Set: AUG-CC-PVTZ
    Blend: AUG-CC-PVTZ
  Basis Set: (AUG-CC-PVTZ AUX)
    Blend: AUG-CC-PVTZ-JKFIT

    Orbital Energies [Eh]
    ---------------------

    Doubly Occupied:

       1A    -20.610591     2A    -20.540609     3A    -11.386030
       4A    -11.266373     5A    -11.248156     6A    -11.240131
       7A    -11.228573     8A     -1.452437     9A     -1.347920
      10A     -1.109944    11A     -1.024341    12A     -0.914161
      13A     -0.842017    14A     -0.740516    15A     -0.704886
      16A     -0.694765    17A     -0.630494    18A     -0.620041
      19A     -0.613980    20A     -0.602955    21A     -0.568878
      22A     -0.513905    23A     -0.511169    24A     -0.503710
      25A     -0.482854    26A     -0.450734    27A     -0.383665

  @DF-RHF Final Energy:  -343.86007468668936

   => Energetics <=

    Nuclear Repulsion Energy =            285.2265870132966938
    One-Electron Energy =               -1033.7056482992325073
    Two-Electron Energy =                 404.6189865992464547
    Total Energy =                       -343.8600746866893587
  Basis Set: (AUG-CC-PVTZ AUX)
    Blend: AUG-CC-PVTZ-RI
    Molecular point group: c1

    Geometry (in Angstrom), charge = 0, multiplicity = 1:

       Center              X                  Y                   Z               Mass
    ------------   -----------------  -----------------  -----------------  -----------------
         O           -2.197392325353    -1.156424955882    -0.000041702331    15.994914619570
         O           -1.998066325353     1.101473044118    -0.000072702331    15.994914619570
         C            2.347513674647     0.602468044118     0.000054297669    12.000000000000
         C            2.887237674647    -0.823035955882     0.000095297669    12.000000000000
         C            0.835055174647     0.727975044118     0.000009697669    12.000000000000
         C           -0.024411325353    -0.287396955882     0.000004297669    12.000000000000
         C           -1.472791325353    -0.001484955882    -0.000041702331    12.000000000000
         H            2.734358674647     1.148049044118     0.871545297669     1.007825032230
         H            2.734407674647     1.148017044118    -0.871435702331     1.007825032230
         H            3.980301674647    -0.817271955882     0.000125297669     1.007825032230
         H            2.553715674647    -1.371067955882    -0.885308702331     1.007825032230
         H            2.553665674647    -1.371035955882     0.885499297669     1.007825032230
         H            0.445359674647     1.736759044118    -0.000020702331     1.007825032230
         H            0.272812674647    -1.330367955882     0.000032297669     1.007825032230
         H           -3.134859325353    -0.872896955882    -0.000072702331     1.007825032230

  Basis Set: AUG-CC-PVTZ
    Blend: AUG-CC-PVTZ
  Basis Set: (AUG-CC-PVTZ AUX)
    Blend: AUG-CC-PVTZ-JKFIT
	 Reference Energy          =    -343.8600746866893587 [Eh]
	 Singles Energy            =      -0.0000000000000000 [Eh]
	 Same-Spin Energy          =      -0.3403667984182117 [Eh]
	 Opposite-Spin Energy      =      -1.0991794028239312 [Eh]
	 Correlation Energy        =      -1.4395462012421429 [Eh]
	 Total Energy              =    -345.2996208879314963 [Eh]

	 ================> DF-SCS-MP2 Energies <==================
	-----------------------------------------------------------
	 SCS Same-Spin Scale       =       0.3333333333333333 [-]
	 SCS Opposite-Spin Scale   =       1.2000000000000000 [-]
	 SCS Same-Spin Energy      =      -0.1134555994727372 [Eh]
	 SCS Opposite-Spin Energy  =      -1.3190152833887174 [Eh]
	 SCS Correlation Energy    =      -1.4324708828614547 [Eh]
	 SCS Total Energy          =    -345.2925455695508390 [Eh]
	-----------------------------------------------------------

  Dipole Moment: [D]
     X:     1.7743      Y:    -0.9514      Z:     0.0001     Total:     2.0133

*** Psi4 exiting successfully. Buy a developer a beer!
