                               Psi4 1.3.2 release

  ==> Input File <==

--------------------------------------------------------------------------
#psi4
#
memory 32 gb

molecule  {
0 1
  O        2.1793270    -1.1884030     0.0070830
  O        2.0147220     1.0703310     0.0037530
  C       -2.3333640     0.6373300    -0.0064140
  C       -2.8929490    -0.7786760    -0.0059160
  C       -0.8407100     0.7390270    -0.0031060
  C        0.0222220    -0.2866530     0.0001530
  C        1.4684778     0.0014175     0.0030096
  H       -2.7101490     1.1874440    -0.8789970
  H       -2.7141290     1.1896330     0.8630350
  H       -3.9853730    -0.7577330    -0.0084480
  H       -2.5694230    -1.3301270     0.8805270
  H       -2.5653610    -1.3323610    -0.8894680
  H       -0.4156920     1.7426300    -0.0033930
  H       -0.3094303    -1.3188211     0.0007078
  H        3.1211320    -0.9203150     0.0096400
units angstrom
no_reorient  #important for SAPT in psi4, default
symmetry c1  #important for SAPT in psi4, default
}

set PROPERTIES_ORIGIN ["COM"]
properties('MP2/aug-cc-pvtz', properties = ['dipole'])
--------------------------------------------------------------------------

    Molecular point group: c1
  Charge       = 0
  Multiplicity = 1
  Basis Set: AUG-CC-PVTZ
    Blend: AUG-CC-PVTZ
  Basis Set: (AUG-CC-PVTZ AUX)
    Blend: AUG-CC-PVTZ-JKFIT

    Orbital Energies [Eh]
    ---------------------

    Doubly Occupied:

       1A    -20.603324     2A    -20.545156     3A    -11.384902
       4A    -11.267509     5A    -11.247482     6A    -11.240688
       7A    -11.228854     8A     -1.449699     9A     -1.354002
      10A     -1.112190    11A     -1.024553    12A     -0.914771
      13A     -0.838280    14A     -0.737182    15A     -0.704953
      16A     -0.693341    17A     -0.631703    18A     -0.618059
      19A     -0.617771    20A     -0.598709    21A     -0.573558
      22A     -0.515178    23A     -0.512572    24A     -0.505652
      25A     -0.486923    26A     -0.453080    27A     -0.381795

  @DF-RHF Final Energy:  -343.86008988763672

   => Energetics <=

    Nuclear Repulsion Energy =            285.5269005389382642
    One-Electron Energy =               -1034.2902109794360967
    Two-Electron Energy =                 404.9032205528611712
    Total Energy =                       -343.8600898876367182
  Basis Set: (AUG-CC-PVTZ AUX)
    Blend: AUG-CC-PVTZ-RI
    Molecular point group: c1

    Geometry (in Angstrom), charge = 0, multiplicity = 1:

       Center              X                  Y                   Z               Mass
    ------------   -----------------  -----------------  -----------------  -----------------
         O            2.180085700759    -1.191492345565     0.007088623615    15.994914619570
         O            2.015480700759     1.067241654435     0.003758623615    15.994914619570
         C           -2.332605299241     0.634240654435    -0.006408376385    12.000000000000
         C           -2.892190299241    -0.781765345565    -0.005910376385    12.000000000000
         C           -0.839951299241     0.735937654435    -0.003100376385    12.000000000000
         C            0.022980700759    -0.289742345565     0.000158623615    12.000000000000
         C            1.469236500759    -0.001671845565     0.003015223615    12.000000000000
         H           -2.709390299241     1.184354654435    -0.878991376385     1.007825032230
         H           -2.713370299241     1.186543654435     0.863040623615     1.007825032230
         H           -3.984614299241    -0.760822345565    -0.008442376385     1.007825032230
         H           -2.568664299241    -1.333216345565     0.880532623615     1.007825032230
         H           -2.564602299241    -1.335450345565    -0.889462376385     1.007825032230
         H           -0.414933299241     1.739540654435    -0.003387376385     1.007825032230
         H           -0.308671599241    -1.321910445565     0.000713423615     1.007825032230
         H            3.121890700759    -0.923404345565     0.009645623615     1.007825032230

  Basis Set: AUG-CC-PVTZ
    Blend: AUG-CC-PVTZ
  Basis Set: (AUG-CC-PVTZ AUX)
    Blend: AUG-CC-PVTZ-JKFIT
	 Reference Energy          =    -343.8600898876367182 [Eh]
	 Singles Energy            =      -0.0000000000000000 [Eh]
	 Same-Spin Energy          =      -0.3404691479125050 [Eh]
	 Opposite-Spin Energy      =      -1.0991692104778283 [Eh]
	 Correlation Energy        =      -1.4396383583903334 [Eh]
	 Total Energy              =    -345.2997282460270299 [Eh]

	 ================> DF-SCS-MP2 Energies <==================
	-----------------------------------------------------------
	 SCS Same-Spin Scale       =       0.3333333333333333 [-]
	 SCS Opposite-Spin Scale   =       1.2000000000000000 [-]
	 SCS Same-Spin Energy      =      -0.1134897159708350 [Eh]
	 SCS Opposite-Spin Energy  =      -1.3190030525733940 [Eh]
	 SCS Correlation Energy    =      -1.4324927685442290 [Eh]
	 SCS Total Energy          =    -345.2925826561809686 [Eh]
	-----------------------------------------------------------

  Dipole Moment: [D]
     X:    -1.8909      Y:    -0.7153      Z:    -0.0038     Total:     2.0217

*** Psi4 exiting successfully. Buy a developer a beer!
