                               Psi4 1.3.2 release

  ==> Input File <==

--------------------------------------------------------------------------
#psi4
#
memory 32 gb

molecule  {
0 1
  O        2.1174122    -1.2237587     0.0070083
  O        2.0147220     1.0703310     0.0037530
  C       -2.3333640     0.6373300    -0.0064140
  C       -2.8929490    -0.7786760    -0.0059160
  C       -0.8407100     0.7390270    -0.0031060
  C        0.0379634    -0.3622356     0.0003435
  C        1.4732850    -0.0238670     0.0030520
  H       -2.7101490     1.1874440    -0.8789970
  H       -2.7141290     1.1896330     0.8630350
  H       -3.9853730    -0.7577330    -0.0084480
  H       -2.5694230    -1.3301270     0.8805270
  H       -2.5653610    -1.3323610    -0.8894680
  H       -0.4156920     1.7426300    -0.0033930
  H       -0.2913660    -1.3244520     0.0007550
  H        3.1211320    -0.9203150     0.0096400
units angstrom
no_reorient  #important for SAPT in psi4, default
symmetry c1  #important for SAPT in psi4, default
}

set PROPERTIES_ORIGIN ["COM"]
properties('MP2/aug-cc-pvtz', properties = ['dipole'])
--------------------------------------------------------------------------

    Molecular point group: c1
  Charge       = 0
  Multiplicity = 1
  Basis Set: AUG-CC-PVTZ
    Blend: AUG-CC-PVTZ
  Basis Set: (AUG-CC-PVTZ AUX)
    Blend: AUG-CC-PVTZ-JKFIT

    Orbital Energies [Eh]
    ---------------------

    Doubly Occupied:

       1A    -20.614880     2A    -20.542599     3A    -11.384683
       4A    -11.279166     5A    -11.247687     6A    -11.239444
       7A    -11.228958     8A     -1.445094     9A     -1.346444
      10A     -1.103398    11A     -1.019115    12A     -0.915330
      13A     -0.827832    14A     -0.748139    15A     -0.697559
      16A     -0.689731    17A     -0.631429    18A     -0.619703
      19A     -0.615721    20A     -0.598834    21A     -0.569407
      22A     -0.514719    23A     -0.510522    24A     -0.508256
      25A     -0.482615    26A     -0.451938    27A     -0.366379

  @DF-RHF Final Energy:  -343.83726670181136

   => Energetics <=

    Nuclear Repulsion Energy =            284.8090255831253330
    One-Electron Energy =               -1032.8934199231684943
    Two-Electron Energy =                 404.2471276382318592
    Total Energy =                       -343.8372667018113589
  Basis Set: (AUG-CC-PVTZ AUX)
    Blend: AUG-CC-PVTZ-RI
    Molecular point group: c1

    Geometry (in Angstrom), charge = 0, multiplicity = 1:

       Center              X                  Y                   Z               Mass
    ------------   -----------------  -----------------  -----------------  -----------------
         O            2.125422429679    -1.209041465818     0.006997456756    15.994914619570
         O            2.022732229679     1.085048234182     0.003742156756    15.994914619570
         C           -2.325353770321     0.652047234182    -0.006424843244    12.000000000000
         C           -2.884938770321    -0.763958765818    -0.005926843244    12.000000000000
         C           -0.832699770321     0.753744234182    -0.003116843244    12.000000000000
         C            0.045973629679    -0.347518365818     0.000332656756    12.000000000000
         C            1.481295229679    -0.009149765818     0.003041156756    12.000000000000
         H           -2.702138770321     1.202161234182    -0.879007843244     1.007825032230
         H           -2.706118770321     1.204350234182     0.863024156756     1.007825032230
         H           -3.977362770321    -0.743015765818    -0.008458843244     1.007825032230
         H           -2.561412770321    -1.315409765818     0.880516156756     1.007825032230
         H           -2.557350770321    -1.317643765818    -0.889478843244     1.007825032230
         H           -0.407681770321     1.757347234182    -0.003403843244     1.007825032230
         H           -0.283355770321    -1.309734765818     0.000744156756     1.007825032230
         H            3.129142229679    -0.905597765818     0.009629156756     1.007825032230

  Basis Set: AUG-CC-PVTZ
    Blend: AUG-CC-PVTZ
  Basis Set: (AUG-CC-PVTZ AUX)
    Blend: AUG-CC-PVTZ-JKFIT
	 Reference Energy          =    -343.8372667018113589 [Eh]
	 Singles Energy            =      -0.0000000000000000 [Eh]
	 Same-Spin Energy          =      -0.3428490657227909 [Eh]
	 Opposite-Spin Energy      =      -1.1043279291831585 [Eh]
	 Correlation Energy        =      -1.4471769949059494 [Eh]
	 Total Energy              =    -345.2844436967172896 [Eh]

	 ================> DF-SCS-MP2 Energies <==================
	-----------------------------------------------------------
	 SCS Same-Spin Scale       =       0.3333333333333333 [-]
	 SCS Opposite-Spin Scale   =       1.2000000000000000 [-]
	 SCS Same-Spin Energy      =      -0.1142830219075970 [Eh]
	 SCS Opposite-Spin Energy  =      -1.3251935150197902 [Eh]
	 SCS Correlation Energy    =      -1.4394765369273872 [Eh]
	 SCS Total Energy          =    -345.2767432387387316 [Eh]
	-----------------------------------------------------------

  Dipole Moment: [D]
     X:    -1.7596      Y:    -0.8985      Z:    -0.0033     Total:     1.9758

*** Psi4 exiting successfully. Buy a developer a beer!
