                               Psi4 1.3.2 release

  ==> Input File <==

--------------------------------------------------------------------------
#psi4
#
memory 32 gb

molecule  {
0 1
  O        2.1793270    -1.1884030     0.0070830
  O        2.0337359     1.0607150     0.0037960
  C       -2.3333640     0.6373300    -0.0064140
  C       -2.8929490    -0.7786760    -0.0059160
  C       -0.8407100     0.7390270    -0.0031060
  C        0.0270292    -0.3119376     0.0001726
  C        1.4732850    -0.0238670     0.0030520
  H       -2.7101490     1.1874440    -0.8789970
  H       -2.7141290     1.1896330     0.8630350
  H       -3.9853730    -0.7577330    -0.0084480
  H       -2.5694230    -1.3301270     0.8805270
  H       -2.5653610    -1.3323610    -0.8894680
  H       -0.4156920     1.7426300    -0.0033930
  H       -0.2913660    -1.3244520     0.0007550
  H        3.1211320    -0.9203150     0.0096400
units angstrom
no_reorient  #important for SAPT in psi4, default
symmetry c1  #important for SAPT in psi4, default
}

set PROPERTIES_ORIGIN ["COM"]
properties('MP2/aug-cc-pvtz', properties = ['dipole'])
--------------------------------------------------------------------------

    Molecular point group: c1
  Charge       = 0
  Multiplicity = 1
  Basis Set: AUG-CC-PVTZ
    Blend: AUG-CC-PVTZ
  Basis Set: (AUG-CC-PVTZ AUX)
    Blend: AUG-CC-PVTZ-JKFIT

    Orbital Energies [Eh]
    ---------------------

    Doubly Occupied:

       1A    -20.607143     2A    -20.539346     3A    -11.384895
       4A    -11.273337     5A    -11.248435     6A    -11.242120
       7A    -11.229464     8A     -1.451999     9A     -1.345618
      10A     -1.109915    11A     -1.024023    12A     -0.917412
      13A     -0.840395    14A     -0.743049    15A     -0.704337
      16A     -0.693048    17A     -0.632288    18A     -0.619762
      19A     -0.615310    20A     -0.600986    21A     -0.571573
      22A     -0.515665    23A     -0.512444    24A     -0.508039
      25A     -0.480773    26A     -0.450743    27A     -0.377227

  @DF-RHF Final Energy:  -343.85844189060600

   => Energetics <=

    Nuclear Repulsion Energy =            285.1583986234613235
    One-Electron Energy =               -1033.5549870636725700
    Two-Electron Energy =                 404.5381465496051874
    Total Energy =                       -343.8584418906060023
  Basis Set: (AUG-CC-PVTZ AUX)
    Blend: AUG-CC-PVTZ-RI
    Molecular point group: c1

    Geometry (in Angstrom), charge = 0, multiplicity = 1:

       Center              X                  Y                   Z               Mass
    ------------   -----------------  -----------------  -----------------  -----------------
         O            2.175710952809    -1.183833248582     0.007073837860    15.994914619570
         O            2.030119852809     1.065284751418     0.003786837860    15.994914619570
         C           -2.336980047191     0.641899751418    -0.006423162140    12.000000000000
         C           -2.896565047191    -0.774106248582    -0.005925162140    12.000000000000
         C           -0.844326047191     0.743596751418    -0.003115162140    12.000000000000
         C            0.023413152809    -0.307367848582     0.000163437860    12.000000000000
         C            1.469668952809    -0.019297248582     0.003042837860    12.000000000000
         H           -2.713765047191     1.192013751418    -0.879006162140     1.007825032230
         H           -2.717745047191     1.194202751418     0.863025837860     1.007825032230
         H           -3.988989047191    -0.753163248582    -0.008457162140     1.007825032230
         H           -2.573039047191    -1.325557248582     0.880517837860     1.007825032230
         H           -2.568977047191    -1.327791248582    -0.889477162140     1.007825032230
         H           -0.419308047191     1.747199751418    -0.003402162140     1.007825032230
         H           -0.294982047191    -1.319882248582     0.000745837860     1.007825032230
         H            3.117515952809    -0.915745248582     0.009630837860     1.007825032230

  Basis Set: AUG-CC-PVTZ
    Blend: AUG-CC-PVTZ
  Basis Set: (AUG-CC-PVTZ AUX)
    Blend: AUG-CC-PVTZ-JKFIT
	 Reference Energy          =    -343.8584418906060023 [Eh]
	 Singles Energy            =      -0.0000000000000000 [Eh]
	 Same-Spin Energy          =      -0.3407895437229970 [Eh]
	 Opposite-Spin Energy      =      -1.0997531999382937 [Eh]
	 Correlation Energy        =      -1.4405427436612905 [Eh]
	 Total Energy              =    -345.2989846342672990 [Eh]

	 ================> DF-SCS-MP2 Energies <==================
	-----------------------------------------------------------
	 SCS Same-Spin Scale       =       0.3333333333333333 [-]
	 SCS Opposite-Spin Scale   =       1.2000000000000000 [-]
	 SCS Same-Spin Energy      =      -0.1135965145743323 [Eh]
	 SCS Opposite-Spin Energy  =      -1.3197038399259524 [Eh]
	 SCS Correlation Energy    =      -1.4333003545002847 [Eh]
	 SCS Total Energy          =    -345.2917422451062635 [Eh]
	-----------------------------------------------------------

  Dipole Moment: [D]
     X:    -1.9316      Y:    -0.8962      Z:    -0.0036     Total:     2.1294

*** Psi4 exiting successfully. Buy a developer a beer!
