                               Psi4 1.3.2 release

  ==> Input File <==

--------------------------------------------------------------------------
#psi4
#
memory 32 gb

molecule  {
0 1
  O        2.1793270    -1.1884030     0.0070830
  O        2.0147220     1.0703310     0.0037530
  C       -2.3366405     0.7155890    -0.0065187
  C       -2.8929490    -0.7786760    -0.0059160
  C       -0.8407100     0.7390270    -0.0031060
  C        0.0747194    -0.2400847     0.0002160
  C        1.4732850    -0.0238670     0.0030520
  H       -2.7101490     1.1874440    -0.8789970
  H       -2.7141290     1.1896330     0.8630350
  H       -3.9853730    -0.7577330    -0.0084480
  H       -2.5694230    -1.3301270     0.8805270
  H       -2.5653610    -1.3323610    -0.8894680
  H       -0.4156920     1.7426300    -0.0033930
  H       -0.2913660    -1.3244520     0.0007550
  H        3.1211320    -0.9203150     0.0096400
units angstrom
no_reorient  #important for SAPT in psi4, default
symmetry c1  #important for SAPT in psi4, default
}

set PROPERTIES_ORIGIN ["COM"]
properties('MP2/aug-cc-pvtz', properties = ['dipole'])
--------------------------------------------------------------------------

    Molecular point group: c1
  Charge       = 0
  Multiplicity = 1
  Basis Set: AUG-CC-PVTZ
    Blend: AUG-CC-PVTZ
  Basis Set: (AUG-CC-PVTZ AUX)
    Blend: AUG-CC-PVTZ-JKFIT

    Orbital Energies [Eh]
    ---------------------

    Doubly Occupied:

       1A    -20.610160     2A    -20.537110     3A    -11.381620
       4A    -11.270999     5A    -11.248042     6A    -11.241826
       7A    -11.231492     8A     -1.453364     9A     -1.347396
      10A     -1.109938    11A     -1.025469    12A     -0.920284
      13A     -0.852489    14A     -0.735493    15A     -0.708596
      16A     -0.692020    17A     -0.640028    18A     -0.623474
      19A     -0.616210    20A     -0.595789    21A     -0.557537
      22A     -0.527516    23A     -0.523021    24A     -0.483444
      25A     -0.479407    26A     -0.450799    27A     -0.383258

  @DF-RHF Final Energy:  -343.84809042727369

   => Energetics <=

    Nuclear Repulsion Energy =            285.4136427298358285
    One-Electron Energy =               -1034.0299024650134925
    Two-Electron Energy =                 404.7681693079039746
    Total Energy =                       -343.8480904272736893
  Basis Set: (AUG-CC-PVTZ AUX)
    Blend: AUG-CC-PVTZ-RI
    Molecular point group: c1

    Geometry (in Angstrom), charge = 0, multiplicity = 1:

       Center              X                  Y                   Z               Mass
    ------------   -----------------  -----------------  -----------------  -----------------
         O            2.173423765041    -1.203374502191     0.007088064214    15.994914619570
         O            2.008818765041     1.055359497809     0.003758064214    15.994914619570
         C           -2.342543734959     0.700617497809    -0.006513635786    12.000000000000
         C           -2.898852234959    -0.793647502191    -0.005910935786    12.000000000000
         C           -0.846613234959     0.724055497809    -0.003100935786    12.000000000000
         C            0.068816165041    -0.255056202191     0.000221064214    12.000000000000
         C            1.467381765041    -0.038838502191     0.003057064214    12.000000000000
         H           -2.716052234959     1.172472497809    -0.878991935786     1.007825032230
         H           -2.720032234959     1.174661497809     0.863040064214     1.007825032230
         H           -3.991276234959    -0.772704502191    -0.008442935786     1.007825032230
         H           -2.575326234959    -1.345098502191     0.880532064214     1.007825032230
         H           -2.571264234959    -1.347332502191    -0.889462935786     1.007825032230
         H           -0.421595234959     1.727658497809    -0.003387935786     1.007825032230
         H           -0.297269234959    -1.339423502191     0.000760064214     1.007825032230
         H            3.115228765041    -0.935286502191     0.009645064214     1.007825032230

  Basis Set: AUG-CC-PVTZ
    Blend: AUG-CC-PVTZ
  Basis Set: (AUG-CC-PVTZ AUX)
    Blend: AUG-CC-PVTZ-JKFIT
	 Reference Energy          =    -343.8480904272736893 [Eh]
	 Singles Energy            =      -0.0000000000000000 [Eh]
	 Same-Spin Energy          =      -0.3408081501725957 [Eh]
	 Opposite-Spin Energy      =      -1.1002034152178146 [Eh]
	 Correlation Energy        =      -1.4410115653904103 [Eh]
	 Total Energy              =    -345.2891019926640865 [Eh]

	 ================> DF-SCS-MP2 Energies <==================
	-----------------------------------------------------------
	 SCS Same-Spin Scale       =       0.3333333333333333 [-]
	 SCS Opposite-Spin Scale   =       1.2000000000000000 [-]
	 SCS Same-Spin Energy      =      -0.1136027167241986 [Eh]
	 SCS Opposite-Spin Energy  =      -1.3202440982613775 [Eh]
	 SCS Correlation Energy    =      -1.4338468149855761 [Eh]
	 SCS Total Energy          =    -345.2819372422592892 [Eh]
	-----------------------------------------------------------

  Dipole Moment: [D]
     X:    -1.8922      Y:    -0.8727      Z:    -0.0036     Total:     2.0837

*** Psi4 exiting successfully. Buy a developer a beer!
