                               Psi4 1.4a3.dev225

  ==> Input File <==

--------------------------------------------------------------------------
#psi4
#
memory 32 gb

molecule  {
0 1
  O       -2.3109350    -1.1403470    -0.0000450
  O       -2.1116090     1.1175510    -0.0000760
  C        2.2339710     0.6185460     0.0000510
  C        2.7736950    -0.8069580     0.0000920
  C        0.7414440     0.7423990     0.0000070
  C       -0.1379540    -0.2713190     0.0000010
  C       -1.6353874     0.0242762    -0.0000466
  H        2.6208160     1.1641270     0.8715420
  H        2.6208650     1.1640950    -0.8714390
  H        3.8667590    -0.8011940     0.0001220
  H        2.4401730    -1.3549900    -0.8853120
  H        2.4401230    -1.3549580     0.8854960
  H        0.3318170     1.7528370    -0.0000240
  H        0.1592700    -1.3142900     0.0000290
  H       -3.2484020    -0.8568190    -0.0000760
units angstrom
no_reorient  #important for SAPT in psi4, default
symmetry c1  #important for SAPT in psi4, default
}

set PROPERTIES_ORIGIN ["COM"]
properties('MP2/aug-cc-pvtz', properties = ['dipole'])
--------------------------------------------------------------------------

    Molecular point group: c1
  Charge       = 0
  Multiplicity = 1
  Basis Set: AUG-CC-PVTZ
    Blend: AUG-CC-PVTZ
  Basis Set: (AUG-CC-PVTZ AUX)
    Blend: AUG-CC-PVTZ-JKFIT

    Orbital Energies [Eh]
    ---------------------

    Doubly Occupied:

       1A    -20.616653     2A    -20.545862     3A    -11.385446
       4A    -11.260553     5A    -11.243813     6A    -11.239626
       7A    -11.225965     8A     -1.467725     9A     -1.369258
      10A     -1.103509    11A     -1.014415    12A     -0.909147
      13A     -0.840515    14A     -0.737851    15A     -0.703757
      16A     -0.702063    17A     -0.635475    18A     -0.623665
      19A     -0.621847    20A     -0.595646    21A     -0.570272
      22A     -0.511793    23A     -0.508895    24A     -0.501046
      25A     -0.492330    26A     -0.450448    27A     -0.376127

  @DF-RHF Final Energy:  -343.85960023054872

   => Energetics <=

    Nuclear Repulsion Energy =            285.2081805917545694
    One-Electron Energy =               -1033.6281645743590616
    Two-Electron Energy =                 404.5603837520557136
    Total Energy =                       -343.8596002305487218
  Basis Set: (AUG-CC-PVTZ AUX)
    Blend: AUG-CC-PVTZ-RI
    Molecular point group: c1

    Geometry (in Angstrom), charge = 0, multiplicity = 1:

       Center              X                  Y                   Z               Mass
    ------------   -----------------  -----------------  -----------------  -----------------
         O           -2.193899528609    -1.157387954986    -0.000041582394    15.994914619570
         O           -1.994573528609     1.100510045014    -0.000072582394    15.994914619570
         C            2.351006471391     0.601505045014     0.000054417606    12.000000000000
         C            2.890730471391    -0.823998954986     0.000095417606    12.000000000000
         C            0.858479471391     0.725358045014     0.000010417606    12.000000000000
         C           -0.020918528609    -0.288359954986     0.000004417606    12.000000000000
         C           -1.518351928609     0.007235245014    -0.000043182394    12.000000000000
         H            2.737851471391     1.147086045014     0.871545417606     1.007825032230
         H            2.737900471391     1.147054045014    -0.871435582394     1.007825032230
         H            3.983794471391    -0.818234954986     0.000125417606     1.007825032230
         H            2.557208471391    -1.372030954986    -0.885308582394     1.007825032230
         H            2.557158471391    -1.371998954986     0.885499417606     1.007825032230
         H            0.448852471391     1.735796045014    -0.000020582394     1.007825032230
         H            0.276305471391    -1.331330954986     0.000032417606     1.007825032230
         H           -3.131366528609    -0.873859954986    -0.000072582394     1.007825032230

  Basis Set: AUG-CC-PVTZ
    Blend: AUG-CC-PVTZ
  Basis Set: (AUG-CC-PVTZ AUX)
    Blend: AUG-CC-PVTZ-JKFIT
	 Reference Energy          =    -343.8596002305487218 [Eh]
	 Singles Energy            =      -0.0000000000000000 [Eh]
	 Same-Spin Energy          =      -0.3398474327043260 [Eh]
	 Opposite-Spin Energy      =      -1.0981724970965279 [Eh]
	 Correlation Energy        =      -1.4380199298008538 [Eh]
	 Total Energy              =    -345.2976201603495952 [Eh]

	 ================> DF-SCS-MP2 Energies <==================
	-----------------------------------------------------------
	 SCS Same-Spin Scale       =       0.3333333333333333 [-]
	 SCS Opposite-Spin Scale   =       1.2000000000000000 [-]
	 SCS Same-Spin Energy      =      -0.1132824775681087 [Eh]
	 SCS Opposite-Spin Energy  =      -1.3178069965158334 [Eh]
	 SCS Correlation Energy    =      -1.4310894740839422 [Eh]
	 SCS Total Energy          =    -345.2906897046326549 [Eh]
	-----------------------------------------------------------

  Dipole Moment: [D]
     X:     1.3771      Y:    -0.9487      Z:     0.0001     Total:     1.6723

*** Psi4 exiting successfully. Buy a developer a beer!
