                               Psi4 1.4a3.dev225

  ==> Input File <==

--------------------------------------------------------------------------
#psi4
#
memory 32 gb

molecule  {
0 1
  O       -2.3109350    -1.1403470    -0.0000450
  O       -2.1116090     1.1175510    -0.0000760
  C        2.2339710     0.6185460     0.0000510
  C        2.7736950    -0.8069580     0.0000920
  C        0.7414440     0.7423990     0.0000070
  C       -0.1379540    -0.2713190     0.0000010
  C       -1.5863340     0.0145930    -0.0000450
  H        2.6208160     1.1641270     0.8715420
  H        2.6208650     1.1640950    -0.8714390
  H        3.8667590    -0.8011940     0.0001220
  H        2.4401730    -1.3549900    -0.8853120
  H        2.4401230    -1.3549580     0.8854960
  H        0.3393309     1.7343022    -0.0000234
  H        0.1592700    -1.3142900     0.0000290
  H       -3.2484020    -0.8568190    -0.0000760
units angstrom
no_reorient  #important for SAPT in psi4, default
symmetry c1  #important for SAPT in psi4, default
}

set PROPERTIES_ORIGIN ["COM"]
properties('MP2/aug-cc-pvtz', properties = ['dipole'])
--------------------------------------------------------------------------

    Molecular point group: c1
  Charge       = 0
  Multiplicity = 1
  Basis Set: AUG-CC-PVTZ
    Blend: AUG-CC-PVTZ
  Basis Set: (AUG-CC-PVTZ AUX)
    Blend: AUG-CC-PVTZ-JKFIT

    Orbital Energies [Eh]
    ---------------------

    Doubly Occupied:

       1A    -20.610458     2A    -20.540442     3A    -11.386133
       4A    -11.266237     5A    -11.247720     6A    -11.241032
       7A    -11.228868     8A     -1.452257     9A     -1.347713
      10A     -1.111233    11A     -1.023760    12A     -0.916759
      13A     -0.842196    14A     -0.741537    15A     -0.705137
      16A     -0.694666    17A     -0.631547    18A     -0.620226
      19A     -0.615809    20A     -0.601472    21A     -0.569431
      22A     -0.514999    23A     -0.512267    24A     -0.506417
      25A     -0.482558    26A     -0.450700    27A     -0.380413

  @DF-RHF Final Energy:  -343.86002598316986

   => Energetics <=

    Nuclear Repulsion Energy =            285.2651730065350648
    One-Electron Energy =               -1033.7664261155043732
    Two-Electron Energy =                 404.6412271257994462
    Total Energy =                       -343.8600259831698622
  Basis Set: (AUG-CC-PVTZ AUX)
    Blend: AUG-CC-PVTZ-RI
    Molecular point group: c1

    Geometry (in Angstrom), charge = 0, multiplicity = 1:

       Center              X                  Y                   Z               Mass
    ------------   -----------------  -----------------  -----------------  -----------------
         O           -2.199858539295    -1.156039879421    -0.000041780337    15.994914619570
         O           -2.000532539295     1.101858120579    -0.000072780337    15.994914619570
         C            2.345047460705     0.602853120579     0.000054219663    12.000000000000
         C            2.884771460705    -0.822650879421     0.000095219663    12.000000000000
         C            0.852520460705     0.726706120579     0.000010219663    12.000000000000
         C           -0.026877539295    -0.287011879421     0.000004219663    12.000000000000
         C           -1.475257539295    -0.001099879421    -0.000041780337    12.000000000000
         H            2.731892460705     1.148434120579     0.871545219663     1.007825032230
         H            2.731941460705     1.148402120579    -0.871435780337     1.007825032230
         H            3.977835460705    -0.816886879421     0.000125219663     1.007825032230
         H            2.551249460705    -1.370682879421    -0.885308780337     1.007825032230
         H            2.551199460705    -1.370650879421     0.885499219663     1.007825032230
         H            0.450407360705     1.718609320579    -0.000020180337     1.007825032230
         H            0.270346460705    -1.329982879421     0.000032219663     1.007825032230
         H           -3.137325539295    -0.872511879421    -0.000072780337     1.007825032230

  Basis Set: AUG-CC-PVTZ
    Blend: AUG-CC-PVTZ
  Basis Set: (AUG-CC-PVTZ AUX)
    Blend: AUG-CC-PVTZ-JKFIT
	 Reference Energy          =    -343.8600259831698622 [Eh]
	 Singles Energy            =      -0.0000000000000000 [Eh]
	 Same-Spin Energy          =      -0.3405792312273982 [Eh]
	 Opposite-Spin Energy      =      -1.0993982813434213 [Eh]
	 Correlation Energy        =      -1.4399775125708194 [Eh]
	 Total Energy              =    -345.3000034957406683 [Eh]

	 ================> DF-SCS-MP2 Energies <==================
	-----------------------------------------------------------
	 SCS Same-Spin Scale       =       0.3333333333333333 [-]
	 SCS Opposite-Spin Scale   =       1.2000000000000000 [-]
	 SCS Same-Spin Energy      =      -0.1135264104091327 [Eh]
	 SCS Opposite-Spin Energy  =      -1.3192779376121055 [Eh]
	 SCS Correlation Energy    =      -1.4328043480212382 [Eh]
	 SCS Total Energy          =    -345.2928303311911122 [Eh]
	-----------------------------------------------------------

  Dipole Moment: [D]
     X:     1.8090      Y:    -0.9441      Z:     0.0001     Total:     2.0405

*** Psi4 exiting successfully. Buy a developer a beer!
