                               Psi4 1.3.2 release

  ==> Input File <==

--------------------------------------------------------------------------
#psi4
#
memory 32 gb

molecule  {
0 1
  O        2.1793270    -1.1884030     0.0070830
  O        2.0147220     1.0703310     0.0037530
  C       -2.3333640     0.6373300    -0.0064140
  C       -2.8929490    -0.7786760    -0.0059160
  C       -0.8400089     0.7246752     0.0186968
  C        0.0222220    -0.2866530     0.0001530
  C        1.4732850    -0.0238670     0.0030520
  H       -2.7280597     1.1828593    -0.8739429
  H       -2.7141290     1.1896330     0.8630350
  H       -3.9853730    -0.7577330    -0.0084480
  H       -2.5694230    -1.3301270     0.8805270
  H       -2.5653610    -1.3323610    -0.8894680
  H       -0.4156920     1.7426300    -0.0033930
  H       -0.2913660    -1.3244520     0.0007550
  H        3.1211320    -0.9203150     0.0096400
units angstrom
no_reorient  #important for SAPT in psi4, default
symmetry c1  #important for SAPT in psi4, default
}

set PROPERTIES_ORIGIN ["COM"]
properties('MP2/aug-cc-pvtz', properties = ['dipole'])
--------------------------------------------------------------------------

    Molecular point group: c1
  Charge       = 0
  Multiplicity = 1
  Basis Set: AUG-CC-PVTZ
    Blend: AUG-CC-PVTZ
  Basis Set: (AUG-CC-PVTZ AUX)
    Blend: AUG-CC-PVTZ-JKFIT

    Orbital Energies [Eh]
    ---------------------

    Doubly Occupied:

       1A    -20.610944     2A    -20.540724     3A    -11.386193
       4A    -11.266711     5A    -11.247052     6A    -11.239495
       7A    -11.227945     8A     -1.453471     9A     -1.348528
      10A     -1.112607    11A     -1.025319    12A     -0.915210
      13A     -0.843612    14A     -0.737242    15A     -0.706634
      16A     -0.694174    17A     -0.631699    18A     -0.621005
      19A     -0.616864    20A     -0.600863    21A     -0.569413
      22A     -0.514623    23A     -0.513196    24A     -0.500643
      25A     -0.483006    26A     -0.451268    27A     -0.383357

  @DF-RHF Final Energy:  -343.85987519372742

   => Energetics <=

    Nuclear Repulsion Energy =            285.5907744482904604
    One-Electron Energy =               -1034.4176998639097746
    Two-Electron Energy =                 404.9670502218919523
    Total Energy =                       -343.8598751937274187
  Basis Set: (AUG-CC-PVTZ AUX)
    Blend: AUG-CC-PVTZ-RI
    Molecular point group: c1

    Geometry (in Angstrom), charge = 0, multiplicity = 1:

       Center              X                  Y                   Z               Mass
    ------------   -----------------  -----------------  -----------------  -----------------
         O            2.179423503926    -1.186635580569     0.004417188056    15.994914619570
         O            2.014818503926     1.072098419431     0.001087188056    15.994914619570
         C           -2.333267496074     0.639097419431    -0.009079811944    12.000000000000
         C           -2.892852496074    -0.776908580569    -0.008581811944    12.000000000000
         C           -0.839912396074     0.726442619431     0.016030988056    12.000000000000
         C            0.022318503926    -0.284885580569    -0.002512811944    12.000000000000
         C            1.473381503926    -0.022099580569     0.000386188056    12.000000000000
         H           -2.727963196074     1.184626719431    -0.876608711944     1.007825032230
         H           -2.714032496074     1.191400419431     0.860369188056     1.007825032230
         H           -3.985276496074    -0.755965580569    -0.011113811944     1.007825032230
         H           -2.569326496074    -1.328359580569     0.877861188056     1.007825032230
         H           -2.565264496074    -1.330593580569    -0.892133811944     1.007825032230
         H           -0.415595496074     1.744397419431    -0.006058811944     1.007825032230
         H           -0.291269496074    -1.322684580569    -0.001910811944     1.007825032230
         H            3.121228503926    -0.918547580569     0.006974188056     1.007825032230

  Basis Set: AUG-CC-PVTZ
    Blend: AUG-CC-PVTZ
  Basis Set: (AUG-CC-PVTZ AUX)
    Blend: AUG-CC-PVTZ-JKFIT
	 Reference Energy          =    -343.8598751937274187 [Eh]
	 Singles Energy            =      -0.0000000000000000 [Eh]
	 Same-Spin Energy          =      -0.3406049706668625 [Eh]
	 Opposite-Spin Energy      =      -1.0993200840498327 [Eh]
	 Correlation Energy        =      -1.4399250547166953 [Eh]
	 Total Energy              =    -345.2998002484441145 [Eh]

	 ================> DF-SCS-MP2 Energies <==================
	-----------------------------------------------------------
	 SCS Same-Spin Scale       =       0.3333333333333333 [-]
	 SCS Opposite-Spin Scale   =       1.2000000000000000 [-]
	 SCS Same-Spin Energy      =      -0.1135349902222875 [Eh]
	 SCS Opposite-Spin Energy  =      -1.3191841008597993 [Eh]
	 SCS Correlation Energy    =      -1.4327190910820868 [Eh]
	 SCS Total Energy          =    -345.2925942848095247 [Eh]
	-----------------------------------------------------------

  Dipole Moment: [D]
     X:    -1.7996      Y:    -0.9282      Z:    -0.0170     Total:     2.0249

*** Psi4 exiting successfully. Buy a developer a beer!
