                               Psi4 1.3.2 release

  ==> Input File <==

--------------------------------------------------------------------------
#psi4
#
memory 32 gb

molecule  {
0 1
  O        2.1793270    -1.1884030     0.0070830
  O        2.0147220     1.0703310     0.0037530
  C       -2.3324197     0.6243082    -0.0063957
  C       -2.8929490    -0.7786760    -0.0059160
  C       -0.8407100     0.7390270    -0.0031060
  C        0.0132385    -0.2941444     0.0001416
  C        1.4732850    -0.0238670     0.0030520
  H       -2.7101490     1.1874440    -0.8789970
  H       -2.7141290     1.1896330     0.8630350
  H       -3.9853730    -0.7577330    -0.0084480
  H       -2.5694230    -1.3301270     0.8805270
  H       -2.5653610    -1.3323610    -0.8894680
  H       -0.4156920     1.7426300    -0.0033930
  H       -0.2913660    -1.3244520     0.0007550
  H        3.1211320    -0.9203150     0.0096400
units angstrom
no_reorient  #important for SAPT in psi4, default
symmetry c1  #important for SAPT in psi4, default
}

set PROPERTIES_ORIGIN ["COM"]
properties('MP2/aug-cc-pvtz', properties = ['dipole'])
--------------------------------------------------------------------------

    Molecular point group: c1
  Charge       = 0
  Multiplicity = 1
  Basis Set: AUG-CC-PVTZ
    Blend: AUG-CC-PVTZ
  Basis Set: (AUG-CC-PVTZ AUX)
    Blend: AUG-CC-PVTZ-JKFIT

    Orbital Energies [Eh]
    ---------------------

    Doubly Occupied:

       1A    -20.610460     2A    -20.540539     3A    -11.386119
       4A    -11.267398     5A    -11.247464     6A    -11.240265
       7A    -11.228074     8A     -1.452883     9A     -1.348125
      10A     -1.111918    11A     -1.024261    12A     -0.915650
      13A     -0.840880    14A     -0.740338    15A     -0.704534
      16A     -0.694548    17A     -0.631046    18A     -0.620231
      19A     -0.616058    20A     -0.602918    21A     -0.569991
      22A     -0.512587    23A     -0.510780    24A     -0.508602
      25A     -0.482444    26A     -0.450399    27A     -0.380109

  @DF-RHF Final Energy:  -343.85979332596958

   => Energetics <=

    Nuclear Repulsion Energy =            285.4675280218596072
    One-Electron Energy =               -1034.1774008625638999
    Two-Electron Energy =                 404.8500795147347162
    Total Energy =                       -343.8597933259695765
  Basis Set: (AUG-CC-PVTZ AUX)
    Blend: AUG-CC-PVTZ-RI
    Molecular point group: c1

    Geometry (in Angstrom), charge = 0, multiplicity = 1:

       Center              X                  Y                   Z               Mass
    ------------   -----------------  -----------------  -----------------  -----------------
         O            2.180291376387    -1.185942781554     0.007082235271    15.994914619570
         O            2.015686376387     1.072791218446     0.003752235271    15.994914619570
         C           -2.331455323613     0.626768418446    -0.006396464729    12.000000000000
         C           -2.891984623613    -0.776215781554    -0.005916764729    12.000000000000
         C           -0.839745623613     0.741487218446    -0.003106764729    12.000000000000
         C            0.014202876387    -0.291684181554     0.000140835271    12.000000000000
         C            1.474249376387    -0.021406781554     0.003051235271    12.000000000000
         H           -2.709184623613     1.189904218446    -0.878997764729     1.007825032230
         H           -2.713164623613     1.192093218446     0.863034235271     1.007825032230
         H           -3.984408623613    -0.755272781554    -0.008448764729     1.007825032230
         H           -2.568458623613    -1.327666781554     0.880526235271     1.007825032230
         H           -2.564396623613    -1.329900781554    -0.889468764729     1.007825032230
         H           -0.414727623613     1.745090218446    -0.003393764729     1.007825032230
         H           -0.290401623613    -1.321991781554     0.000754235271     1.007825032230
         H            3.122096376387    -0.917854781554     0.009639235271     1.007825032230

  Basis Set: AUG-CC-PVTZ
    Blend: AUG-CC-PVTZ
  Basis Set: (AUG-CC-PVTZ AUX)
    Blend: AUG-CC-PVTZ-JKFIT
	 Reference Energy          =    -343.8597933259695765 [Eh]
	 Singles Energy            =      -0.0000000000000000 [Eh]
	 Same-Spin Energy          =      -0.3406888671436773 [Eh]
	 Opposite-Spin Energy      =      -1.0994362814204091 [Eh]
	 Correlation Energy        =      -1.4401251485640865 [Eh]
	 Total Energy              =    -345.2999184745336834 [Eh]

	 ================> DF-SCS-MP2 Energies <==================
	-----------------------------------------------------------
	 SCS Same-Spin Scale       =       0.3333333333333333 [-]
	 SCS Opposite-Spin Scale   =       1.2000000000000000 [-]
	 SCS Same-Spin Energy      =      -0.1135629557145591 [Eh]
	 SCS Opposite-Spin Energy  =      -1.3193235377044907 [Eh]
	 SCS Correlation Energy    =      -1.4328864934190499 [Eh]
	 SCS Total Energy          =    -345.2926798193886384 [Eh]
	-----------------------------------------------------------

  Dipole Moment: [D]
     X:    -1.8068      Y:    -0.9306      Z:    -0.0033     Total:     2.0324

*** Psi4 exiting successfully. Buy a developer a beer!
