                               Psi4 1.4a3.dev225

  ==> Input File <==

--------------------------------------------------------------------------
#psi4
#
memory 32 gb

molecule  {
0 1
  O       -2.3109350    -1.1403470    -0.0000450
  O       -2.1116090     1.1175510    -0.0000760
  C        2.2339710     0.6185460     0.0000510
  C        2.7736950    -0.8069580     0.0000920
  C        0.7414440     0.7423990     0.0000070
  C       -0.1379540    -0.2713190     0.0000010
  C       -1.5863340     0.0145930    -0.0000450
  H        2.6208160     1.1641270     0.8715420
  H        2.6208650     1.1640950    -0.8714390
  H        3.8667590    -0.8011940     0.0001220
  H        2.4401730    -1.3549900    -0.8853120
  H        2.4401230    -1.3549580     0.8854960
  H        0.3318170     1.7528370    -0.0000240
  H        0.1194863    -1.2840037     0.0000273
  H       -3.2484020    -0.8568190    -0.0000760
units angstrom
no_reorient  #important for SAPT in psi4, default
symmetry c1  #important for SAPT in psi4, default
}

set PROPERTIES_ORIGIN ["COM"]
properties('MP2/aug-cc-pvtz', properties = ['dipole'])
--------------------------------------------------------------------------

    Molecular point group: c1
  Charge       = 0
  Multiplicity = 1
  Basis Set: AUG-CC-PVTZ
    Blend: AUG-CC-PVTZ
  Basis Set: (AUG-CC-PVTZ AUX)
    Blend: AUG-CC-PVTZ-JKFIT

    Orbital Energies [Eh]
    ---------------------

    Doubly Occupied:

       1A    -20.610514     2A    -20.539737     3A    -11.384982
       4A    -11.268692     5A    -11.247804     6A    -11.236927
       7A    -11.228908     8A     -1.452122     9A     -1.347288
      10A     -1.111272    11A     -1.024825    12A     -0.916871
      13A     -0.841926    14A     -0.744205    15A     -0.705346
      16A     -0.693970    17A     -0.631516    18A     -0.620113
      19A     -0.615537    20A     -0.605177    21A     -0.570535
      22A     -0.514984    23A     -0.512443    24A     -0.505678
      25A     -0.482261    26A     -0.450138    27A     -0.380411

  @DF-RHF Final Energy:  -343.85951490719503

   => Energetics <=

    Nuclear Repulsion Energy =            285.3571895566927878
    One-Electron Energy =               -1033.9450452669741480
    Two-Electron Energy =                 404.7283408030863256
    Total Energy =                       -343.8595149071950345
  Basis Set: (AUG-CC-PVTZ AUX)
    Blend: AUG-CC-PVTZ-RI
    Molecular point group: c1

    Geometry (in Angstrom), charge = 0, multiplicity = 1:

       Center              X                  Y                   Z               Mass
    ------------   -----------------  -----------------  -----------------  -----------------
         O           -2.199382112031    -1.156531652854    -0.000041757169    15.994914619570
         O           -2.000056112031     1.101366347146    -0.000072757169    15.994914619570
         C            2.345523887969     0.602361347146     0.000054242831    12.000000000000
         C            2.885247887969    -0.823142652854     0.000095242831    12.000000000000
         C            0.852996887969     0.726214347146     0.000010242831    12.000000000000
         C           -0.026401112031    -0.287503652854     0.000004242831    12.000000000000
         C           -1.474781112031    -0.001591652854    -0.000041757169    12.000000000000
         H            2.732368887969     1.147942347146     0.871545242831     1.007825032230
         H            2.732417887969     1.147910347146    -0.871435757169     1.007825032230
         H            3.978311887969    -0.817378652854     0.000125242831     1.007825032230
         H            2.551725887969    -1.371174652854    -0.885308757169     1.007825032230
         H            2.551675887969    -1.371142652854     0.885499242831     1.007825032230
         H            0.443369887969     1.736652347146    -0.000020757169     1.007825032230
         H            0.231039187969    -1.300188352854     0.000030542831     1.007825032230
         H           -3.136849112031    -0.873003652854    -0.000072757169     1.007825032230

  Basis Set: AUG-CC-PVTZ
    Blend: AUG-CC-PVTZ
  Basis Set: (AUG-CC-PVTZ AUX)
    Blend: AUG-CC-PVTZ-JKFIT
	 Reference Energy          =    -343.8595149071950345 [Eh]
	 Singles Energy            =      -0.0000000000000000 [Eh]
	 Same-Spin Energy          =      -0.3404944083256473 [Eh]
	 Opposite-Spin Energy      =      -1.0992453220799048 [Eh]
	 Correlation Energy        =      -1.4397397304055519 [Eh]
	 Total Energy              =    -345.2992546376005976 [Eh]

	 ================> DF-SCS-MP2 Energies <==================
	-----------------------------------------------------------
	 SCS Same-Spin Scale       =       0.3333333333333333 [-]
	 SCS Opposite-Spin Scale   =       1.2000000000000000 [-]
	 SCS Same-Spin Energy      =      -0.1134981361085491 [Eh]
	 SCS Opposite-Spin Energy  =      -1.3190943864958857 [Eh]
	 SCS Correlation Energy    =      -1.4325925226044347 [Eh]
	 SCS Total Energy          =    -345.2921074297994437 [Eh]
	-----------------------------------------------------------

  Dipole Moment: [D]
     X:     1.8111      Y:    -0.9520      Z:     0.0001     Total:     2.0461

*** Psi4 exiting successfully. Buy a developer a beer!
