                               Psi4 1.3.2 release

  ==> Input File <==

--------------------------------------------------------------------------
#psi4
#
memory 32 gb

molecule  {
0 1
  O        2.1793270    -1.1884030     0.0070830
  O        2.0147220     1.0703310     0.0037530
  C       -2.3333640     0.6373300    -0.0064140
  C       -2.8929490    -0.7786760    -0.0059160
  C       -0.8407100     0.7390270    -0.0031060
  C        0.0866005    -0.3631732     0.0003961
  C        1.4732850    -0.0238670     0.0030520
  H       -2.7101490     1.1874440    -0.8789970
  H       -2.7141290     1.1896330     0.8630350
  H       -3.9853730    -0.7577330    -0.0084480
  H       -2.5694230    -1.3301270     0.8805270
  H       -2.5653610    -1.3323610    -0.8894680
  H       -0.4156920     1.7426300    -0.0033930
  H       -0.2913660    -1.3244520     0.0007550
  H        3.1211320    -0.9203150     0.0096400
units angstrom
no_reorient  #important for SAPT in psi4, default
symmetry c1  #important for SAPT in psi4, default
}

set PROPERTIES_ORIGIN ["COM"]
properties('MP2/aug-cc-pvtz', properties = ['dipole'])
--------------------------------------------------------------------------

    Molecular point group: c1
  Charge       = 0
  Multiplicity = 1
  Basis Set: AUG-CC-PVTZ
    Blend: AUG-CC-PVTZ
  Basis Set: (AUG-CC-PVTZ AUX)
    Blend: AUG-CC-PVTZ-JKFIT

    Orbital Energies [Eh]
    ---------------------

    Doubly Occupied:

       1A    -20.602589     2A    -20.535107     3A    -11.379168
       4A    -11.290198     5A    -11.252957     6A    -11.242024
       7A    -11.231797     8A     -1.448871     9A     -1.343290
      10A     -1.104804    11A     -1.026433    12A     -0.923210
      13A     -0.836900    14A     -0.747220    15A     -0.706291
      16A     -0.690434    17A     -0.634347    18A     -0.619020
      19A     -0.615745    20A     -0.591161    21A     -0.576414
      22A     -0.517898    23A     -0.516205    24A     -0.509191
      25A     -0.478896    26A     -0.450620    27A     -0.363042

  @DF-RHF Final Energy:  -343.84240365363723

   => Energetics <=

    Nuclear Repulsion Energy =            285.0085835671089853
    One-Electron Energy =               -1033.2343131100399205
    Two-Electron Energy =                 404.3833258892937010
    Total Energy =                       -343.8424036536372341
  Basis Set: (AUG-CC-PVTZ AUX)
    Blend: AUG-CC-PVTZ-RI
    Molecular point group: c1

    Geometry (in Angstrom), charge = 0, multiplicity = 1:

       Center              X                  Y                   Z               Mass
    ------------   -----------------  -----------------  -----------------  -----------------
         O            2.171605806188    -1.179225463410     0.007053906123    15.994914619570
         O            2.007000806188     1.079508536590     0.003723906123    15.994914619570
         C           -2.341085193812     0.646507536590    -0.006443093877    12.000000000000
         C           -2.900670193812    -0.769498463410    -0.005945093877    12.000000000000
         C           -0.848431193812     0.748204536590    -0.003135093877    12.000000000000
         C            0.078879306188    -0.353995663410     0.000367006123    12.000000000000
         C            1.465563806188    -0.014689463410     0.003022906123    12.000000000000
         H           -2.717870193812     1.196621536590    -0.879026093877     1.007825032230
         H           -2.721850193812     1.198810536590     0.863005906123     1.007825032230
         H           -3.993094193812    -0.748555463410    -0.008477093877     1.007825032230
         H           -2.577144193812    -1.320949463410     0.880497906123     1.007825032230
         H           -2.573082193812    -1.323183463410    -0.889497093877     1.007825032230
         H           -0.423413193812     1.751807536590    -0.003422093877     1.007825032230
         H           -0.299087193812    -1.315274463410     0.000725906123     1.007825032230
         H            3.113410806188    -0.911137463410     0.009610906123     1.007825032230

  Basis Set: AUG-CC-PVTZ
    Blend: AUG-CC-PVTZ
  Basis Set: (AUG-CC-PVTZ AUX)
    Blend: AUG-CC-PVTZ-JKFIT
	 Reference Energy          =    -343.8424036536372341 [Eh]
	 Singles Energy            =      -0.0000000000000000 [Eh]
	 Same-Spin Energy          =      -0.3420374365813370 [Eh]
	 Opposite-Spin Energy      =      -1.1019602333418161 [Eh]
	 Correlation Energy        =      -1.4439976699231531 [Eh]
	 Total Energy              =    -345.2864013235603693 [Eh]

	 ================> DF-SCS-MP2 Energies <==================
	-----------------------------------------------------------
	 SCS Same-Spin Scale       =       0.3333333333333333 [-]
	 SCS Opposite-Spin Scale   =       1.2000000000000000 [-]
	 SCS Same-Spin Energy      =      -0.1140124788604457 [Eh]
	 SCS Opposite-Spin Energy  =      -1.3223522800101792 [Eh]
	 SCS Correlation Energy    =      -1.4363647588706250 [Eh]
	 SCS Total Energy          =    -345.2787684125078727 [Eh]
	-----------------------------------------------------------

  Dipole Moment: [D]
     X:    -2.0878      Y:    -0.8913      Z:    -0.0040     Total:     2.2701

*** Psi4 exiting successfully. Buy a developer a beer!
