                               Psi4 1.3.2 release

  ==> Input File <==

--------------------------------------------------------------------------
#psi4
#
memory 32 gb

molecule  {
0 1
  O        2.1793270    -1.1884030     0.0070830
  O        2.0147220     1.0703310     0.0037530
  C       -2.3333640     0.6373300    -0.0064140
  C       -2.8929490    -0.7786760    -0.0059160
  C       -0.8043886     0.7685182    -0.0030608
  C        0.0222220    -0.2866530     0.0001530
  C        1.4732850    -0.0238670     0.0030520
  H       -2.7101490     1.1874440    -0.8789970
  H       -2.7141290     1.1896330     0.8630350
  H       -3.9853730    -0.7577330    -0.0084480
  H       -2.5694230    -1.3301270     0.8805270
  H       -2.5653610    -1.3323610    -0.8894680
  H       -0.4156920     1.7426300    -0.0033930
  H       -0.2549564    -1.3347638     0.0008508
  H        3.1211320    -0.9203150     0.0096400
units angstrom
no_reorient  #important for SAPT in psi4, default
symmetry c1  #important for SAPT in psi4, default
}

set PROPERTIES_ORIGIN ["COM"]
properties('MP2/aug-cc-pvtz', properties = ['dipole'])
--------------------------------------------------------------------------

    Molecular point group: c1
  Charge       = 0
  Multiplicity = 1
  Basis Set: AUG-CC-PVTZ
    Blend: AUG-CC-PVTZ
  Basis Set: (AUG-CC-PVTZ AUX)
    Blend: AUG-CC-PVTZ-JKFIT

    Orbital Energies [Eh]
    ---------------------

    Doubly Occupied:

       1A    -20.610039     2A    -20.539057     3A    -11.383635
       4A    -11.267124     5A    -11.248341     6A    -11.241461
       7A    -11.228448     8A     -1.452563     9A     -1.347506
      10A     -1.107389    11A     -1.023689    12A     -0.915094
      13A     -0.840107    14A     -0.746542    15A     -0.702709
      16A     -0.695604    17A     -0.629703    18A     -0.619805
      19A     -0.612186    20A     -0.606712    21A     -0.567900
      22A     -0.513485    23A     -0.513000    24A     -0.503721
      25A     -0.482371    26A     -0.449026    27A     -0.381817

  @DF-RHF Final Energy:  -343.85809605203792

   => Energetics <=

    Nuclear Repulsion Energy =            285.2473358090147713
    One-Electron Energy =               -1033.7528024453656599
    Two-Electron Energy =                 404.6473705843129665
    Total Energy =                       -343.8580960520379222
  Basis Set: (AUG-CC-PVTZ AUX)
    Blend: AUG-CC-PVTZ-RI
    Molecular point group: c1

    Geometry (in Angstrom), charge = 0, multiplicity = 1:

       Center              X                  Y                   Z               Mass
    ------------   -----------------  -----------------  -----------------  -----------------
         O            2.174604141113    -1.191836294713     0.007076676688    15.994914619570
         O            2.009999141113     1.066897705287     0.003746676688    15.994914619570
         C           -2.338086858887     0.633896705287    -0.006420323312    12.000000000000
         C           -2.897671858887    -0.782109294713    -0.005922323312    12.000000000000
         C           -0.809111458887     0.765084905287    -0.003067123312    12.000000000000
         C            0.017499141113    -0.290086294713     0.000146676688    12.000000000000
         C            1.468562141113    -0.027300294713     0.003045676688    12.000000000000
         H           -2.714871858887     1.184010705287    -0.879003323312     1.007825032230
         H           -2.718851858887     1.186199705287     0.863028676688     1.007825032230
         H           -3.990095858887    -0.761166294713    -0.008454323312     1.007825032230
         H           -2.574145858887    -1.333560294713     0.880520676688     1.007825032230
         H           -2.570083858887    -1.335794294713    -0.889474323312     1.007825032230
         H           -0.420414858887     1.739196705287    -0.003399323312     1.007825032230
         H           -0.259679258887    -1.338197094713     0.000844476688     1.007825032230
         H            3.116409141113    -0.923748294713     0.009633676688     1.007825032230

  Basis Set: AUG-CC-PVTZ
    Blend: AUG-CC-PVTZ
  Basis Set: (AUG-CC-PVTZ AUX)
    Blend: AUG-CC-PVTZ-JKFIT
	 Reference Energy          =    -343.8580960520379222 [Eh]
	 Singles Energy            =      -0.0000000000000000 [Eh]
	 Same-Spin Energy          =      -0.3402363426790717 [Eh]
	 Opposite-Spin Energy      =      -1.0990481775458640 [Eh]
	 Correlation Energy        =      -1.4392845202249358 [Eh]
	 Total Energy              =    -345.2973805722628526 [Eh]

	 ================> DF-SCS-MP2 Energies <==================
	-----------------------------------------------------------
	 SCS Same-Spin Scale       =       0.3333333333333333 [-]
	 SCS Opposite-Spin Scale   =       1.2000000000000000 [-]
	 SCS Same-Spin Energy      =      -0.1134121142263572 [Eh]
	 SCS Opposite-Spin Energy  =      -1.3188578130550368 [Eh]
	 SCS Correlation Energy    =      -1.4322699272813941 [Eh]
	 SCS Total Energy          =    -345.2903659793192901 [Eh]
	-----------------------------------------------------------

  Dipole Moment: [D]
     X:    -1.7683      Y:    -0.9361      Z:    -0.0032     Total:     2.0008

*** Psi4 exiting successfully. Buy a developer a beer!
