                               Psi4 1.3.2 release

  ==> Input File <==

--------------------------------------------------------------------------
#psi4
#
memory 32 gb

molecule  {
0 1
  O        2.1793270    -1.1884030     0.0070830
  O        2.0147220     1.0703310     0.0037530
  C       -2.3333640     0.6373300    -0.0064140
  C       -2.8929490    -0.7786760    -0.0059160
  C       -0.8407100     0.7390270    -0.0031060
  C        0.0222220    -0.2866530     0.0001530
  C        1.6700835     0.0117730     0.0034452
  H       -2.7101490     1.1874440    -0.8789970
  H       -2.7141290     1.1896330     0.8630350
  H       -3.9853730    -0.7577330    -0.0084480
  H       -2.5694230    -1.3301270     0.8805270
  H       -2.5653610    -1.3323610    -0.8894680
  H       -0.4156920     1.7426300    -0.0033930
  H       -0.2913660    -1.3244520     0.0007550
  H        3.1211320    -0.9203150     0.0096400
units angstrom
no_reorient  #important for SAPT in psi4, default
symmetry c1  #important for SAPT in psi4, default
}

set PROPERTIES_ORIGIN ["COM"]
properties('MP2/aug-cc-pvtz', properties = ['dipole'])
--------------------------------------------------------------------------

    Molecular point group: c1
  Charge       = 0
  Multiplicity = 1
  Basis Set: AUG-CC-PVTZ
    Blend: AUG-CC-PVTZ
  Basis Set: (AUG-CC-PVTZ AUX)
    Blend: AUG-CC-PVTZ-JKFIT

    Orbital Energies [Eh]
    ---------------------

    Doubly Occupied:

       1A    -20.636206     2A    -20.564302     3A    -11.387823
       4A    -11.238741     5A    -11.231806     6A    -11.227416
       7A    -11.216833     8A     -1.515491     9A     -1.433439
      10A     -1.085887    11A     -0.990915    12A     -0.891290
      13A     -0.837577    14A     -0.747074    15A     -0.720357
      16A     -0.708272    17A     -0.670742    18A     -0.632914
      19A     -0.615085    20A     -0.581608    21A     -0.577239
      22A     -0.526193    23A     -0.502187    24A     -0.501486
      25A     -0.491425    26A     -0.421576    27A     -0.360342

  @DF-RHF Final Energy:  -343.81834579489589

   => Energetics <=

    Nuclear Repulsion Energy =            285.6485283331313099
    One-Electron Energy =               -1034.3052995138009464
    Two-Electron Energy =                 404.8384253857738031
    Total Energy =                       -343.8183457948958903
  Basis Set: (AUG-CC-PVTZ AUX)
    Blend: AUG-CC-PVTZ-RI
    Molecular point group: c1

    Geometry (in Angstrom), charge = 0, multiplicity = 1:

       Center              X                  Y                   Z               Mass
    ------------   -----------------  -----------------  -----------------  -----------------
         O            2.155723733079    -1.192677634505     0.007035903562    15.994914619570
         O            1.991118733079     1.066056365495     0.003705903562    15.994914619570
         C           -2.356967266921     0.633055365495    -0.006461096438    12.000000000000
         C           -2.916552266921    -0.782950634505    -0.005963096438    12.000000000000
         C           -0.864313266921     0.734752365495    -0.003153096438    12.000000000000
         C           -0.001381266921    -0.290927634505     0.000105903562    12.000000000000
         C            1.646480233079     0.007498365495     0.003398103562    12.000000000000
         H           -2.733752266921     1.183169365495    -0.879044096438     1.007825032230
         H           -2.737732266921     1.185358365495     0.862987903562     1.007825032230
         H           -4.008976266921    -0.762007634505    -0.008495096438     1.007825032230
         H           -2.593026266921    -1.334401634505     0.880479903562     1.007825032230
         H           -2.588964266921    -1.336635634505    -0.889515096438     1.007825032230
         H           -0.439295266921     1.738355365495    -0.003440096438     1.007825032230
         H           -0.314969266921    -1.328726634505     0.000707903562     1.007825032230
         H            3.097528733079    -0.924589634505     0.009592903562     1.007825032230

  Basis Set: AUG-CC-PVTZ
    Blend: AUG-CC-PVTZ
  Basis Set: (AUG-CC-PVTZ AUX)
    Blend: AUG-CC-PVTZ-JKFIT
	 Reference Energy          =    -343.8183457948958903 [Eh]
	 Singles Energy            =      -0.0000000000000000 [Eh]
	 Same-Spin Energy          =      -0.3391482732905371 [Eh]
	 Opposite-Spin Energy      =      -1.0968205898538312 [Eh]
	 Correlation Energy        =      -1.4359688631443683 [Eh]
	 Total Energy              =    -345.2543146580402436 [Eh]

	 ================> DF-SCS-MP2 Energies <==================
	-----------------------------------------------------------
	 SCS Same-Spin Scale       =       0.3333333333333333 [-]
	 SCS Opposite-Spin Scale   =       1.2000000000000000 [-]
	 SCS Same-Spin Energy      =      -0.1130494244301790 [Eh]
	 SCS Opposite-Spin Energy  =      -1.3161847078245974 [Eh]
	 SCS Correlation Energy    =      -1.4292341322547764 [Eh]
	 SCS Total Energy          =    -345.2475799271506389 [Eh]
	-----------------------------------------------------------

  Dipole Moment: [D]
     X:    -0.0444      Y:    -0.8887      Z:     0.0010     Total:     0.8898

*** Psi4 exiting successfully. Buy a developer a beer!
