                               Psi4 1.3.2 release

  ==> Input File <==

--------------------------------------------------------------------------
#psi4
#
memory 32 gb

molecule  {
0 1
  O        2.1793270    -1.1884030     0.0070830
  O        2.0147220     1.0703310     0.0037530
  C       -2.3333640     0.6373300    -0.0064140
  C       -2.8929490    -0.7786760    -0.0059160
  C       -0.8759801     0.7082861    -0.0031472
  C        0.0222220    -0.2866530     0.0001530
  C        1.4732850    -0.0238670     0.0030520
  H       -2.7101490     1.1874440    -0.8789970
  H       -2.7141290     1.1896330     0.8630350
  H       -3.9853730    -0.7577330    -0.0084480
  H       -2.5694230    -1.3301270     0.8805270
  H       -2.5653610    -1.3323610    -0.8894680
  H       -0.4156920     1.7426300    -0.0033930
  H       -0.3273935    -1.3128758     0.0006585
  H        3.1211320    -0.9203150     0.0096400
units angstrom
no_reorient  #important for SAPT in psi4, default
symmetry c1  #important for SAPT in psi4, default
}

set PROPERTIES_ORIGIN ["COM"]
properties('MP2/aug-cc-pvtz', properties = ['dipole'])
--------------------------------------------------------------------------

    Molecular point group: c1
  Charge       = 0
  Multiplicity = 1
  Basis Set: AUG-CC-PVTZ
    Blend: AUG-CC-PVTZ
  Basis Set: (AUG-CC-PVTZ AUX)
    Blend: AUG-CC-PVTZ-JKFIT

    Orbital Energies [Eh]
    ---------------------

    Doubly Occupied:

       1A    -20.610907     2A    -20.541119     3A    -11.387554
       4A    -11.268683     5A    -11.246346     6A    -11.239769
       7A    -11.228719     8A     -1.453444     9A     -1.348603
      10A     -1.116291    11A     -1.024730    12A     -0.918041
      13A     -0.845088    14A     -0.732430    15A     -0.708116
      16A     -0.692888    17A     -0.634559    18A     -0.621458
      19A     -0.621201    20A     -0.596443    21A     -0.570346
      22A     -0.518601    23A     -0.516969    24A     -0.494623
      25A     -0.482873    26A     -0.452221    27A     -0.379565

  @DF-RHF Final Energy:  -343.85654799844627

   => Energetics <=

    Nuclear Repulsion Energy =            285.6859898796780044
    One-Electron Energy =               -1034.5818999825887659
    Two-Electron Energy =                 405.0393621044644874
    Total Energy =                       -343.8565479984462741
  Basis Set: (AUG-CC-PVTZ AUX)
    Blend: AUG-CC-PVTZ-RI
    Molecular point group: c1

    Geometry (in Angstrom), charge = 0, multiplicity = 1:

       Center              X                  Y                   Z               Mass
    ------------   -----------------  -----------------  -----------------  -----------------
         O            2.183920275937    -1.184832707402     0.007088976287    15.994914619570
         O            2.019315275937     1.073901292598     0.003758976287    15.994914619570
         C           -2.328770724063     0.640900292598    -0.006408023713    12.000000000000
         C           -2.888355724063    -0.775105707402    -0.005910023713    12.000000000000
         C           -0.871386824063     0.711856392598    -0.003141223713    12.000000000000
         C            0.026815275937    -0.283082707402     0.000158976287    12.000000000000
         C            1.477878275937    -0.020296707402     0.003057976287    12.000000000000
         H           -2.705555724063     1.191014292598    -0.878991023713     1.007825032230
         H           -2.709535724063     1.193203292598     0.863040976287     1.007825032230
         H           -3.980779724063    -0.754162707402    -0.008442023713     1.007825032230
         H           -2.564829724063    -1.326556707402     0.880532976287     1.007825032230
         H           -2.560767724063    -1.328790707402    -0.889462023713     1.007825032230
         H           -0.411098724063     1.746200292598    -0.003387023713     1.007825032230
         H           -0.322800224063    -1.309305507402     0.000664476287     1.007825032230
         H            3.125725275937    -0.916744707402     0.009645976287     1.007825032230

  Basis Set: AUG-CC-PVTZ
    Blend: AUG-CC-PVTZ
  Basis Set: (AUG-CC-PVTZ AUX)
    Blend: AUG-CC-PVTZ-JKFIT
	 Reference Energy          =    -343.8565479984462741 [Eh]
	 Singles Energy            =      -0.0000000000000000 [Eh]
	 Same-Spin Energy          =      -0.3412224715328720 [Eh]
	 Opposite-Spin Energy      =      -1.1001523646912410 [Eh]
	 Correlation Energy        =      -1.4413748362241130 [Eh]
	 Total Energy              =    -345.2979228346703735 [Eh]

	 ================> DF-SCS-MP2 Energies <==================
	-----------------------------------------------------------
	 SCS Same-Spin Scale       =       0.3333333333333333 [-]
	 SCS Opposite-Spin Scale   =       1.2000000000000000 [-]
	 SCS Same-Spin Energy      =      -0.1137408238442907 [Eh]
	 SCS Opposite-Spin Energy  =      -1.3201828376294891 [Eh]
	 SCS Correlation Energy    =      -1.4339236614737798 [Eh]
	 SCS Total Energy          =    -345.2904716599200583 [Eh]
	-----------------------------------------------------------

  Dipole Moment: [D]
     X:    -1.8685      Y:    -0.9175      Z:    -0.0034     Total:     2.0816

*** Psi4 exiting successfully. Buy a developer a beer!
