                               Psi4 1.3.2 release

  ==> Input File <==

--------------------------------------------------------------------------
#psi4
#
memory 32 gb

molecule  {
0 1
  O        2.1588956    -1.2005479     0.0070215
  O        1.9955433     1.0796137     0.0036704
  C       -2.3333640     0.6373300    -0.0064140
  C       -2.8929490    -0.7786760    -0.0059160
  C       -0.8407100     0.7390270    -0.0031060
  C        0.0222220    -0.2866530     0.0001530
  C        1.4732850    -0.0238670     0.0030520
  H       -2.7101490     1.1874440    -0.8789970
  H       -2.7141290     1.1896330     0.8630350
  H       -3.9853730    -0.7577330    -0.0084480
  H       -2.5694230    -1.3301270     0.8805270
  H       -2.5653610    -1.3323610    -0.8894680
  H       -0.4156920     1.7426300    -0.0033930
  H       -0.2913660    -1.3244520     0.0007550
  H        3.1211320    -0.9203150     0.0096400
units angstrom
no_reorient  #important for SAPT in psi4, default
symmetry c1  #important for SAPT in psi4, default
}

set PROPERTIES_ORIGIN ["COM"]
properties('MP2/aug-cc-pvtz', properties = ['dipole'])
--------------------------------------------------------------------------

    Molecular point group: c1
  Charge       = 0
  Multiplicity = 1
  Basis Set: AUG-CC-PVTZ
    Blend: AUG-CC-PVTZ
  Basis Set: (AUG-CC-PVTZ AUX)
    Blend: AUG-CC-PVTZ-JKFIT

    Orbital Energies [Eh]
    ---------------------

    Doubly Occupied:

       1A    -20.615274     2A    -20.541497     3A    -11.385767
       4A    -11.265987     5A    -11.246330     6A    -11.238261
       7A    -11.227784     8A     -1.451017     9A     -1.349658
      10A     -1.109900    11A     -1.022685    12A     -0.914643
      13A     -0.839544    14A     -0.737070    15A     -0.703206
      16A     -0.694927    17A     -0.631478    18A     -0.621031
      19A     -0.616350    20A     -0.598535    21A     -0.569338
      22A     -0.514132    23A     -0.511273    24A     -0.503774
      25A     -0.484231    26A     -0.451014    27A     -0.379159

  @DF-RHF Final Energy:  -343.85741292549659

   => Energetics <=

    Nuclear Repulsion Energy =            285.5179286532900278
    One-Electron Energy =               -1034.3029540809538958
    Two-Electron Energy =                 404.9276125021672783
    Total Energy =                       -343.8574129254965897
  Basis Set: (AUG-CC-PVTZ AUX)
    Blend: AUG-CC-PVTZ-RI
    Molecular point group: c1

    Geometry (in Angstrom), charge = 0, multiplicity = 1:

       Center              X                  Y                   Z               Mass
    ------------   -----------------  -----------------  -----------------  -----------------
         O            2.165228059604    -1.200090409088     0.007044599431    15.994914619570
         O            2.001875759604     1.080071190912     0.003693499431    15.994914619570
         C           -2.327031540396     0.637787490912    -0.006390900569    12.000000000000
         C           -2.886616540396    -0.778218509088    -0.005892900569    12.000000000000
         C           -0.834377540396     0.739484490912    -0.003082900569    12.000000000000
         C            0.028554459604    -0.286195509088     0.000176099431    12.000000000000
         C            1.479617459604    -0.023409509088     0.003075099431    12.000000000000
         H           -2.703816540396     1.187901490912    -0.878973900569     1.007825032230
         H           -2.707796540396     1.190090490912     0.863058099431     1.007825032230
         H           -3.979040540396    -0.757275509088    -0.008424900569     1.007825032230
         H           -2.563090540396    -1.329669509088     0.880550099431     1.007825032230
         H           -2.559028540396    -1.331903509088    -0.889444900569     1.007825032230
         H           -0.409359540396     1.743087490912    -0.003369900569     1.007825032230
         H           -0.285033540396    -1.323994509088     0.000778099431     1.007825032230
         H            3.127464459604    -0.919857509088     0.009663099431     1.007825032230

  Basis Set: AUG-CC-PVTZ
    Blend: AUG-CC-PVTZ
  Basis Set: (AUG-CC-PVTZ AUX)
    Blend: AUG-CC-PVTZ-JKFIT
	 Reference Energy          =    -343.8574129254965897 [Eh]
	 Singles Energy            =      -0.0000000000000000 [Eh]
	 Same-Spin Energy          =      -0.3411554355724000 [Eh]
	 Opposite-Spin Energy      =      -1.1005270900653072 [Eh]
	 Correlation Energy        =      -1.4416825256377073 [Eh]
	 Total Energy              =    -345.2990954511342920 [Eh]

	 ================> DF-SCS-MP2 Energies <==================
	-----------------------------------------------------------
	 SCS Same-Spin Scale       =       0.3333333333333333 [-]
	 SCS Opposite-Spin Scale   =       1.2000000000000000 [-]
	 SCS Same-Spin Energy      =      -0.1137184785241333 [Eh]
	 SCS Opposite-Spin Energy  =      -1.3206325080783687 [Eh]
	 SCS Correlation Energy    =      -1.4343509866025022 [Eh]
	 SCS Total Energy          =    -345.2917639120990998 [Eh]
	-----------------------------------------------------------

  Dipole Moment: [D]
     X:    -1.6886      Y:    -0.9422      Z:    -0.0029     Total:     1.9337

*** Psi4 exiting successfully. Buy a developer a beer!
