                               Psi4 1.3.2 release

  ==> Input File <==

--------------------------------------------------------------------------
#psi4
#
memory 32 gb

molecule  {
0 1
  O        2.1793270    -1.1884030     0.0070830
  O        2.0147220     1.0703310     0.0037530
  C       -2.3333640     0.6373300    -0.0064140
  C       -2.8929490    -0.7786760    -0.0059160
  C       -0.8407100     0.7390270    -0.0031060
  C        0.1509790    -0.4396935     0.0006393
  C        1.4732850    -0.0238670     0.0030520
  H       -2.7101490     1.1874440    -0.8789970
  H       -2.7141290     1.1896330     0.8630350
  H       -3.9853730    -0.7577330    -0.0084480
  H       -2.5694230    -1.3301270     0.8805270
  H       -2.5653610    -1.3323610    -0.8894680
  H       -0.4156920     1.7426300    -0.0033930
  H       -0.2913660    -1.3244520     0.0007550
  H        3.1211320    -0.9203150     0.0096400
units angstrom
no_reorient  #important for SAPT in psi4, default
symmetry c1  #important for SAPT in psi4, default
}

set PROPERTIES_ORIGIN ["COM"]
properties('MP2/aug-cc-pvtz', properties = ['dipole'])
--------------------------------------------------------------------------

    Molecular point group: c1
  Charge       = 0
  Multiplicity = 1
  Basis Set: AUG-CC-PVTZ
    Blend: AUG-CC-PVTZ
  Basis Set: (AUG-CC-PVTZ AUX)
    Blend: AUG-CC-PVTZ-JKFIT

    Orbital Energies [Eh]
    ---------------------

    Doubly Occupied:

       1A    -20.593690     2A    -20.529118     3A    -11.371778
       4A    -11.310580     5A    -11.259204     6A    -11.242851
       7A    -11.235312     8A     -1.444329     9A     -1.337757
      10A     -1.102779    11A     -1.029755    12A     -0.929410
      13A     -0.832431    14A     -0.757288    15A     -0.706348
      16A     -0.686018    17A     -0.638062    18A     -0.620675
      19A     -0.616639    20A     -0.590379    21A     -0.567978
      22A     -0.523677    23A     -0.521652    24A     -0.503326
      25A     -0.474612    26A     -0.447348    27A     -0.349007

  @DF-RHF Final Energy:  -343.80216570288775

   => Energetics <=

    Nuclear Repulsion Energy =            284.6887077523866765
    One-Electron Energy =               -1032.5377435238478938
    Two-Electron Energy =                 404.0468700685734689
    Total Energy =                       -343.8021657028877485
  Basis Set: (AUG-CC-PVTZ AUX)
    Blend: AUG-CC-PVTZ-RI
    Molecular point group: c1

    Geometry (in Angstrom), charge = 0, multiplicity = 1:

       Center              X                  Y                   Z               Mass
    ------------   -----------------  -----------------  -----------------  -----------------
         O            2.163884434464    -1.170047839193     0.007024737416    15.994914619570
         O            1.999279434464     1.088686160807     0.003694737416    15.994914619570
         C           -2.348806565536     0.655685160807    -0.006472262584    12.000000000000
         C           -2.908391565536    -0.760320839193    -0.005974262584    12.000000000000
         C           -0.856152565536     0.757382160807    -0.003164262584    12.000000000000
         C            0.135536434464    -0.421338339193     0.000581037416    12.000000000000
         C            1.457842434464    -0.005511839193     0.002993737416    12.000000000000
         H           -2.725591565536     1.205799160807    -0.879055262584     1.007825032230
         H           -2.729571565536     1.207988160807     0.862976737416     1.007825032230
         H           -4.000815565536    -0.739377839193    -0.008506262584     1.007825032230
         H           -2.584865565536    -1.311771839193     0.880468737416     1.007825032230
         H           -2.580803565536    -1.314005839193    -0.889526262584     1.007825032230
         H           -0.431134565536     1.760985160807    -0.003451262584     1.007825032230
         H           -0.306808565536    -1.306096839193     0.000696737416     1.007825032230
         H            3.105689434464    -0.901959839193     0.009581737416     1.007825032230

  Basis Set: AUG-CC-PVTZ
    Blend: AUG-CC-PVTZ
  Basis Set: (AUG-CC-PVTZ AUX)
    Blend: AUG-CC-PVTZ-JKFIT
	 Reference Energy          =    -343.8021657028877485 [Eh]
	 Singles Energy            =      -0.0000000000000000 [Eh]
	 Same-Spin Energy          =      -0.3438498556975151 [Eh]
	 Opposite-Spin Energy      =      -1.1050562146047092 [Eh]
	 Correlation Energy        =      -1.4489060703022243 [Eh]
	 Total Energy              =    -345.2510717731899490 [Eh]

	 ================> DF-SCS-MP2 Energies <==================
	-----------------------------------------------------------
	 SCS Same-Spin Scale       =       0.3333333333333333 [-]
	 SCS Opposite-Spin Scale   =       1.2000000000000000 [-]
	 SCS Same-Spin Energy      =      -0.1146166185658384 [Eh]
	 SCS Opposite-Spin Energy  =      -1.3260674575256510 [Eh]
	 SCS Correlation Energy    =      -1.4406840760914894 [Eh]
	 SCS Total Energy          =    -345.2428497789792345 [Eh]
	-----------------------------------------------------------

  Dipole Moment: [D]
     X:    -2.2894      Y:    -0.8846      Z:    -0.0044     Total:     2.4544

*** Psi4 exiting successfully. Buy a developer a beer!
