                               Psi4 1.4a3.dev225

  ==> Input File <==

--------------------------------------------------------------------------
#psi4
#
memory 32 gb

molecule  {
0 1
  O       -2.3109350    -1.1403470    -0.0000450
  O       -2.1116090     1.1175510    -0.0000760
  C        2.2339710     0.6185460     0.0000510
  C        2.7736950    -0.8069580     0.0000920
  C        0.7414440     0.7423990     0.0000070
  C       -0.1379540    -0.2713190     0.0000010
  C       -1.5863340     0.0145930    -0.0000450
  H        2.6208160     1.1641270     0.8715420
  H        2.6208650     1.1640950    -0.8714390
  H        3.8667590    -0.8011940     0.0001220
  H        2.4401730    -1.3549900    -0.8853120
  H        2.4401230    -1.3549580     0.8854960
  H        0.3243031     1.7713718    -0.0000246
  H        0.1592700    -1.3142900     0.0000290
  H       -3.2484020    -0.8568190    -0.0000760
units angstrom
no_reorient  #important for SAPT in psi4, default
symmetry c1  #important for SAPT in psi4, default
}

set PROPERTIES_ORIGIN ["COM"]
properties('MP2/aug-cc-pvtz', properties = ['dipole'])
--------------------------------------------------------------------------

    Molecular point group: c1
  Charge       = 0
  Multiplicity = 1
  Basis Set: AUG-CC-PVTZ
    Blend: AUG-CC-PVTZ
  Basis Set: (AUG-CC-PVTZ AUX)
    Blend: AUG-CC-PVTZ-JKFIT

    Orbital Energies [Eh]
    ---------------------

    Doubly Occupied:

       1A    -20.610454     2A    -20.540355     3A    -11.386112
       4A    -11.270475     5A    -11.247960     6A    -11.241168
       7A    -11.229021     8A     -1.452226     9A     -1.347651
      10A     -1.110195    11A     -1.023663    12A     -0.915393
      13A     -0.842080    14A     -0.736642    15A     -0.704799
      16A     -0.693367    17A     -0.631615    18A     -0.620227
      19A     -0.615585    20A     -0.599779    21A     -0.569212
      22A     -0.515074    23A     -0.512442    24A     -0.503054
      25A     -0.482515    26A     -0.450717    27A     -0.380482

  @DF-RHF Final Energy:  -343.85923472518004

   => Energetics <=

    Nuclear Repulsion Energy =            285.0866997225097066
    One-Electron Energy =               -1033.4273426520044268
    Two-Electron Energy =                 404.4814082043146755
    Total Energy =                       -343.8592347251800447
  Basis Set: (AUG-CC-PVTZ AUX)
    Blend: AUG-CC-PVTZ-RI
    Molecular point group: c1

    Geometry (in Angstrom), charge = 0, multiplicity = 1:

       Center              X                  Y                   Z               Mass
    ------------   -----------------  -----------------  -----------------  -----------------
         O           -2.199707164730    -1.156413280357    -0.000041768249    15.994914619570
         O           -2.000381164730     1.101484719643    -0.000072768249    15.994914619570
         C            2.345198835270     0.602479719643     0.000054231751    12.000000000000
         C            2.884922835270    -0.823024280357     0.000095231751    12.000000000000
         C            0.852671835270     0.726332719643     0.000010231751    12.000000000000
         C           -0.026726164730    -0.287385280357     0.000004231751    12.000000000000
         C           -1.475106164730    -0.001473280357    -0.000041768249    12.000000000000
         H            2.732043835270     1.148060719643     0.871545231751     1.007825032230
         H            2.732092835270     1.148028719643    -0.871435768249     1.007825032230
         H            3.977986835270    -0.817260280357     0.000125231751     1.007825032230
         H            2.551400835270    -1.371056280357    -0.885308768249     1.007825032230
         H            2.551350835270    -1.371024280357     0.885499231751     1.007825032230
         H            0.435530935270     1.755305519643    -0.000021368249     1.007825032230
         H            0.270497835270    -1.330356280357     0.000032231751     1.007825032230
         H           -3.137174164730    -0.872885280357    -0.000072768249     1.007825032230

  Basis Set: AUG-CC-PVTZ
    Blend: AUG-CC-PVTZ
  Basis Set: (AUG-CC-PVTZ AUX)
    Blend: AUG-CC-PVTZ-JKFIT
	 Reference Energy          =    -343.8592347251800447 [Eh]
	 Singles Energy            =      -0.0000000000000000 [Eh]
	 Same-Spin Energy          =      -0.3407004571502566 [Eh]
	 Opposite-Spin Energy      =      -1.0997262098213607 [Eh]
	 Correlation Energy        =      -1.4404266669716173 [Eh]
	 Total Energy              =    -345.2996613921516769 [Eh]

	 ================> DF-SCS-MP2 Energies <==================
	-----------------------------------------------------------
	 SCS Same-Spin Scale       =       0.3333333333333333 [-]
	 SCS Opposite-Spin Scale   =       1.2000000000000000 [-]
	 SCS Same-Spin Energy      =      -0.1135668190500855 [Eh]
	 SCS Opposite-Spin Energy  =      -1.3196714517856327 [Eh]
	 SCS Correlation Energy    =      -1.4332382708357183 [Eh]
	 SCS Total Energy          =    -345.2924729960157606 [Eh]
	-----------------------------------------------------------

  Dipole Moment: [D]
     X:     1.8120      Y:    -0.9487      Z:     0.0001     Total:     2.0454

*** Psi4 exiting successfully. Buy a developer a beer!
