                               Psi4 1.3.2 release

  ==> Input File <==

--------------------------------------------------------------------------
#psi4
#
memory 32 gb

molecule  {
0 1
  O        2.1793270    -1.1884030     0.0070830
  O        2.0147220     1.0703310     0.0037530
  C       -2.3333640     0.6373300    -0.0064140
  C       -2.8929490    -0.7786760    -0.0059160
  C       -0.8407100     0.7390270    -0.0031060
  C        0.0222220    -0.2866530     0.0001530
  C        1.4133056    -0.0624148     0.0029224
  H       -2.7101490     1.1874440    -0.8789970
  H       -2.7141290     1.1896330     0.8630350
  H       -3.9853730    -0.7577330    -0.0084480
  H       -2.5694230    -1.3301270     0.8805270
  H       -2.5653610    -1.3323610    -0.8894680
  H       -0.4156920     1.7426300    -0.0033930
  H       -0.2913660    -1.3244520     0.0007550
  H        3.1338716    -0.9699728     0.0097571
units angstrom
no_reorient  #important for SAPT in psi4, default
symmetry c1  #important for SAPT in psi4, default
}

set PROPERTIES_ORIGIN ["COM"]
properties('MP2/aug-cc-pvtz', properties = ['dipole'])
--------------------------------------------------------------------------

    Molecular point group: c1
  Charge       = 0
  Multiplicity = 1
  Basis Set: AUG-CC-PVTZ
    Blend: AUG-CC-PVTZ
  Basis Set: (AUG-CC-PVTZ AUX)
    Blend: AUG-CC-PVTZ-JKFIT

    Orbital Energies [Eh]
    ---------------------

    Doubly Occupied:

       1A    -20.607743     2A    -20.526289     3A    -11.386967
       4A    -11.278926     5A    -11.252864     6A    -11.240465
       7A    -11.232421     8A     -1.438481     9A     -1.308562
      10A     -1.121131    11A     -1.036948    12A     -0.927675
      13A     -0.850512    14A     -0.745370    15A     -0.714235
      16A     -0.679810    17A     -0.635454    18A     -0.612325
      19A     -0.611815    20A     -0.603464    21A     -0.557701
      22A     -0.519298    23A     -0.517928    24A     -0.509448
      25A     -0.465753    26A     -0.440204    27A     -0.382575

  @DF-RHF Final Energy:  -343.84611928686184

   => Energetics <=

    Nuclear Repulsion Energy =            285.3113619944960533
    One-Electron Energy =               -1033.9062280107339120
    Two-Electron Energy =                 404.7487467293759664
    Total Energy =                       -343.8461192868618355
  Basis Set: (AUG-CC-PVTZ AUX)
    Blend: AUG-CC-PVTZ-RI
    Molecular point group: c1

    Geometry (in Angstrom), charge = 0, multiplicity = 1:

       Center              X                  Y                   Z               Mass
    ------------   -----------------  -----------------  -----------------  -----------------
         O            2.186392608664    -1.183279562128     0.007097427142    15.994914619570
         O            2.021787608664     1.075454437872     0.003767427142    15.994914619570
         C           -2.326298391336     0.642453437872    -0.006399572858    12.000000000000
         C           -2.885883391336    -0.773552562128    -0.005901572858    12.000000000000
         C           -0.833644391336     0.744150437872    -0.003091572858    12.000000000000
         C            0.029287608664    -0.281529562128     0.000167427142    12.000000000000
         C            1.420371208664    -0.057291362128     0.002936827142    12.000000000000
         H           -2.703083391336     1.192567437872    -0.878982572858     1.007825032230
         H           -2.707063391336     1.194756437872     0.863049427142     1.007825032230
         H           -3.978307391336    -0.752609562128    -0.008433572858     1.007825032230
         H           -2.562357391336    -1.325003562128     0.880541427142     1.007825032230
         H           -2.558295391336    -1.327237562128    -0.889453572858     1.007825032230
         H           -0.408626391336     1.747753437872    -0.003378572858     1.007825032230
         H           -0.284300391336    -1.319328562128     0.000769427142     1.007825032230
         H            3.140937208664    -0.964849362128     0.009771527142     1.007825032230

  Basis Set: AUG-CC-PVTZ
    Blend: AUG-CC-PVTZ
  Basis Set: (AUG-CC-PVTZ AUX)
    Blend: AUG-CC-PVTZ-JKFIT
	 Reference Energy          =    -343.8461192868618355 [Eh]
	 Singles Energy            =      -0.0000000000000000 [Eh]
	 Same-Spin Energy          =      -0.3421675098095512 [Eh]
	 Opposite-Spin Energy      =      -1.1020318462928262 [Eh]
	 Correlation Energy        =      -1.4441993561023776 [Eh]
	 Total Energy              =    -345.2903186429642233 [Eh]

	 ================> DF-SCS-MP2 Energies <==================
	-----------------------------------------------------------
	 SCS Same-Spin Scale       =       0.3333333333333333 [-]
	 SCS Opposite-Spin Scale   =       1.2000000000000000 [-]
	 SCS Same-Spin Energy      =      -0.1140558366031837 [Eh]
	 SCS Opposite-Spin Energy  =      -1.3224382155513914 [Eh]
	 SCS Correlation Energy    =      -1.4364940521545750 [Eh]
	 SCS Total Energy          =    -345.2826133390163932 [Eh]
	-----------------------------------------------------------

  Dipole Moment: [D]
     X:    -2.2734      Y:    -1.1644      Z:    -0.0040     Total:     2.5543

*** Psi4 exiting successfully. Buy a developer a beer!
