                               Psi4 1.3.2 release

  ==> Input File <==

--------------------------------------------------------------------------
#psi4
#
memory 32 gb

molecule  {
0 1
  C       -1.1499320    -0.2219830     0.0000330
  C       -0.5541220     1.0203030    -0.0000280
  N        0.7974550     0.7643250     0.0000120
  C        0.9604690    -0.5917710     0.0000050
  N       -0.2047340    -1.2229890    -0.0000280
  H        1.5354100     1.4569660     0.0000450
  H       -2.2072180    -0.4498140     0.0000570
  H       -0.9513210     2.0245130    -0.0000550
  H        1.9355930    -1.0603130     0.0000020
units angstrom
no_reorient  #important for SAPT in psi4, default
symmetry c1  #important for SAPT in psi4, default
}

set PROPERTIES_ORIGIN ["COM"]
properties('MP2/aug-cc-pvtz', properties = ['dipole'])
--------------------------------------------------------------------------

    Molecular point group: c1
  Charge       = 0
  Multiplicity = 1
  Basis Set: AUG-CC-PVTZ
    Blend: AUG-CC-PVTZ
  Basis Set: (AUG-CC-PVTZ AUX)
    Blend: AUG-CC-PVTZ-JKFIT

    Orbital Energies [Eh]
    ---------------------

    Doubly Occupied:

       1A    -15.626239     2A    -15.548623     3A    -11.299924
       4A    -11.263557     5A    -11.245912     6A     -1.339344
       7A     -1.166095     8A     -1.005512     9A     -0.828777
      10A     -0.799070    11A     -0.757435    12A     -0.608271
      13A     -0.603187    14A     -0.598013    15A     -0.569062
      16A     -0.439168    17A     -0.401117    18A     -0.319830

  @DF-RHF Final Energy:  -224.89585758177708

   => Energetics <=

    Nuclear Repulsion Energy =            162.8340674411881253
    One-Electron Energy =                -626.6215773491549044
    Two-Electron Energy =                 238.8916523261896714
    Total Energy =                       -224.8958575817770793
  Basis Set: (AUG-CC-PVTZ AUX)
    Blend: AUG-CC-PVTZ-RI
    Molecular point group: c1

    Geometry (in Angstrom), charge = 0, multiplicity = 1:

       Center              X                  Y                   Z               Mass
    ------------   -----------------  -----------------  -----------------  -----------------
         C           -1.145402216174    -0.193214430693     0.000033803466    12.000000000000
         C           -0.549592216174     1.049071569307    -0.000027196534    12.000000000000
         N            0.801984783826     0.793093569307     0.000012803466    14.003074004430
         C            0.964998783826    -0.563002430693     0.000005803466    12.000000000000
         N           -0.200204216174    -1.194220430693    -0.000027196534    14.003074004430
         H            1.539939783826     1.485734569307     0.000045803466     1.007825032230
         H           -2.202688216174    -0.421045430693     0.000057803466     1.007825032230
         H           -0.946791216174     2.053281569307    -0.000054196534     1.007825032230
         H            1.940122783826    -1.031544430693     0.000002803466     1.007825032230

  Basis Set: AUG-CC-PVTZ
    Blend: AUG-CC-PVTZ
  Basis Set: (AUG-CC-PVTZ AUX)
    Blend: AUG-CC-PVTZ-JKFIT
	 Reference Energy          =    -224.8958575817770793 [Eh]
	 Singles Energy            =      -0.0000000000000000 [Eh]
	 Same-Spin Energy          =      -0.2437926905300787 [Eh]
	 Opposite-Spin Energy      =      -0.7422095790008015 [Eh]
	 Correlation Energy        =      -0.9860022695308802 [Eh]
	 Total Energy              =    -225.8818598513079507 [Eh]

	 ================> DF-SCS-MP2 Energies <==================
	-----------------------------------------------------------
	 SCS Same-Spin Scale       =       0.3333333333333333 [-]
	 SCS Opposite-Spin Scale   =       1.2000000000000000 [-]
	 SCS Same-Spin Energy      =      -0.0812642301766929 [Eh]
	 SCS Opposite-Spin Energy  =      -0.8906514948009618 [Eh]
	 SCS Correlation Energy    =      -0.9719157249776548 [Eh]
	 SCS Total Energy          =    -225.8677733067547422 [Eh]
	-----------------------------------------------------------

  Dipole Moment: [D]
     X:     1.7773      Y:     3.4037      Z:     0.0001     Total:     3.8397

*** Psi4 exiting successfully. Buy a developer a beer!
