                               Psi4 1.4a3.dev225

  ==> Input File <==

--------------------------------------------------------------------------
#psi4
#
memory 32 gb

molecule  {
0 1
  C        1.1497620    -0.2229380     0.0000050
  C        0.5551260     1.0198140    -0.0000050
  N       -0.7967650     0.7650270     0.0000030
  C       -0.9609660    -0.5909490     0.0000020
  N        0.2035270    -1.2232130    -0.0000060
  H       -1.5338930     1.4585310    -0.0000040
  H        2.2067410    -0.4521160     0.0000090
  H        0.9344596     1.9773508    -0.0000060
  H       -1.9365860    -1.0585140     0.0000030
units angstrom
no_reorient  #important for SAPT in psi4, default
symmetry c1  #important for SAPT in psi4, default
}

set PROPERTIES_ORIGIN ["COM"]
properties('MP2/aug-cc-pvtz', properties = ['dipole'])
--------------------------------------------------------------------------

    Molecular point group: c1
  Charge       = 0
  Multiplicity = 1
  Basis Set: AUG-CC-PVTZ
    Blend: AUG-CC-PVTZ
  Basis Set: (AUG-CC-PVTZ AUX)
    Blend: AUG-CC-PVTZ-JKFIT

    Orbital Energies [Eh]
    ---------------------

    Doubly Occupied:

       1A    -15.625864     2A    -15.548355     3A    -11.299778
       4A    -11.257946     5A    -11.245716     6A     -1.339097
       7A     -1.166004     8A     -1.007520     9A     -0.829441
      10A     -0.801247    11A     -0.762595    12A     -0.611828
      13A     -0.607751    14A     -0.597752    15A     -0.568926
      16A     -0.439162    17A     -0.400885    18A     -0.319807

  @DF-RHF Final Energy:  -224.89499447384168

   => Energetics <=

    Nuclear Repulsion Energy =            163.0752852620142050
    One-Electron Energy =                -627.0812124139271191
    Two-Electron Energy =                 239.1109326780712649
    Total Energy =                       -224.8949944738416775
  Basis Set: (AUG-CC-PVTZ AUX)
    Blend: AUG-CC-PVTZ-RI
    Molecular point group: c1

    Geometry (in Angstrom), charge = 0, multiplicity = 1:

       Center              X                  Y                   Z               Mass
    ------------   -----------------  -----------------  -----------------  -----------------
         C            1.145528252592    -0.193475232608     0.000005235070    12.000000000000
         C            0.550892252592     1.049276767392    -0.000004764930    12.000000000000
         N           -0.800998747408     0.794489767392     0.000003235070    14.003074004430
         C           -0.965199747408    -0.561486232608     0.000002235070    12.000000000000
         N            0.199293252592    -1.193750232608    -0.000005764930    14.003074004430
         H           -1.538126747408     1.487993767392    -0.000003764930     1.007825032230
         H            2.202507252592    -0.422653232608     0.000009235070     1.007825032230
         H            0.930225852592     2.006813567392    -0.000005764930     1.007825032230
         H           -1.940819747408    -1.029051232608     0.000003235070     1.007825032230

  Basis Set: AUG-CC-PVTZ
    Blend: AUG-CC-PVTZ
  Basis Set: (AUG-CC-PVTZ AUX)
    Blend: AUG-CC-PVTZ-JKFIT
	 Reference Energy          =    -224.8949944738416775 [Eh]
	 Singles Energy            =      -0.0000000000000000 [Eh]
	 Same-Spin Energy          =      -0.2436992078017001 [Eh]
	 Opposite-Spin Energy      =      -0.7419370734489135 [Eh]
	 Correlation Energy        =      -0.9856362812506135 [Eh]
	 Total Energy              =    -225.8806307550922838 [Eh]

	 ================> DF-SCS-MP2 Energies <==================
	-----------------------------------------------------------
	 SCS Same-Spin Scale       =       0.3333333333333333 [-]
	 SCS Opposite-Spin Scale   =       1.2000000000000000 [-]
	 SCS Same-Spin Energy      =      -0.0812330692672334 [Eh]
	 SCS Opposite-Spin Energy  =      -0.8903244881386961 [Eh]
	 SCS Correlation Energy    =      -0.9715575574059295 [Eh]
	 SCS Total Energy          =    -225.8665520312476076 [Eh]
	-----------------------------------------------------------

  Dipole Moment: [D]
     X:    -1.7744      Y:     3.4036      Z:     0.0000     Total:     3.8384

*** Psi4 exiting successfully. Buy a developer a beer!
