                               Psi4 1.3.2 release

  ==> Input File <==

--------------------------------------------------------------------------
#psi4
#
memory 32 gb

molecule  {
0 1
  C       -1.1499320    -0.2219830     0.0000330
  C       -0.5541220     1.0203030    -0.0000280
  N        0.7974550     0.7643250     0.0000120
  C        0.9604690    -0.5917710     0.0000050
  N       -0.2047340    -1.2229890    -0.0000280
  H        1.6083239     1.5254026     0.0000483
  H       -2.2072180    -0.4498140     0.0000570
  H       -0.9513210     2.0245130    -0.0000550
  H        1.9355930    -1.0603130     0.0000020
units angstrom
no_reorient  #important for SAPT in psi4, default
symmetry c1  #important for SAPT in psi4, default
}

set PROPERTIES_ORIGIN ["COM"]
properties('MP2/aug-cc-pvtz', properties = ['dipole'])
--------------------------------------------------------------------------

    Molecular point group: c1
  Charge       = 0
  Multiplicity = 1
  Basis Set: AUG-CC-PVTZ
    Blend: AUG-CC-PVTZ
  Basis Set: (AUG-CC-PVTZ AUX)
    Blend: AUG-CC-PVTZ-JKFIT

    Orbital Energies [Eh]
    ---------------------

    Doubly Occupied:

       1A    -15.634079     2A    -15.547929     3A    -11.299095
       4A    -11.262981     5A    -11.245207     6A     -1.335152
       7A     -1.157886     8A     -1.003617     9A     -0.809593
      10A     -0.797824    11A     -0.749930    12A     -0.602934
      13A     -0.598261    14A     -0.596512    15A     -0.568159
      16A     -0.438069    17A     -0.399476    18A     -0.318952

  @DF-RHF Final Energy:  -224.88490803185903

   => Energetics <=

    Nuclear Repulsion Energy =            162.3129748732330313
    One-Electron Energy =                -625.6644558942724643
    Two-Electron Energy =                 238.4665729891804062
    Total Energy =                       -224.8849080318590268
  Basis Set: (AUG-CC-PVTZ AUX)
    Blend: AUG-CC-PVTZ-RI
    Molecular point group: c1

    Geometry (in Angstrom), charge = 0, multiplicity = 1:

       Center              X                  Y                   Z               Mass
    ------------   -----------------  -----------------  -----------------  -----------------
         C           -1.146482275106    -0.194228168281     0.000033754583    12.000000000000
         C           -0.550672275106     1.048057831719    -0.000027245417    12.000000000000
         N            0.800904724894     0.792079831719     0.000012754583    14.003074004430
         C            0.963918724894    -0.564016168281     0.000005754583    12.000000000000
         N           -0.201284275106    -1.195234168281    -0.000027245417    14.003074004430
         H            1.611773624894     1.553157431719     0.000049054583     1.007825032230
         H           -2.203768275106    -0.422059168281     0.000057754583     1.007825032230
         H           -0.947871275106     2.052267831719    -0.000054245417     1.007825032230
         H            1.939042724894    -1.032558168281     0.000002754583     1.007825032230

  Basis Set: AUG-CC-PVTZ
    Blend: AUG-CC-PVTZ
  Basis Set: (AUG-CC-PVTZ AUX)
    Blend: AUG-CC-PVTZ-JKFIT
	 Reference Energy          =    -224.8849080318590268 [Eh]
	 Singles Energy            =      -0.0000000000000000 [Eh]
	 Same-Spin Energy          =      -0.2446454553231150 [Eh]
	 Opposite-Spin Energy      =      -0.7442115666623386 [Eh]
	 Correlation Energy        =      -0.9888570219854536 [Eh]
	 Total Energy              =    -225.8737650538444939 [Eh]

	 ================> DF-SCS-MP2 Energies <==================
	-----------------------------------------------------------
	 SCS Same-Spin Scale       =       0.3333333333333333 [-]
	 SCS Opposite-Spin Scale   =       1.2000000000000000 [-]
	 SCS Same-Spin Energy      =      -0.0815484851077050 [Eh]
	 SCS Opposite-Spin Energy  =      -0.8930538799948062 [Eh]
	 SCS Correlation Energy    =      -0.9746023651025112 [Eh]
	 SCS Total Energy          =    -225.8595103969615252 [Eh]
	-----------------------------------------------------------

  Dipole Moment: [D]
     X:     1.8594      Y:     3.4809      Z:     0.0001     Total:     3.9464

*** Psi4 exiting successfully. Buy a developer a beer!
