                               Psi4 1.4a3.dev225

  ==> Input File <==

--------------------------------------------------------------------------
#psi4
#
memory 32 gb

molecule  {
0 1
  C        1.1497620    -0.2229380     0.0000050
  C        0.5551260     1.0198140    -0.0000050
  N       -0.7967650     0.7650270     0.0000030
  C       -0.9609660    -0.5909490     0.0000020
  N        0.2035270    -1.2232130    -0.0000060
  H       -1.5338930     1.4585310    -0.0000040
  H        2.2067410    -0.4521160     0.0000090
  H        0.9528750     2.0238360    -0.0000060
  H       -1.9816754    -1.0801230     0.0000030
units angstrom
no_reorient  #important for SAPT in psi4, default
symmetry c1  #important for SAPT in psi4, default
}

set PROPERTIES_ORIGIN ["COM"]
properties('MP2/aug-cc-pvtz', properties = ['dipole'])
--------------------------------------------------------------------------

    Molecular point group: c1
  Charge       = 0
  Multiplicity = 1
  Basis Set: AUG-CC-PVTZ
    Blend: AUG-CC-PVTZ
  Basis Set: (AUG-CC-PVTZ AUX)
    Blend: AUG-CC-PVTZ-JKFIT

    Orbital Energies [Eh]
    ---------------------

    Doubly Occupied:

       1A    -15.626577     2A    -15.548946     3A    -11.305299
       4A    -11.263720     5A    -11.246237     6A     -1.339513
       7A     -1.166399     8A     -1.003815     9A     -0.827019
      10A     -0.798541    11A     -0.751245    12A     -0.607231
      13A     -0.600030    14A     -0.598269    15A     -0.565877
      16A     -0.439171    17A     -0.401395    18A     -0.319987

  @DF-RHF Final Energy:  -224.89333866458657

   => Energetics <=

    Nuclear Repulsion Energy =            162.6007805396007484
    One-Electron Energy =                -626.1697014534080381
    Two-Electron Energy =                 238.6755822492207244
    Total Energy =                       -224.8933386645865653
  Basis Set: (AUG-CC-PVTZ AUX)
    Blend: AUG-CC-PVTZ-RI
    Molecular point group: c1

    Geometry (in Angstrom), charge = 0, multiplicity = 1:

       Center              X                  Y                   Z               Mass
    ------------   -----------------  -----------------  -----------------  -----------------
         C            1.145923369188    -0.193843718755     0.000005235070    12.000000000000
         C            0.551287369188     1.048908281245    -0.000004764930    12.000000000000
         N           -0.800603630812     0.794121281245     0.000003235070    14.003074004430
         C           -0.964804630812    -0.561854718755     0.000002235070    12.000000000000
         N            0.199688369188    -1.194118718755    -0.000005764930    14.003074004430
         H           -1.537731630812     1.487625281245    -0.000003764930     1.007825032230
         H            2.202902369188    -0.423021718755     0.000009235070     1.007825032230
         H            0.949036369188     2.052930281245    -0.000005764930     1.007825032230
         H           -1.985514030812    -1.051028718755     0.000003235070     1.007825032230

  Basis Set: AUG-CC-PVTZ
    Blend: AUG-CC-PVTZ
  Basis Set: (AUG-CC-PVTZ AUX)
    Blend: AUG-CC-PVTZ-JKFIT
	 Reference Energy          =    -224.8933386645865653 [Eh]
	 Singles Energy            =      -0.0000000000000000 [Eh]
	 Same-Spin Energy          =      -0.2438913922424814 [Eh]
	 Opposite-Spin Energy      =      -0.7425522556432077 [Eh]
	 Correlation Energy        =      -0.9864436478856891 [Eh]
	 Total Energy              =    -225.8797823124722584 [Eh]

	 ================> DF-SCS-MP2 Energies <==================
	-----------------------------------------------------------
	 SCS Same-Spin Scale       =       0.3333333333333333 [-]
	 SCS Opposite-Spin Scale   =       1.2000000000000000 [-]
	 SCS Same-Spin Energy      =      -0.0812971307474938 [Eh]
	 SCS Opposite-Spin Energy  =      -0.8910627067718492 [Eh]
	 SCS Correlation Energy    =      -0.9723598375193430 [Eh]
	 SCS Total Energy          =    -225.8656985021059143 [Eh]
	-----------------------------------------------------------

  Dipole Moment: [D]
     X:    -1.7698      Y:     3.3999      Z:     0.0000     Total:     3.8330

*** Psi4 exiting successfully. Buy a developer a beer!
