                               Psi4 1.3.2 release

  ==> Input File <==

--------------------------------------------------------------------------
#psi4
#
memory 32 gb

molecule  {
0 1
  C       -1.1499320    -0.2219830     0.0000330
  C       -0.5541220     1.0203030    -0.0000280
  N        0.7974550     0.7643250     0.0000120
  C        0.9604690    -0.5917710     0.0000050
  N       -0.2047340    -1.2229890    -0.0000280
  H        1.6812377     1.5938392     0.0000515
  H       -2.2072180    -0.4498140     0.0000570
  H       -0.9513210     2.0245130    -0.0000550
  H        1.9355930    -1.0603130     0.0000020
units angstrom
no_reorient  #important for SAPT in psi4, default
symmetry c1  #important for SAPT in psi4, default
}

set PROPERTIES_ORIGIN ["COM"]
properties('MP2/aug-cc-pvtz', properties = ['dipole'])
--------------------------------------------------------------------------

    Molecular point group: c1
  Charge       = 0
  Multiplicity = 1
  Basis Set: AUG-CC-PVTZ
    Blend: AUG-CC-PVTZ
  Basis Set: (AUG-CC-PVTZ AUX)
    Blend: AUG-CC-PVTZ-JKFIT

    Orbital Energies [Eh]
    ---------------------

    Doubly Occupied:

       1A    -15.640250     2A    -15.547362     3A    -11.298381
       4A    -11.262495     5A    -11.244597     6A     -1.332160
       7A     -1.151802     8A     -1.002077     9A     -0.797461
      10A     -0.796104    11A     -0.739934    12A     -0.601900
      13A     -0.595189    14A     -0.587484    15A     -0.567149
      16A     -0.436987    17A     -0.398043    18A     -0.318135

  @DF-RHF Final Energy:  -224.86491699725778

   => Energetics <=

    Nuclear Repulsion Energy =            161.8572645266396250
    One-Electron Energy =                -624.8093429703073980
    Two-Electron Energy =                 238.0871614464100219
    Total Energy =                       -224.8649169972577795
  Basis Set: (AUG-CC-PVTZ AUX)
    Blend: AUG-CC-PVTZ-RI
    Molecular point group: c1

    Geometry (in Angstrom), charge = 0, multiplicity = 1:

       Center              X                  Y                   Z               Mass
    ------------   -----------------  -----------------  -----------------  -----------------
         C           -1.147562332558    -0.195241905870     0.000033707183    12.000000000000
         C           -0.551752332558     1.047044094130    -0.000027292817    12.000000000000
         N            0.799824667442     0.791066094130     0.000012707183    14.003074004430
         C            0.962838667442    -0.565029905870     0.000005707183    12.000000000000
         N           -0.202364332558    -1.196247905870    -0.000027292817    14.003074004430
         H            1.683607367442     1.620580294130     0.000052207183     1.007825032230
         H           -2.204848332558    -0.423072905870     0.000057707183     1.007825032230
         H           -0.948951332558     2.051254094130    -0.000054292817     1.007825032230
         H            1.937962667442    -1.033571905870     0.000002707183     1.007825032230

  Basis Set: AUG-CC-PVTZ
    Blend: AUG-CC-PVTZ
  Basis Set: (AUG-CC-PVTZ AUX)
    Blend: AUG-CC-PVTZ-JKFIT
	 Reference Energy          =    -224.8649169972577795 [Eh]
	 Singles Energy            =      -0.0000000000000000 [Eh]
	 Same-Spin Energy          =      -0.2455442495571212 [Eh]
	 Opposite-Spin Energy      =      -0.7465664815736768 [Eh]
	 Correlation Energy        =      -0.9921107311307980 [Eh]
	 Total Energy              =    -225.8570277283885730 [Eh]

	 ================> DF-SCS-MP2 Energies <==================
	-----------------------------------------------------------
	 SCS Same-Spin Scale       =       0.3333333333333333 [-]
	 SCS Opposite-Spin Scale   =       1.2000000000000000 [-]
	 SCS Same-Spin Energy      =      -0.0818480831857071 [Eh]
	 SCS Opposite-Spin Energy  =      -0.8958797778884121 [Eh]
	 SCS Correlation Energy    =      -0.9777278610741191 [Eh]
	 SCS Total Energy          =    -225.8426448583319086 [Eh]
	-----------------------------------------------------------

  Dipole Moment: [D]
     X:     1.9365      Y:     3.5520      Z:     0.0001     Total:     4.0456

*** Psi4 exiting successfully. Buy a developer a beer!
