                               Psi4 1.3.2 release

  ==> Input File <==

--------------------------------------------------------------------------
#psi4
#
memory 32 gb

molecule  {
0 1
  C       -1.1499320    -0.2219830     0.0000330
  C       -0.5541220     1.0203030    -0.0000280
  N        0.7738127     0.7612735     0.0000114
  C        0.9604690    -0.5917710     0.0000050
  N       -0.2047340    -1.2229890    -0.0000280
  H        1.5354100     1.4569660     0.0000450
  H       -2.2072180    -0.4498140     0.0000570
  H       -0.9513210     2.0245130    -0.0000550
  H        1.9355930    -1.0603130     0.0000020
units angstrom
no_reorient  #important for SAPT in psi4, default
symmetry c1  #important for SAPT in psi4, default
}

set PROPERTIES_ORIGIN ["COM"]
properties('MP2/aug-cc-pvtz', properties = ['dipole'])
--------------------------------------------------------------------------

    Molecular point group: c1
  Charge       = 0
  Multiplicity = 1
  Basis Set: AUG-CC-PVTZ
    Blend: AUG-CC-PVTZ
  Basis Set: (AUG-CC-PVTZ AUX)
    Blend: AUG-CC-PVTZ-JKFIT

    Orbital Energies [Eh]
    ---------------------

    Doubly Occupied:

       1A    -15.627910     2A    -15.548298     3A    -11.297752
       4A    -11.262122     5A    -11.243756     6A     -1.343750
       7A     -1.165440     8A     -1.006830     9A     -0.823220
      10A     -0.801192    11A     -0.758147    12A     -0.611426
      13A     -0.601131    14A     -0.600957    15A     -0.567845
      16A     -0.438453    17A     -0.401043    18A     -0.318511

  @DF-RHF Final Energy:  -224.89458281689699

   => Energetics <=

    Nuclear Repulsion Energy =            163.2254270187163172
    One-Electron Energy =                -627.4044575603130625
    Two-Electron Energy =                 239.2844477246997315
    Total Energy =                       -224.8945828168969854
  Basis Set: (AUG-CC-PVTZ AUX)
    Blend: AUG-CC-PVTZ-RI
    Molecular point group: c1

    Geometry (in Angstrom), charge = 0, multiplicity = 1:

       Center              X                  Y                   Z               Mass
    ------------   -----------------  -----------------  -----------------  -----------------
         C           -1.140536294750    -0.192586388615     0.000033926954    12.000000000000
         C           -0.544726294750     1.049699611385    -0.000027073046    12.000000000000
         N            0.783208405250     0.790670111385     0.000012326954    14.003074004430
         C            0.969864705250    -0.562374388615     0.000005926954    12.000000000000
         N           -0.195338294750    -1.193592388615    -0.000027073046    14.003074004430
         H            1.544805705250     1.486362611385     0.000045926954     1.007825032230
         H           -2.197822294750    -0.420417388615     0.000057926954     1.007825032230
         H           -0.941925294750     2.053909611385    -0.000054073046     1.007825032230
         H            1.944988705250    -1.030916388615     0.000002926954     1.007825032230

  Basis Set: AUG-CC-PVTZ
    Blend: AUG-CC-PVTZ
  Basis Set: (AUG-CC-PVTZ AUX)
    Blend: AUG-CC-PVTZ-JKFIT
	 Reference Energy          =    -224.8945828168969854 [Eh]
	 Singles Energy            =      -0.0000000000000000 [Eh]
	 Same-Spin Energy          =      -0.2441702624325858 [Eh]
	 Opposite-Spin Energy      =      -0.7423711247749814 [Eh]
	 Correlation Energy        =      -0.9865413872075671 [Eh]
	 Total Energy              =    -225.8811242041045659 [Eh]

	 ================> DF-SCS-MP2 Energies <==================
	-----------------------------------------------------------
	 SCS Same-Spin Scale       =       0.3333333333333333 [-]
	 SCS Opposite-Spin Scale   =       1.2000000000000000 [-]
	 SCS Same-Spin Energy      =      -0.0813900874775286 [Eh]
	 SCS Opposite-Spin Energy  =      -0.8908453497299776 [Eh]
	 SCS Correlation Energy    =      -0.9722354372075063 [Eh]
	 SCS Total Energy          =    -225.8668182541044871 [Eh]
	-----------------------------------------------------------

  Dipole Moment: [D]
     X:     1.8205      Y:     3.4453      Z:     0.0001     Total:     3.8967

*** Psi4 exiting successfully. Buy a developer a beer!
