                               Psi4 1.4a3.dev225

  ==> Input File <==

--------------------------------------------------------------------------
#psi4
#
memory 32 gb

molecule  {
0 1
  C        1.1497620    -0.2229380     0.0000050
  C        0.5551260     1.0198140    -0.0000050
  N       -0.7967650     0.7650270     0.0000030
  C       -0.9609660    -0.5909490     0.0000020
  N        0.2035270    -1.2232130    -0.0000060
  H       -1.5338930     1.4585310    -0.0000040
  H        2.1871952    -0.4478780     0.0000089
  H        0.9528750     2.0238360    -0.0000060
  H       -1.9365860    -1.0585140     0.0000030
units angstrom
no_reorient  #important for SAPT in psi4, default
symmetry c1  #important for SAPT in psi4, default
}

set PROPERTIES_ORIGIN ["COM"]
properties('MP2/aug-cc-pvtz', properties = ['dipole'])
--------------------------------------------------------------------------

    Molecular point group: c1
  Charge       = 0
  Multiplicity = 1
  Basis Set: AUG-CC-PVTZ
    Blend: AUG-CC-PVTZ
  Basis Set: (AUG-CC-PVTZ AUX)
    Blend: AUG-CC-PVTZ-JKFIT

    Orbital Energies [Eh]
    ---------------------

    Doubly Occupied:

       1A    -15.626099     2A    -15.548431     3A    -11.299778
       4A    -11.263441     5A    -11.243629     6A     -1.339182
       7A     -1.166017     8A     -1.005972     9A     -0.828999
      10A     -0.801092    11A     -0.757837    12A     -0.609008
      13A     -0.603142    14A     -0.597871    15A     -0.572046
      16A     -0.439174    17A     -0.400975    18A     -0.319792

  @DF-RHF Final Energy:  -224.89597456413935

   => Energetics <=

    Nuclear Repulsion Energy =            162.9278730011625953
    One-Electron Energy =                -626.8027192314137892
    Two-Electron Energy =                 238.9788716661118428
    Total Energy =                       -224.8959745641393511
  Basis Set: (AUG-CC-PVTZ AUX)
    Blend: AUG-CC-PVTZ-RI
    Molecular point group: c1

    Geometry (in Angstrom), charge = 0, multiplicity = 1:

       Center              X                  Y                   Z               Mass
    ------------   -----------------  -----------------  -----------------  -----------------
         C            1.145544996980    -0.194226585166     0.000005236551    12.000000000000
         C            0.550908996980     1.048525414834    -0.000004763449    12.000000000000
         N           -0.800982003020     0.793738414834     0.000003236551    14.003074004430
         C           -0.965183003020    -0.562237585166     0.000002236551    12.000000000000
         N            0.199309996980    -1.194501585166    -0.000005763449    14.003074004430
         H           -1.538110003020     1.487242414834    -0.000003763449     1.007825032230
         H            2.182978196980    -0.419166585166     0.000009136551     1.007825032230
         H            0.948657996980     2.052547414834    -0.000005763449     1.007825032230
         H           -1.940803003020    -1.029802585166     0.000003236551     1.007825032230

  Basis Set: AUG-CC-PVTZ
    Blend: AUG-CC-PVTZ
  Basis Set: (AUG-CC-PVTZ AUX)
    Blend: AUG-CC-PVTZ-JKFIT
	 Reference Energy          =    -224.8959745641393511 [Eh]
	 Singles Energy            =      -0.0000000000000000 [Eh]
	 Same-Spin Energy          =      -0.2437562553266555 [Eh]
	 Opposite-Spin Energy      =      -0.7421000438004064 [Eh]
	 Correlation Energy        =      -0.9858562991270619 [Eh]
	 Total Energy              =    -225.8818308632664014 [Eh]

	 ================> DF-SCS-MP2 Energies <==================
	-----------------------------------------------------------
	 SCS Same-Spin Scale       =       0.3333333333333333 [-]
	 SCS Opposite-Spin Scale   =       1.2000000000000000 [-]
	 SCS Same-Spin Energy      =      -0.0812520851088852 [Eh]
	 SCS Opposite-Spin Energy  =      -0.8905200525604876 [Eh]
	 SCS Correlation Energy    =      -0.9717721376693728 [Eh]
	 SCS Total Energy          =    -225.8677467018087270 [Eh]
	-----------------------------------------------------------

  Dipole Moment: [D]
     X:    -1.7709      Y:     3.4078      Z:     0.0000     Total:     3.8405

*** Psi4 exiting successfully. Buy a developer a beer!
