                               Psi4 1.4a3.dev225

  ==> Input File <==

--------------------------------------------------------------------------
#psi4
#
memory 32 gb

molecule  {
0 1
  C        1.1497620    -0.2229380     0.0000050
  C        0.5551260     1.0198140    -0.0000050
  N       -0.7967650     0.7650270     0.0000030
  C       -0.9609660    -0.5909490     0.0000020
  N        0.2035270    -1.2232130    -0.0000060
  H       -1.5338930     1.4585310    -0.0000040
  H        2.2262868    -0.4563540     0.0000091
  H        0.9528750     2.0238360    -0.0000060
  H       -1.9365860    -1.0585140     0.0000030
units angstrom
no_reorient  #important for SAPT in psi4, default
symmetry c1  #important for SAPT in psi4, default
}

set PROPERTIES_ORIGIN ["COM"]
properties('MP2/aug-cc-pvtz', properties = ['dipole'])
--------------------------------------------------------------------------

    Molecular point group: c1
  Charge       = 0
  Multiplicity = 1
  Basis Set: AUG-CC-PVTZ
    Blend: AUG-CC-PVTZ
  Basis Set: (AUG-CC-PVTZ AUX)
    Blend: AUG-CC-PVTZ-JKFIT

    Orbital Energies [Eh]
    ---------------------

    Doubly Occupied:

       1A    -15.626315     2A    -15.548826     3A    -11.300083
       4A    -11.263723     5A    -11.248189     6A     -1.339466
       7A     -1.166140     8A     -1.005132     9A     -0.828579
      10A     -0.797198    11A     -0.756980    12A     -0.607682
      13A     -0.603200    14A     -0.598134    15A     -0.565855
      16A     -0.439194    17A     -0.401224    18A     -0.319963

  @DF-RHF Final Energy:  -224.89521419528896

   => Energetics <=

    Nuclear Repulsion Energy =            162.7396461312480938
    One-Electron Energy =                -626.4379547379735413
    Two-Electron Energy =                 238.8030944114364900
    Total Energy =                       -224.8952141952889576
  Basis Set: (AUG-CC-PVTZ AUX)
    Blend: AUG-CC-PVTZ-RI
    Molecular point group: c1

    Geometry (in Angstrom), charge = 0, multiplicity = 1:

       Center              X                  Y                   Z               Mass
    ------------   -----------------  -----------------  -----------------  -----------------
         C            1.144965940974    -0.194101031883     0.000005233589    12.000000000000
         C            0.550329940974     1.048650968117    -0.000004766411    12.000000000000
         N           -0.801561059026     0.793863968117     0.000003233589    14.003074004430
         C           -0.965762059026    -0.562112031883     0.000002233589    12.000000000000
         N            0.198730940974    -1.194376031883    -0.000005766411    14.003074004430
         H           -1.538689059026     1.487367968117    -0.000003766411     1.007825032230
         H            2.221490740974    -0.427517031883     0.000009333589     1.007825032230
         H            0.948078940974     2.052672968117    -0.000005766411     1.007825032230
         H           -1.941382059026    -1.029677031883     0.000003233589     1.007825032230

  Basis Set: AUG-CC-PVTZ
    Blend: AUG-CC-PVTZ
  Basis Set: (AUG-CC-PVTZ AUX)
    Blend: AUG-CC-PVTZ-JKFIT
	 Reference Energy          =    -224.8952141952889576 [Eh]
	 Singles Energy            =      -0.0000000000000000 [Eh]
	 Same-Spin Energy          =      -0.2438222331360388 [Eh]
	 Opposite-Spin Energy      =      -0.7423296505399476 [Eh]
	 Correlation Energy        =      -0.9861518836759864 [Eh]
	 Total Energy              =    -225.8813660789649305 [Eh]

	 ================> DF-SCS-MP2 Energies <==================
	-----------------------------------------------------------
	 SCS Same-Spin Scale       =       0.3333333333333333 [-]
	 SCS Opposite-Spin Scale   =       1.2000000000000000 [-]
	 SCS Same-Spin Energy      =      -0.0812740777120129 [Eh]
	 SCS Opposite-Spin Energy  =      -0.8907955806479371 [Eh]
	 SCS Correlation Energy    =      -0.9720696583599500 [Eh]
	 SCS Total Energy          =    -225.8672838536488996 [Eh]
	-----------------------------------------------------------

  Dipole Moment: [D]
     X:    -1.7774      Y:     3.4026      Z:     0.0000     Total:     3.8389

*** Psi4 exiting successfully. Buy a developer a beer!
