                               Psi4 1.4a3.dev225

  ==> Input File <==

--------------------------------------------------------------------------
#psi4
#
memory 32 gb

molecule  {
0 1
  C        1.1497620    -0.2229380     0.0000050
  C        0.5551260     1.0198140    -0.0000050
  N       -0.7967650     0.7650270     0.0000030
  C       -0.9609660    -0.5909490     0.0000020
  N        0.2035270    -1.2232130    -0.0000060
  H       -1.5338930     1.4585310    -0.0000040
  H        2.2067410    -0.4521160     0.0000090
  H        0.9712904     2.0703212    -0.0000060
  H       -1.9365860    -1.0585140     0.0000030
units angstrom
no_reorient  #important for SAPT in psi4, default
symmetry c1  #important for SAPT in psi4, default
}

set PROPERTIES_ORIGIN ["COM"]
properties('MP2/aug-cc-pvtz', properties = ['dipole'])
--------------------------------------------------------------------------

    Molecular point group: c1
  Charge       = 0
  Multiplicity = 1
  Basis Set: AUG-CC-PVTZ
    Blend: AUG-CC-PVTZ
  Basis Set: (AUG-CC-PVTZ AUX)
    Blend: AUG-CC-PVTZ-JKFIT

    Orbital Energies [Eh]
    ---------------------

    Doubly Occupied:

       1A    -15.626595     2A    -15.548931     3A    -11.300123
       4A    -11.269013     5A    -11.246191     6A     -1.339594
       7A     -1.166202     8A     -1.003959     9A     -0.828395
      10A     -0.797621    11A     -0.752425    12A     -0.608550
      13A     -0.598289    14A     -0.594252    15A     -0.569164
      16A     -0.439220    17A     -0.401342    18A     -0.320000

  @DF-RHF Final Energy:  -224.89330942137900

   => Energetics <=

    Nuclear Repulsion Energy =            162.6053357177059695
    One-Electron Energy =                -626.1775586212158942
    Two-Electron Energy =                 238.6789134821308949
    Total Energy =                       -224.8933094213790014
  Basis Set: (AUG-CC-PVTZ AUX)
    Blend: AUG-CC-PVTZ-RI
    Molecular point group: c1

    Geometry (in Angstrom), charge = 0, multiplicity = 1:

       Center              X                  Y                   Z               Mass
    ------------   -----------------  -----------------  -----------------  -----------------
         C            1.144982685361    -0.194852384441     0.000005235070    12.000000000000
         C            0.550346685361     1.047899615559    -0.000004764930    12.000000000000
         N           -0.801544314639     0.793112615559     0.000003235070    14.003074004430
         C           -0.965745314639    -0.562863384441     0.000002235070    12.000000000000
         N            0.198747685361    -1.195127384441    -0.000005764930    14.003074004430
         H           -1.538672314639     1.486616615559    -0.000003764930     1.007825032230
         H            2.201961685361    -0.424030384441     0.000009235070     1.007825032230
         H            0.966511085361     2.098406815559    -0.000005764930     1.007825032230
         H           -1.941365314639    -1.030428384441     0.000003235070     1.007825032230

  Basis Set: AUG-CC-PVTZ
    Blend: AUG-CC-PVTZ
  Basis Set: (AUG-CC-PVTZ AUX)
    Blend: AUG-CC-PVTZ-JKFIT
	 Reference Energy          =    -224.8933094213790014 [Eh]
	 Singles Energy            =      -0.0000000000000000 [Eh]
	 Same-Spin Energy          =      -0.2438957051629473 [Eh]
	 Opposite-Spin Energy      =      -0.7425825390829567 [Eh]
	 Correlation Energy        =      -0.9864782442459040 [Eh]
	 Total Energy              =    -225.8797876656249173 [Eh]

	 ================> DF-SCS-MP2 Energies <==================
	-----------------------------------------------------------
	 SCS Same-Spin Scale       =       0.3333333333333333 [-]
	 SCS Opposite-Spin Scale   =       1.2000000000000000 [-]
	 SCS Same-Spin Energy      =      -0.0812985683876491 [Eh]
	 SCS Opposite-Spin Energy  =      -0.8910990468995480 [Eh]
	 SCS Correlation Energy    =      -0.9723976152871971 [Eh]
	 SCS Total Energy          =    -225.8657070366662083 [Eh]
	-----------------------------------------------------------

  Dipole Moment: [D]
     X:    -1.7743      Y:     3.4045      Z:     0.0000     Total:     3.8391

*** Psi4 exiting successfully. Buy a developer a beer!
