                               Psi4 1.4a3.dev225

  ==> Input File <==

--------------------------------------------------------------------------
#psi4
#
memory 32 gb

molecule  {
0 1
  C        1.1497620    -0.2229380     0.0000050
  C        0.5551260     1.0198140    -0.0000050
  N       -0.7967650     0.7650270     0.0000030
  C       -0.9609660    -0.5909490     0.0000020
  N        0.2035270    -1.2232130    -0.0000060
  H       -1.5338930     1.4585310    -0.0000040
  H        2.2067410    -0.4521160     0.0000090
  H        0.9455088     2.0052419    -0.0000060
  H       -1.9365860    -1.0585140     0.0000030
units angstrom
no_reorient  #important for SAPT in psi4, default
symmetry c1  #important for SAPT in psi4, default
}

set PROPERTIES_ORIGIN ["COM"]
properties('MP2/aug-cc-pvtz', properties = ['dipole'])
--------------------------------------------------------------------------

    Molecular point group: c1
  Charge       = 0
  Multiplicity = 1
  Basis Set: AUG-CC-PVTZ
    Blend: AUG-CC-PVTZ
  Basis Set: (AUG-CC-PVTZ AUX)
    Blend: AUG-CC-PVTZ-JKFIT

    Orbital Energies [Eh]
    ---------------------

    Doubly Occupied:

       1A    -15.626061     2A    -15.548511     3A    -11.299861
       4A    -11.261342     5A    -11.245834     6A     -1.339224
       7A     -1.166036     8A     -1.006269     9A     -0.828977
      10A     -0.799851    11A     -0.759486    12A     -0.608354
      13A     -0.606413    14A     -0.597894    15A     -0.568991
      16A     -0.439174    17A     -0.401007    18A     -0.319839

  @DF-RHF Final Energy:  -224.89598139704660

   => Energetics <=

    Nuclear Repulsion Energy =            162.9276464188633042
    One-Electron Energy =                -626.8010082221917401
    Two-Electron Energy =                 238.9773804062818101
    Total Energy =                       -224.8959813970465973
  Basis Set: (AUG-CC-PVTZ AUX)
    Blend: AUG-CC-PVTZ-RI
    Molecular point group: c1

    Geometry (in Angstrom), charge = 0, multiplicity = 1:

       Center              X                  Y                   Z               Mass
    ------------   -----------------  -----------------  -----------------  -----------------
         C            1.145364583016    -0.193888377862     0.000005235070    12.000000000000
         C            0.550728583016     1.048863622138    -0.000004764930    12.000000000000
         N           -0.801162416984     0.794076622138     0.000003235070    14.003074004430
         C           -0.965363416984    -0.561899377862     0.000002235070    12.000000000000
         N            0.199129583016    -1.194163377862    -0.000005764930    14.003074004430
         H           -1.538290416984     1.487580622138    -0.000003764930     1.007825032230
         H            2.202343583016    -0.423066377862     0.000009235070     1.007825032230
         H            0.941111383016     2.034291522138    -0.000005764930     1.007825032230
         H           -1.940983416984    -1.029464377862     0.000003235070     1.007825032230

  Basis Set: AUG-CC-PVTZ
    Blend: AUG-CC-PVTZ
  Basis Set: (AUG-CC-PVTZ AUX)
    Blend: AUG-CC-PVTZ-JKFIT
	 Reference Energy          =    -224.8959813970465973 [Eh]
	 Singles Energy            =      -0.0000000000000000 [Eh]
	 Same-Spin Energy          =      -0.2437496892772659 [Eh]
	 Opposite-Spin Energy      =      -0.7420851903244627 [Eh]
	 Correlation Energy        =      -0.9858348796017287 [Eh]
	 Total Energy              =    -225.8818162766483226 [Eh]

	 ================> DF-SCS-MP2 Energies <==================
	-----------------------------------------------------------
	 SCS Same-Spin Scale       =       0.3333333333333333 [-]
	 SCS Opposite-Spin Scale   =       1.2000000000000000 [-]
	 SCS Same-Spin Energy      =      -0.0812498964257553 [Eh]
	 SCS Opposite-Spin Energy  =      -0.8905022283893552 [Eh]
	 SCS Correlation Energy    =      -0.9717521248151105 [Eh]
	 SCS Total Energy          =    -225.8677335218617088 [Eh]
	-----------------------------------------------------------

  Dipole Moment: [D]
     X:    -1.7740      Y:     3.4048      Z:     0.0000     Total:     3.8393

*** Psi4 exiting successfully. Buy a developer a beer!
