                               Psi4 1.3.2 release

  ==> Input File <==

--------------------------------------------------------------------------
#psi4
#
memory 32 gb

molecule  {
0 1
  C       -1.1499320    -0.2219830     0.0000330
  C       -0.5541220     1.0203030    -0.0000280
  N        0.9400986     0.7739358     0.0000155
  C        0.9604690    -0.5917710     0.0000050
  N       -0.2047340    -1.2229890    -0.0000280
  H        1.5354100     1.4569660     0.0000450
  H       -2.2072180    -0.4498140     0.0000570
  H       -0.9513210     2.0245130    -0.0000550
  H        1.9355930    -1.0603130     0.0000020
units angstrom
no_reorient  #important for SAPT in psi4, default
symmetry c1  #important for SAPT in psi4, default
}

set PROPERTIES_ORIGIN ["COM"]
properties('MP2/aug-cc-pvtz', properties = ['dipole'])
--------------------------------------------------------------------------

    Molecular point group: c1
  Charge       = 0
  Multiplicity = 1
  Basis Set: AUG-CC-PVTZ
    Blend: AUG-CC-PVTZ
  Basis Set: (AUG-CC-PVTZ AUX)
    Blend: AUG-CC-PVTZ-JKFIT

    Orbital Energies [Eh]
    ---------------------

    Doubly Occupied:

       1A    -15.616396     2A    -15.551066     3A    -11.313635
       4A    -11.272226     5A    -11.258709     6A     -1.320203
       7A     -1.175320     8A     -0.998821     9A     -0.864336
      10A     -0.790180    11A     -0.753024    12A     -0.629552
      13A     -0.584000    14A     -0.576958    15A     -0.563442
      16A     -0.443678    17A     -0.404671    18A     -0.325752

  @DF-RHF Final Energy:  -224.86793898074782

   => Energetics <=

    Nuclear Repulsion Energy =            160.7363299212062202
    One-Electron Energy =                -622.3246022855937554
    Two-Electron Energy =                 236.7203333836397121
    Total Energy =                       -224.8679389807478231
  Basis Set: (AUG-CC-PVTZ AUX)
    Blend: AUG-CC-PVTZ-RI
    Molecular point group: c1

    Geometry (in Angstrom), charge = 0, multiplicity = 1:

       Center              X                  Y                   Z               Mass
    ------------   -----------------  -----------------  -----------------  -----------------
         C           -1.174760296786    -0.195192469954     0.000033083116    12.000000000000
         C           -0.578950296786     1.047093530046    -0.000027916884    12.000000000000
         N            0.915270303214     0.800726330046     0.000015583116    14.003074004430
         C            0.935640703214    -0.564980469954     0.000005083116    12.000000000000
         N           -0.229562296786    -1.196198469954    -0.000027916884    14.003074004430
         H            1.510581703214     1.483756530046     0.000045083116     1.007825032230
         H           -2.232046296786    -0.423023469954     0.000057083116     1.007825032230
         H           -0.976149296786     2.051303530046    -0.000054916884     1.007825032230
         H            1.910764703214    -1.033522469954     0.000002083116     1.007825032230

  Basis Set: AUG-CC-PVTZ
    Blend: AUG-CC-PVTZ
  Basis Set: (AUG-CC-PVTZ AUX)
    Blend: AUG-CC-PVTZ-JKFIT
	 Reference Energy          =    -224.8679389807478231 [Eh]
	 Singles Energy            =      -0.0000000000000000 [Eh]
	 Same-Spin Energy          =      -0.2422789840186702 [Eh]
	 Opposite-Spin Energy      =      -0.7429968457659236 [Eh]
	 Correlation Energy        =      -0.9852758297845938 [Eh]
	 Total Energy              =    -225.8532148105324211 [Eh]

	 ================> DF-SCS-MP2 Energies <==================
	-----------------------------------------------------------
	 SCS Same-Spin Scale       =       0.3333333333333333 [-]
	 SCS Opposite-Spin Scale   =       1.2000000000000000 [-]
	 SCS Same-Spin Energy      =      -0.0807596613395567 [Eh]
	 SCS Opposite-Spin Energy  =      -0.8915962149191083 [Eh]
	 SCS Correlation Energy    =      -0.9723558762586650 [Eh]
	 SCS Total Energy          =    -225.8402948570064837 [Eh]
	-----------------------------------------------------------

  Dipole Moment: [D]
     X:     1.4728      Y:     3.1737      Z:     0.0001     Total:     3.4988

*** Psi4 exiting successfully. Buy a developer a beer!
