                               Psi4 1.3.2 release

  ==> Input File <==

--------------------------------------------------------------------------
#psi4
#
memory 32 gb

molecule  {
0 1
  C       -1.1499320    -0.2219830     0.0000330
  C       -0.5541220     1.0203030    -0.0000280
  N        0.6565974     0.7398566     0.0000084
  C        0.9604690    -0.5917710     0.0000050
  N       -0.2047340    -1.2229890    -0.0000280
  H        1.5354100     1.4569660     0.0000450
  H       -2.2072180    -0.4498140     0.0000570
  H       -0.9513210     2.0245130    -0.0000550
  H        1.9355930    -1.0603130     0.0000020
units angstrom
no_reorient  #important for SAPT in psi4, default
symmetry c1  #important for SAPT in psi4, default
}

set PROPERTIES_ORIGIN ["COM"]
properties('MP2/aug-cc-pvtz', properties = ['dipole'])
--------------------------------------------------------------------------

    Molecular point group: c1
  Charge       = 0
  Multiplicity = 1
  Basis Set: AUG-CC-PVTZ
    Blend: AUG-CC-PVTZ
  Basis Set: (AUG-CC-PVTZ AUX)
    Blend: AUG-CC-PVTZ-JKFIT

    Orbital Energies [Eh]
    ---------------------

    Doubly Occupied:

       1A    -15.636161     2A    -15.547149     3A    -11.287561
       4A    -11.255531     5A    -11.233521     6A     -1.372288
       7A     -1.167256     8A     -1.012719     9A     -0.813270
      10A     -0.798806    11A     -0.762550    12A     -0.637254
      13A     -0.620953    14A     -0.573094    15A     -0.559567
      16A     -0.435047    17A     -0.403195    18A     -0.310739

  @DF-RHF Final Energy:  -224.85914370813092

   => Energetics <=

    Nuclear Repulsion Energy =            165.3792056293660266
    One-Electron Energy =                -631.6233758879021707
    Two-Electron Energy =                 241.3850265504052288
    Total Energy =                       -224.8591437081309152
  Basis Set: (AUG-CC-PVTZ AUX)
    Blend: AUG-CC-PVTZ-RI
    Molecular point group: c1

    Geometry (in Angstrom), charge = 0, multiplicity = 1:

       Center              X                  Y                   Z               Mass
    ------------   -----------------  -----------------  -----------------  -----------------
         C           -1.116411719751    -0.188178486145     0.000034544397    12.000000000000
         C           -0.520601719751     1.054107513855    -0.000026455603    12.000000000000
         N            0.690117680249     0.773661113855     0.000009944397    14.003074004430
         C            0.993989280249    -0.557966486145     0.000006544397    12.000000000000
         N           -0.171213719751    -1.189184486145    -0.000026455603    14.003074004430
         H            1.568930280249     1.490770513855     0.000046544397     1.007825032230
         H           -2.173697719751    -0.416009486145     0.000058544397     1.007825032230
         H           -0.917800719751     2.058317513855    -0.000053455603     1.007825032230
         H            1.969113280249    -1.026508486145     0.000003544397     1.007825032230

  Basis Set: AUG-CC-PVTZ
    Blend: AUG-CC-PVTZ
  Basis Set: (AUG-CC-PVTZ AUX)
    Blend: AUG-CC-PVTZ-JKFIT
	 Reference Energy          =    -224.8591437081309152 [Eh]
	 Singles Energy            =      -0.0000000000000000 [Eh]
	 Same-Spin Energy          =      -0.2464349030816768 [Eh]
	 Opposite-Spin Energy      =      -0.7443010152344380 [Eh]
	 Correlation Energy        =      -0.9907359183161148 [Eh]
	 Total Energy              =    -225.8498796264470343 [Eh]

	 ================> DF-SCS-MP2 Energies <==================
	-----------------------------------------------------------
	 SCS Same-Spin Scale       =       0.3333333333333333 [-]
	 SCS Opposite-Spin Scale   =       1.2000000000000000 [-]
	 SCS Same-Spin Energy      =      -0.0821449676938923 [Eh]
	 SCS Opposite-Spin Energy  =      -0.8931612182813257 [Eh]
	 SCS Correlation Energy    =      -0.9753061859752179 [Eh]
	 SCS Total Energy          =    -225.8344498941061431 [Eh]
	-----------------------------------------------------------

  Dipole Moment: [D]
     X:     1.9781      Y:     3.6567      Z:     0.0001     Total:     4.1574

*** Psi4 exiting successfully. Buy a developer a beer!
