                               Psi4 1.3.2 release

  ==> Input File <==

--------------------------------------------------------------------------
#psi4
#
memory 32 gb

molecule  {
0 1
  C       -1.1842908    -0.2555797     0.0000312
  C       -0.5541220     1.0203030    -0.0000280
  N        0.7974550     0.7643250     0.0000120
  C        0.9604690    -0.5917710     0.0000050
  N       -0.2047340    -1.2229890    -0.0000280
  H        1.5354100     1.4569660     0.0000450
  H       -2.2072180    -0.4498140     0.0000570
  H       -0.9513210     2.0245130    -0.0000550
  H        1.9355930    -1.0603130     0.0000020
units angstrom
no_reorient  #important for SAPT in psi4, default
symmetry c1  #important for SAPT in psi4, default
}

set PROPERTIES_ORIGIN ["COM"]
properties('MP2/aug-cc-pvtz', properties = ['dipole'])
--------------------------------------------------------------------------

    Molecular point group: c1
  Charge       = 0
  Multiplicity = 1
  Basis Set: AUG-CC-PVTZ
    Blend: AUG-CC-PVTZ
  Basis Set: (AUG-CC-PVTZ AUX)
    Blend: AUG-CC-PVTZ-JKFIT

    Orbital Energies [Eh]
    ---------------------

    Doubly Occupied:

       1A    -15.629220     2A    -15.549579     3A    -11.298660
       4A    -11.269377     5A    -11.249284     6A     -1.336202
       7A     -1.166612     8A     -0.999220     9A     -0.829267
      10A     -0.804025    11A     -0.756880    12A     -0.610137
      13A     -0.598865    14A     -0.595553    15A     -0.582974
      16A     -0.433473    17A     -0.402302    18A     -0.312687

  @DF-RHF Final Energy:  -224.89080885880213

   => Energetics <=

    Nuclear Repulsion Energy =            162.1375350655566479
    One-Electron Energy =                -625.2080558696841308
    Two-Electron Energy =                 238.1797119453253231
    Total Energy =                       -224.8908088588021315
  Basis Set: (AUG-CC-PVTZ AUX)
    Blend: AUG-CC-PVTZ-RI
    Molecular point group: c1

    Geometry (in Angstrom), charge = 0, multiplicity = 1:

       Center              X                  Y                   Z               Mass
    ------------   -----------------  -----------------  -----------------  -----------------
         C           -1.173701035806    -0.220885564537     0.000032320938    12.000000000000
         C           -0.543532235806     1.054997135463    -0.000026879062    12.000000000000
         N            0.808044764194     0.799019135463     0.000013120938    14.003074004430
         C            0.971058764194    -0.557076864537     0.000006120938    12.000000000000
         N           -0.194144235806    -1.188294864537    -0.000026879062    14.003074004430
         H            1.545999764194     1.491660135463     0.000046120938     1.007825032230
         H           -2.196628235806    -0.415119864537     0.000058120938     1.007825032230
         H           -0.940731235806     2.059207135463    -0.000053879062     1.007825032230
         H            1.946182764194    -1.025618864537     0.000003120938     1.007825032230

  Basis Set: AUG-CC-PVTZ
    Blend: AUG-CC-PVTZ
  Basis Set: (AUG-CC-PVTZ AUX)
    Blend: AUG-CC-PVTZ-JKFIT
	 Reference Energy          =    -224.8908088588021315 [Eh]
	 Singles Energy            =      -0.0000000000000000 [Eh]
	 Same-Spin Energy          =      -0.2443968503458193 [Eh]
	 Opposite-Spin Energy      =      -0.7434038751701750 [Eh]
	 Correlation Energy        =      -0.9878007255159943 [Eh]
	 Total Energy              =    -225.8786095843181272 [Eh]

	 ================> DF-SCS-MP2 Energies <==================
	-----------------------------------------------------------
	 SCS Same-Spin Scale       =       0.3333333333333333 [-]
	 SCS Opposite-Spin Scale   =       1.2000000000000000 [-]
	 SCS Same-Spin Energy      =      -0.0814656167819398 [Eh]
	 SCS Opposite-Spin Energy  =      -0.8920846502042100 [Eh]
	 SCS Correlation Energy    =      -0.9735502669861498 [Eh]
	 SCS Total Energy          =    -225.8643591257882690 [Eh]
	-----------------------------------------------------------

  Dipole Moment: [D]
     X:     1.7576      Y:     3.3866      Z:     0.0001     Total:     3.8155

*** Psi4 exiting successfully. Buy a developer a beer!
