                               Psi4 1.3.2 release

  ==> Input File <==

--------------------------------------------------------------------------
#psi4
#
memory 32 gb

molecule  {
0 1
  C       -1.1499320    -0.2219830     0.0000330
  C       -0.5541220     1.0203030    -0.0000280
  N        0.7974550     0.7643250     0.0000120
  C        0.9604690    -0.5917710     0.0000050
  N       -0.2047340    -1.2229890    -0.0000280
  H        1.5354100     1.4569660     0.0000450
  H       -2.2072180    -0.4498140     0.0000570
  H       -0.9513210     2.0245130    -0.0000550
  H        2.0257279    -1.1036223     0.0000017
units angstrom
no_reorient  #important for SAPT in psi4, default
symmetry c1  #important for SAPT in psi4, default
}

set PROPERTIES_ORIGIN ["COM"]
properties('MP2/aug-cc-pvtz', properties = ['dipole'])
--------------------------------------------------------------------------

    Molecular point group: c1
  Charge       = 0
  Multiplicity = 1
  Basis Set: AUG-CC-PVTZ
    Blend: AUG-CC-PVTZ
  Basis Set: (AUG-CC-PVTZ AUX)
    Blend: AUG-CC-PVTZ-JKFIT

    Orbital Energies [Eh]
    ---------------------

    Doubly Occupied:

       1A    -15.627048     2A    -15.549341     3A    -11.310435
       4A    -11.263898     5A    -11.246583     6A     -1.339798
       7A     -1.166795     8A     -1.002461     9A     -0.825910
      10A     -0.798220    11A     -0.745528    12A     -0.607080
      13A     -0.598605    14A     -0.596735    15A     -0.561598
      16A     -0.439141    17A     -0.401754    18A     -0.320114

  @DF-RHF Final Energy:  -224.88824411043029

   => Energetics <=

    Nuclear Repulsion Energy =            162.3846232637054641
    One-Electron Energy =                -625.7436470008627794
    Two-Electron Energy =                 238.4707796267270226
    Total Energy =                       -224.8882441104302927
  Basis Set: (AUG-CC-PVTZ AUX)
    Blend: AUG-CC-PVTZ-RI
    Molecular point group: c1

    Geometry (in Angstrom), charge = 0, multiplicity = 1:

       Center              X                  Y                   Z               Mass
    ------------   -----------------  -----------------  -----------------  -----------------
         C           -1.146737366315    -0.192572898744     0.000033807910    12.000000000000
         C           -0.550927366315     1.049713101256    -0.000027192090    12.000000000000
         N            0.800649633685     0.793735101256     0.000012807910    14.003074004430
         C            0.963663633685    -0.562360898744     0.000005807910    12.000000000000
         N           -0.201539366315    -1.193578898744    -0.000027192090    14.003074004430
         H            1.538604633685     1.486376101256     0.000045807910     1.007825032230
         H           -2.204023366315    -0.420403898744     0.000057807910     1.007825032230
         H           -0.948126366315     2.053923101256    -0.000054192090     1.007825032230
         H            2.028922533685    -1.074212198744     0.000002507910     1.007825032230

  Basis Set: AUG-CC-PVTZ
    Blend: AUG-CC-PVTZ
  Basis Set: (AUG-CC-PVTZ AUX)
    Blend: AUG-CC-PVTZ-JKFIT
	 Reference Energy          =    -224.8882441104302927 [Eh]
	 Singles Energy            =      -0.0000000000000000 [Eh]
	 Same-Spin Energy          =      -0.2440197455373342 [Eh]
	 Opposite-Spin Energy      =      -0.7430056546615804 [Eh]
	 Correlation Energy        =      -0.9870254001989147 [Eh]
	 Total Energy              =    -225.8752695106292094 [Eh]

	 ================> DF-SCS-MP2 Energies <==================
	-----------------------------------------------------------
	 SCS Same-Spin Scale       =       0.3333333333333333 [-]
	 SCS Opposite-Spin Scale   =       1.2000000000000000 [-]
	 SCS Same-Spin Energy      =      -0.0813399151791114 [Eh]
	 SCS Opposite-Spin Energy  =      -0.8916067855938965 [Eh]
	 SCS Correlation Energy    =      -0.9729467007730079 [Eh]
	 SCS Total Energy          =    -225.8611908112033007 [Eh]
	-----------------------------------------------------------

  Dipole Moment: [D]
     X:     1.7662      Y:     3.3945      Z:     0.0001     Total:     3.8265

*** Psi4 exiting successfully. Buy a developer a beer!
