                               Psi4 1.3.2 release

  ==> Input File <==

--------------------------------------------------------------------------
#psi4
#
memory 32 gb

molecule  {
0 1
  C       -1.1323181    -0.2056395     0.0000339
  C       -0.5541220     1.0203030    -0.0000280
  N        0.7974550     0.7643250     0.0000120
  C        0.9604690    -0.5917710     0.0000050
  N       -0.2047340    -1.2229890    -0.0000280
  H        1.5354100     1.4569660     0.0000450
  H       -2.2072180    -0.4498140     0.0000570
  H       -0.9513210     2.0245130    -0.0000550
  H        1.9355930    -1.0603130     0.0000020
units angstrom
no_reorient  #important for SAPT in psi4, default
symmetry c1  #important for SAPT in psi4, default
}

set PROPERTIES_ORIGIN ["COM"]
properties('MP2/aug-cc-pvtz', properties = ['dipole'])
--------------------------------------------------------------------------

    Molecular point group: c1
  Charge       = 0
  Multiplicity = 1
  Basis Set: AUG-CC-PVTZ
    Blend: AUG-CC-PVTZ
  Basis Set: (AUG-CC-PVTZ AUX)
    Blend: AUG-CC-PVTZ-JKFIT

    Orbital Energies [Eh]
    ---------------------

    Doubly Occupied:

       1A    -15.624808     2A    -15.548284     3A    -11.300604
       4A    -11.260573     5A    -11.244274     6A     -1.341160
       7A     -1.165874     8A     -1.009114     9A     -0.829149
      10A     -0.796359    11A     -0.757800    12A     -0.610010
      13A     -0.603430    14A     -0.599440    15A     -0.560718
      16A     -0.441933    17A     -0.400603    18A     -0.323593

  @DF-RHF Final Energy:  -224.89568677855340

   => Energetics <=

    Nuclear Repulsion Energy =            163.1984248607500092
    One-Electron Energy =                -627.3527749525709396
    Two-Electron Energy =                 239.2586633132675047
    Total Energy =                       -224.8956867785533973
  Basis Set: (AUG-CC-PVTZ AUX)
    Blend: AUG-CC-PVTZ-RI
    Molecular point group: c1

    Geometry (in Angstrom), charge = 0, multiplicity = 1:

       Center              X                  Y                   Z               Mass
    ------------   -----------------  -----------------  -----------------  -----------------
         C           -1.130894940625    -0.179753490303     0.000034544730    12.000000000000
         C           -0.552698840625     1.046189009697    -0.000027355270    12.000000000000
         N            0.798878159375     0.790211009697     0.000012644730    14.003074004430
         C            0.961892159375    -0.565884990303     0.000005644730    12.000000000000
         N           -0.203310840625    -1.197102990303    -0.000027355270    14.003074004430
         H            1.536833159375     1.482852009697     0.000045644730     1.007825032230
         H           -2.205794840625    -0.423927990303     0.000057644730     1.007825032230
         H           -0.949897840625     2.050399009697    -0.000054355270     1.007825032230
         H            1.937016159375    -1.034426990303     0.000002644730     1.007825032230

  Basis Set: AUG-CC-PVTZ
    Blend: AUG-CC-PVTZ
  Basis Set: (AUG-CC-PVTZ AUX)
    Blend: AUG-CC-PVTZ-JKFIT
	 Reference Energy          =    -224.8956867785533973 [Eh]
	 Singles Energy            =      -0.0000000000000000 [Eh]
	 Same-Spin Energy          =      -0.2435405557222385 [Eh]
	 Opposite-Spin Energy      =      -0.7417372377051273 [Eh]
	 Correlation Energy        =      -0.9852777934273658 [Eh]
	 Total Energy              =    -225.8809645719807691 [Eh]

	 ================> DF-SCS-MP2 Energies <==================
	-----------------------------------------------------------
	 SCS Same-Spin Scale       =       0.3333333333333333 [-]
	 SCS Opposite-Spin Scale   =       1.2000000000000000 [-]
	 SCS Same-Spin Energy      =      -0.0811801852407462 [Eh]
	 SCS Opposite-Spin Energy  =      -0.8900846852461528 [Eh]
	 SCS Correlation Energy    =      -0.9712648704868989 [Eh]
	 SCS Total Energy          =    -225.8669516490402884 [Eh]
	-----------------------------------------------------------

  Dipole Moment: [D]
     X:     1.7905      Y:     3.4107      Z:     0.0001     Total:     3.8521

*** Psi4 exiting successfully. Buy a developer a beer!
