                               Psi4 1.3.2 release

  ==> Input File <==

--------------------------------------------------------------------------
#psi4
#
memory 32 gb

molecule  {
0 1
  C       -1.1499320    -0.2219830     0.0000330
  C       -0.5541220     1.0203030    -0.0000280
  N        0.7974550     0.7643250     0.0000120
  C        0.9604690    -0.5917710     0.0000050
  N       -0.2047340    -1.2229890    -0.0000280
  H        1.5354100     1.4569660     0.0000450
  H       -2.0117058    -0.4076837     0.0000526
  H       -0.9513210     2.0245130    -0.0000550
  H        1.9355930    -1.0603130     0.0000020
units angstrom
no_reorient  #important for SAPT in psi4, default
symmetry c1  #important for SAPT in psi4, default
}

set PROPERTIES_ORIGIN ["COM"]
properties('MP2/aug-cc-pvtz', properties = ['dipole'])
--------------------------------------------------------------------------

    Molecular point group: c1
  Charge       = 0
  Multiplicity = 1
  Basis Set: AUG-CC-PVTZ
    Blend: AUG-CC-PVTZ
  Basis Set: (AUG-CC-PVTZ AUX)
    Blend: AUG-CC-PVTZ-JKFIT

    Orbital Energies [Eh]
    ---------------------

    Doubly Occupied:

       1A    -15.625572     2A    -15.547265     3A    -11.298782
       4A    -11.262908     5A    -11.222676     6A     -1.338379
       7A     -1.166371     8A     -1.013012     9A     -0.841576
      10A     -0.818329    11A     -0.760735    12A     -0.623074
      13A     -0.602858    14A     -0.597129    15A     -0.588898
      16A     -0.439113    17A     -0.400326    18A     -0.319513

  @DF-RHF Final Energy:  -224.85955712387744

   => Energetics <=

    Nuclear Repulsion Energy =            163.9232979209977259
    One-Electron Energy =                -628.6326790771204287
    Two-Electron Energy =                 239.8498240322452943
    Total Energy =                       -224.8595571238774369
  Basis Set: (AUG-CC-PVTZ AUX)
    Blend: AUG-CC-PVTZ-RI
    Molecular point group: c1

    Geometry (in Angstrom), charge = 0, multiplicity = 1:

       Center              X                  Y                   Z               Mass
    ------------   -----------------  -----------------  -----------------  -----------------
         C           -1.148298299061    -0.193838498351     0.000033868642    12.000000000000
         C           -0.552488299061     1.048447501649    -0.000027131358    12.000000000000
         N            0.799088700939     0.792469501649     0.000012868642    14.003074004430
         C            0.962102700939    -0.563626498351     0.000005868642    12.000000000000
         N           -0.203100299061    -1.194844498351    -0.000027131358    14.003074004430
         H            1.537043700939     1.485110501649     0.000045868642     1.007825032230
         H           -2.010072099061    -0.379539198351     0.000053468642     1.007825032230
         H           -0.949687299061     2.052657501649    -0.000054131358     1.007825032230
         H            1.937226700939    -1.032168498351     0.000002868642     1.007825032230

  Basis Set: AUG-CC-PVTZ
    Blend: AUG-CC-PVTZ
  Basis Set: (AUG-CC-PVTZ AUX)
    Blend: AUG-CC-PVTZ-JKFIT
	 Reference Energy          =    -224.8595571238774369 [Eh]
	 Singles Energy            =      -0.0000000000000000 [Eh]
	 Same-Spin Energy          =      -0.2436579975139526 [Eh]
	 Opposite-Spin Energy      =      -0.7419395900381316 [Eh]
	 Correlation Energy        =      -0.9855975875520842 [Eh]
	 Total Energy              =    -225.8451547114295295 [Eh]

	 ================> DF-SCS-MP2 Energies <==================
	-----------------------------------------------------------
	 SCS Same-Spin Scale       =       0.3333333333333333 [-]
	 SCS Opposite-Spin Scale   =       1.2000000000000000 [-]
	 SCS Same-Spin Energy      =      -0.0812193325046509 [Eh]
	 SCS Opposite-Spin Energy  =      -0.8903275080457579 [Eh]
	 SCS Correlation Energy    =      -0.9715468405504087 [Eh]
	 SCS Total Energy          =    -225.8311039644278537 [Eh]
	-----------------------------------------------------------

  Dipole Moment: [D]
     X:     1.7719      Y:     3.4337      Z:     0.0001     Total:     3.8639

*** Psi4 exiting successfully. Buy a developer a beer!
