                               Psi4 1.3.2 release

  ==> Input File <==

--------------------------------------------------------------------------
#psi4
#
memory 32 gb

molecule  {
0 1
  C       -1.2765223    -0.1528985     0.0000266
  C       -0.5541220     1.0203030    -0.0000280
  N        0.7974550     0.7643250     0.0000120
  C        0.9604690    -0.5917710     0.0000050
  N       -0.2047340    -1.2229890    -0.0000280
  H        1.5354100     1.4569660     0.0000450
  H       -2.2072180    -0.4498140     0.0000570
  H       -0.9513210     2.0245130    -0.0000550
  H        1.9355930    -1.0603130     0.0000020
units angstrom
no_reorient  #important for SAPT in psi4, default
symmetry c1  #important for SAPT in psi4, default
}

set PROPERTIES_ORIGIN ["COM"]
properties('MP2/aug-cc-pvtz', properties = ['dipole'])
--------------------------------------------------------------------------

    Molecular point group: c1
  Charge       = 0
  Multiplicity = 1
  Basis Set: AUG-CC-PVTZ
    Blend: AUG-CC-PVTZ
  Basis Set: (AUG-CC-PVTZ AUX)
    Blend: AUG-CC-PVTZ-JKFIT

    Orbital Energies [Eh]
    ---------------------

    Doubly Occupied:

       1A    -15.623250     2A    -15.551807     3A    -11.301122
       4A    -11.275179     5A    -11.248539     6A     -1.325689
       7A     -1.139824     8A     -1.011718     9A     -0.822281
      10A     -0.811037    11A     -0.756009    12A     -0.634319
      13A     -0.598648    14A     -0.590776    15A     -0.564497
      16A     -0.421920    17A     -0.383605    18A     -0.331187

  @DF-RHF Final Energy:  -224.87073463704871

   => Energetics <=

    Nuclear Repulsion Energy =            160.7341096450124951
    One-Electron Energy =                -622.4268720817492522
    Two-Electron Energy =                 236.8220277996880441
    Total Energy =                       -224.8707346370487130
  Basis Set: (AUG-CC-PVTZ AUX)
    Blend: AUG-CC-PVTZ-RI
    Molecular point group: c1

    Geometry (in Angstrom), charge = 0, multiplicity = 1:

       Center              X                  Y                   Z               Mass
    ------------   -----------------  -----------------  -----------------  -----------------
         C           -1.249665347216    -0.136314602851     0.000028532256    12.000000000000
         C           -0.527265047216     1.036886897149    -0.000026067744    12.000000000000
         N            0.824311952784     0.780908897149     0.000013932256    14.003074004430
         C            0.987325952784    -0.575187102851     0.000006932256    12.000000000000
         N           -0.177877047216    -1.206405102851    -0.000026067744    14.003074004430
         H            1.562266952784     1.473549897149     0.000046932256     1.007825032230
         H           -2.180361047216    -0.433230102851     0.000058932256     1.007825032230
         H           -0.924464047216     2.041096897149    -0.000053067744     1.007825032230
         H            1.962449952784    -1.043729102851     0.000003932256     1.007825032230

  Basis Set: AUG-CC-PVTZ
    Blend: AUG-CC-PVTZ
  Basis Set: (AUG-CC-PVTZ AUX)
    Blend: AUG-CC-PVTZ-JKFIT
	 Reference Energy          =    -224.8707346370487130 [Eh]
	 Singles Energy            =      -0.0000000000000000 [Eh]
	 Same-Spin Energy          =      -0.2431045390771535 [Eh]
	 Opposite-Spin Energy      =      -0.7446001860444884 [Eh]
	 Correlation Energy        =      -0.9877047251216420 [Eh]
	 Total Energy              =    -225.8584393621703441 [Eh]

	 ================> DF-SCS-MP2 Energies <==================
	-----------------------------------------------------------
	 SCS Same-Spin Scale       =       0.3333333333333333 [-]
	 SCS Opposite-Spin Scale   =       1.2000000000000000 [-]
	 SCS Same-Spin Energy      =      -0.0810348463590512 [Eh]
	 SCS Opposite-Spin Energy  =      -0.8935202232533861 [Eh]
	 SCS Correlation Energy    =      -0.9745550696124372 [Eh]
	 SCS Total Energy          =    -225.8452897066611627 [Eh]
	-----------------------------------------------------------

  Dipole Moment: [D]
     X:     1.7411      Y:     3.4192      Z:     0.0001     Total:     3.8370

*** Psi4 exiting successfully. Buy a developer a beer!
