                               Psi4 1.4a3.dev225

  ==> Input File <==

--------------------------------------------------------------------------
#psi4
#
memory 32 gb

molecule  {
0 1
  C        1.1497620    -0.2229380     0.0000050
  C        0.5551260     1.0198140    -0.0000050
  N       -0.7967650     0.7650270     0.0000030
  C       -0.9609660    -0.5909490     0.0000020
  N        0.2035270    -1.2232130    -0.0000060
  H       -1.5484596     1.4722355    -0.0000041
  H        2.2067410    -0.4521160     0.0000090
  H        0.9528750     2.0238360    -0.0000060
  H       -1.9365860    -1.0585140     0.0000030
units angstrom
no_reorient  #important for SAPT in psi4, default
symmetry c1  #important for SAPT in psi4, default
}

set PROPERTIES_ORIGIN ["COM"]
properties('MP2/aug-cc-pvtz', properties = ['dipole'])
--------------------------------------------------------------------------

    Molecular point group: c1
  Charge       = 0
  Multiplicity = 1
  Basis Set: AUG-CC-PVTZ
    Blend: AUG-CC-PVTZ
  Basis Set: (AUG-CC-PVTZ AUX)
    Blend: AUG-CC-PVTZ-JKFIT

    Orbital Energies [Eh]
    ---------------------

    Doubly Occupied:

       1A    -15.627908     2A    -15.548474     3A    -11.299751
       4A    -11.263451     5A    -11.245776     6A     -1.338358
       7A     -1.164227     8A     -1.005115     9A     -0.824409
      10A     -0.798827    11A     -0.756141    12A     -0.606655
      13A     -0.602867    14A     -0.597683    15A     -0.568861
      16A     -0.438964    17A     -0.400751    18A     -0.319693

  @DF-RHF Final Energy:  -224.89472497587775

   => Energetics <=

    Nuclear Repulsion Energy =            162.7222698502125979
    One-Electron Energy =                -626.4181730146107157
    Two-Electron Energy =                 238.8011781885203959
    Total Energy =                       -224.8947249758777502
  Basis Set: (AUG-CC-PVTZ AUX)
    Blend: AUG-CC-PVTZ-RI
    Molecular point group: c1

    Geometry (in Angstrom), charge = 0, multiplicity = 1:

       Center              X                  Y                   Z               Mass
    ------------   -----------------  -----------------  -----------------  -----------------
         C            1.145471241092    -0.194366810526     0.000005236551    12.000000000000
         C            0.550835241092     1.048385189474    -0.000004763449    12.000000000000
         N           -0.801055758908     0.793598189474     0.000003236551    14.003074004430
         C           -0.965256758908    -0.562377810526     0.000002236551    12.000000000000
         N            0.199236241092    -1.194641810526    -0.000005763449    14.003074004430
         H           -1.552750358908     1.500806689474    -0.000003863449     1.007825032230
         H            2.202450241092    -0.423544810526     0.000009236551     1.007825032230
         H            0.948584241092     2.052407189474    -0.000005763449     1.007825032230
         H           -1.940876758908    -1.029942810526     0.000003236551     1.007825032230

  Basis Set: AUG-CC-PVTZ
    Blend: AUG-CC-PVTZ
  Basis Set: (AUG-CC-PVTZ AUX)
    Blend: AUG-CC-PVTZ-JKFIT
	 Reference Energy          =    -224.8947249758777502 [Eh]
	 Singles Energy            =      -0.0000000000000000 [Eh]
	 Same-Spin Energy          =      -0.2439534829824787 [Eh]
	 Opposite-Spin Energy      =      -0.7425745507339223 [Eh]
	 Correlation Energy        =      -0.9865280337164010 [Eh]
	 Total Energy              =    -225.8812530095941611 [Eh]

	 ================> DF-SCS-MP2 Energies <==================
	-----------------------------------------------------------
	 SCS Same-Spin Scale       =       0.3333333333333333 [-]
	 SCS Opposite-Spin Scale   =       1.2000000000000000 [-]
	 SCS Same-Spin Energy      =      -0.0813178276608262 [Eh]
	 SCS Opposite-Spin Energy  =      -0.8910894608807067 [Eh]
	 SCS Correlation Energy    =      -0.9724072885415329 [Eh]
	 SCS Total Energy          =    -225.8671322644192969 [Eh]
	-----------------------------------------------------------

  Dipole Moment: [D]
     X:    -1.7905      Y:     3.4210      Z:     0.0000     Total:     3.8613

*** Psi4 exiting successfully. Buy a developer a beer!
