                               Psi4 1.3.2 release

  ==> Input File <==

--------------------------------------------------------------------------
#psi4
#
memory 32 gb

molecule  {
0 1
  C       -1.1499320    -0.2219830     0.0000330
  C       -0.5541220     1.0203030    -0.0000280
  N        0.7502272     0.7578098     0.0000108
  C        0.9604690    -0.5917710     0.0000050
  N       -0.2047340    -1.2229890    -0.0000280
  H        1.5354100     1.4569660     0.0000450
  H       -2.2072180    -0.4498140     0.0000570
  H       -0.9513210     2.0245130    -0.0000550
  H        1.9355930    -1.0603130     0.0000020
units angstrom
no_reorient  #important for SAPT in psi4, default
symmetry c1  #important for SAPT in psi4, default
}

set PROPERTIES_ORIGIN ["COM"]
properties('MP2/aug-cc-pvtz', properties = ['dipole'])
--------------------------------------------------------------------------

    Molecular point group: c1
  Charge       = 0
  Multiplicity = 1
  Basis Set: AUG-CC-PVTZ
    Blend: AUG-CC-PVTZ
  Basis Set: (AUG-CC-PVTZ AUX)
    Blend: AUG-CC-PVTZ-JKFIT

    Orbital Energies [Eh]
    ---------------------

    Doubly Occupied:

       1A    -15.629574     2A    -15.548000     3A    -11.295617
       4A    -11.260710     5A    -11.241618     6A     -1.348564
       7A     -1.165103     8A     -1.008138     9A     -0.817857
      10A     -0.803431    11A     -0.758904    12A     -0.616795
      13A     -0.604509    14A     -0.595965    15A     -0.566567
      16A     -0.437749    17A     -0.401134    18A     -0.317100

  @DF-RHF Final Energy:  -224.89145460195360

   => Energetics <=

    Nuclear Repulsion Energy =            163.6296408987359143
    One-Electron Energy =                -628.2075174884632816
    Two-Electron Energy =                 239.6864219877737412
    Total Energy =                       -224.8914546019535976
  Basis Set: (AUG-CC-PVTZ AUX)
    Blend: AUG-CC-PVTZ-RI
    Molecular point group: c1

    Geometry (in Angstrom), charge = 0, multiplicity = 1:

       Center              X                  Y                   Z               Mass
    ------------   -----------------  -----------------  -----------------  -----------------
         C           -1.135682063573    -0.191873509917     0.000034050443    12.000000000000
         C           -0.539872063573     1.050412490083    -0.000026949557    12.000000000000
         N            0.764477136427     0.787919290083     0.000011850443    14.003074004430
         C            0.974718936427    -0.561661509917     0.000006050443    12.000000000000
         N           -0.190484063573    -1.192879509917    -0.000026949557    14.003074004430
         H            1.549659936427     1.487075490083     0.000046050443     1.007825032230
         H           -2.192968063573    -0.419704509917     0.000058050443     1.007825032230
         H           -0.937071063573     2.054622490083    -0.000053949557     1.007825032230
         H            1.949842936427    -1.030203509917     0.000003050443     1.007825032230

  Basis Set: AUG-CC-PVTZ
    Blend: AUG-CC-PVTZ
  Basis Set: (AUG-CC-PVTZ AUX)
    Blend: AUG-CC-PVTZ-JKFIT
	 Reference Energy          =    -224.8914546019535976 [Eh]
	 Singles Energy            =      -0.0000000000000000 [Eh]
	 Same-Spin Energy          =      -0.2445764673865553 [Eh]
	 Opposite-Spin Energy      =      -0.7426105124540059 [Eh]
	 Correlation Energy        =      -0.9871869798405611 [Eh]
	 Total Energy              =    -225.8786415817941702 [Eh]

	 ================> DF-SCS-MP2 Energies <==================
	-----------------------------------------------------------
	 SCS Same-Spin Scale       =       0.3333333333333333 [-]
	 SCS Opposite-Spin Scale   =       1.2000000000000000 [-]
	 SCS Same-Spin Energy      =      -0.0815254891288517 [Eh]
	 SCS Opposite-Spin Energy  =      -0.8911326149448070 [Eh]
	 SCS Correlation Energy    =      -0.9726581040736587 [Eh]
	 SCS Total Energy          =    -225.8641127060272424 [Eh]
	-----------------------------------------------------------

  Dipole Moment: [D]
     X:     1.8606      Y:     3.4874      Z:     0.0001     Total:     3.9527

*** Psi4 exiting successfully. Buy a developer a beer!
