                               Psi4 1.3.2 release

  ==> Input File <==

--------------------------------------------------------------------------
#psi4
#
memory 32 gb

molecule  {
0 1
  C       -1.1499320    -0.2219830     0.0000330
  C       -0.5541220     1.0203030    -0.0000280
  N        0.7974550     0.7643250     0.0000120
  C        0.9604690    -0.5917710     0.0000050
  N       -0.2047340    -1.2229890    -0.0000280
  H        1.4624961     1.3885294     0.0000417
  H       -2.2072180    -0.4498140     0.0000570
  H       -0.9513210     2.0245130    -0.0000550
  H        1.9355930    -1.0603130     0.0000020
units angstrom
no_reorient  #important for SAPT in psi4, default
symmetry c1  #important for SAPT in psi4, default
}

set PROPERTIES_ORIGIN ["COM"]
properties('MP2/aug-cc-pvtz', properties = ['dipole'])
--------------------------------------------------------------------------

    Molecular point group: c1
  Charge       = 0
  Multiplicity = 1
  Basis Set: AUG-CC-PVTZ
    Blend: AUG-CC-PVTZ
  Basis Set: (AUG-CC-PVTZ AUX)
    Blend: AUG-CC-PVTZ-JKFIT

    Orbital Energies [Eh]
    ---------------------

    Doubly Occupied:

       1A    -15.616749     2A    -15.549428     3A    -11.300875
       4A    -11.264234     5A    -11.246698     6A     -1.345422
       7A     -1.177107     8A     -1.007865     9A     -0.853416
      10A     -0.800377    11A     -0.762411    12A     -0.615809
      13A     -0.604357    14A     -0.599699    15A     -0.569952
      16A     -0.440286    17A     -0.402962    18A     -0.320749

  @DF-RHF Final Energy:  -224.88950787581479

   => Energetics <=

    Nuclear Repulsion Energy =            163.4391987921150076
    One-Electron Energy =                -627.7006173505487823
    Two-Electron Energy =                 239.3719106826189886
    Total Energy =                       -224.8895078758147861
  Basis Set: (AUG-CC-PVTZ AUX)
    Blend: AUG-CC-PVTZ-RI
    Molecular point group: c1

    Geometry (in Angstrom), charge = 0, multiplicity = 1:

       Center              X                  Y                   Z               Mass
    ------------   -----------------  -----------------  -----------------  -----------------
         C           -1.144322157241    -0.192200693104     0.000033852348    12.000000000000
         C           -0.548512157241     1.050085306896    -0.000027147652    12.000000000000
         N            0.803064842759     0.794107306896     0.000012852348    14.003074004430
         C            0.966078842759    -0.561988693104     0.000005852348    12.000000000000
         N           -0.199124157241    -1.193206693104    -0.000027147652    14.003074004430
         H            1.468105942759     1.418311706896     0.000042552348     1.007825032230
         H           -2.201608157241    -0.420031693104     0.000057852348     1.007825032230
         H           -0.945711157241     2.054295306896    -0.000054147652     1.007825032230
         H            1.941202842759    -1.030530693104     0.000002852348     1.007825032230

  Basis Set: AUG-CC-PVTZ
    Blend: AUG-CC-PVTZ
  Basis Set: (AUG-CC-PVTZ AUX)
    Blend: AUG-CC-PVTZ-JKFIT
	 Reference Energy          =    -224.8895078758147861 [Eh]
	 Singles Energy            =      -0.0000000000000000 [Eh]
	 Same-Spin Energy          =      -0.2430198994082533 [Eh]
	 Opposite-Spin Energy      =      -0.7406514870427403 [Eh]
	 Correlation Energy        =      -0.9836713864509936 [Eh]
	 Total Energy              =    -225.8731792622657792 [Eh]

	 ================> DF-SCS-MP2 Energies <==================
	-----------------------------------------------------------
	 SCS Same-Spin Scale       =       0.3333333333333333 [-]
	 SCS Opposite-Spin Scale   =       1.2000000000000000 [-]
	 SCS Same-Spin Energy      =      -0.0810066331360844 [Eh]
	 SCS Opposite-Spin Energy  =      -0.8887817844512883 [Eh]
	 SCS Correlation Energy    =      -0.9697884175873728 [Eh]
	 SCS Total Energy          =    -225.8592962934021671 [Eh]
	-----------------------------------------------------------

  Dipole Moment: [D]
     X:     1.6926      Y:     3.3229      Z:     0.0001     Total:     3.7291

*** Psi4 exiting successfully. Buy a developer a beer!
