                               Psi4 1.3.2 release

  ==> Input File <==

--------------------------------------------------------------------------
#psi4
#
memory 32 gb

molecule  {
0 1
  C       -1.1499320    -0.2219830     0.0000330
  C       -0.5541220     1.0203030    -0.0000280
  N        0.7974550     0.7643250     0.0000120
  C        0.9604690    -0.5917710     0.0000050
  N       -0.2047340    -1.2229890    -0.0000280
  H        1.5354100     1.4569660     0.0000450
  H       -2.2072180    -0.4498140     0.0000570
  H       -1.0248825     2.2104934    -0.0000600
  H        1.9355930    -1.0603130     0.0000020
units angstrom
no_reorient  #important for SAPT in psi4, default
symmetry c1  #important for SAPT in psi4, default
}

set PROPERTIES_ORIGIN ["COM"]
properties('MP2/aug-cc-pvtz', properties = ['dipole'])
--------------------------------------------------------------------------

    Molecular point group: c1
  Charge       = 0
  Multiplicity = 1
  Basis Set: AUG-CC-PVTZ
    Blend: AUG-CC-PVTZ
  Basis Set: (AUG-CC-PVTZ AUX)
    Blend: AUG-CC-PVTZ-JKFIT

    Orbital Energies [Eh]
    ---------------------

    Doubly Occupied:

       1A    -15.628089     2A    -15.550102     3A    -11.300990
       4A    -11.283838     5A    -11.247341     6A     -1.340736
       7A     -1.166964     8A     -1.001141     9A     -0.828395
      10A     -0.795786    11A     -0.740431    12A     -0.609834
      13A     -0.599433    14A     -0.570871    15A     -0.564109
      16A     -0.439312    17A     -0.402323    18A     -0.320700

  @DF-RHF Final Energy:  -224.87259791842274

   => Energetics <=

    Nuclear Repulsion Energy =            162.0030389037383713
    One-Electron Energy =                -624.9704856227722303
    Two-Electron Energy =                 238.0948488006111461
    Total Energy =                       -224.8725979184227413
  Basis Set: (AUG-CC-PVTZ AUX)
    Blend: AUG-CC-PVTZ-RI
    Molecular point group: c1

    Geometry (in Angstrom), charge = 0, multiplicity = 1:

       Center              X                  Y                   Z               Mass
    ------------   -----------------  -----------------  -----------------  -----------------
         C           -1.144312564473    -0.195969320945     0.000033877530    12.000000000000
         C           -0.548502564473     1.046316679055    -0.000027122470    12.000000000000
         N            0.803074435527     0.790338679055     0.000012877530    14.003074004430
         C            0.966088435527    -0.565757320945     0.000005877530    12.000000000000
         N           -0.199114564473    -1.196975320945    -0.000027122470    14.003074004430
         H            1.541029435527     1.482979679055     0.000045877530     1.007825032230
         H           -2.201598564473    -0.423800320945     0.000057877530     1.007825032230
         H           -1.019263064473     2.236507079055    -0.000059122470     1.007825032230
         H            1.941212435527    -1.034299320945     0.000002877530     1.007825032230

  Basis Set: AUG-CC-PVTZ
    Blend: AUG-CC-PVTZ
  Basis Set: (AUG-CC-PVTZ AUX)
    Blend: AUG-CC-PVTZ-JKFIT
	 Reference Energy          =    -224.8725979184227413 [Eh]
	 Singles Energy            =      -0.0000000000000000 [Eh]
	 Same-Spin Energy          =      -0.2443031559585634 [Eh]
	 Opposite-Spin Energy      =      -0.7442660025820650 [Eh]
	 Correlation Energy        =      -0.9885691585406284 [Eh]
	 Total Energy              =    -225.8611670769633690 [Eh]

	 ================> DF-SCS-MP2 Energies <==================
	-----------------------------------------------------------
	 SCS Same-Spin Scale       =       0.3333333333333333 [-]
	 SCS Opposite-Spin Scale   =       1.2000000000000000 [-]
	 SCS Same-Spin Energy      =      -0.0814343853195211 [Eh]
	 SCS Opposite-Spin Energy  =      -0.8931192030984779 [Eh]
	 SCS Correlation Energy    =      -0.9745535884179990 [Eh]
	 SCS Total Energy          =    -225.8471515068407314 [Eh]
	-----------------------------------------------------------

  Dipole Moment: [D]
     X:     1.7850      Y:     3.3868      Z:     0.0001     Total:     3.8284

*** Psi4 exiting successfully. Buy a developer a beer!
