                               Psi4 1.3.2 release

  ==> Input File <==

--------------------------------------------------------------------------
#psi4
#
memory 32 gb

molecule  {
0 1
  C       -1.1499320    -0.2219830     0.0000330
  C       -0.5111298     0.9987528    -0.0000311
  N        0.7974550     0.7643250     0.0000120
  C        0.9604690    -0.5917710     0.0000050
  N       -0.2047340    -1.2229890    -0.0000280
  H        1.5354100     1.4569660     0.0000450
  H       -2.2072180    -0.4498140     0.0000570
  H       -0.9513210     2.0245130    -0.0000550
  H        1.9355930    -1.0603130     0.0000020
units angstrom
no_reorient  #important for SAPT in psi4, default
symmetry c1  #important for SAPT in psi4, default
}

set PROPERTIES_ORIGIN ["COM"]
properties('MP2/aug-cc-pvtz', properties = ['dipole'])
--------------------------------------------------------------------------

    Molecular point group: c1
  Charge       = 0
  Multiplicity = 1
  Basis Set: AUG-CC-PVTZ
    Blend: AUG-CC-PVTZ
  Basis Set: (AUG-CC-PVTZ AUX)
    Blend: AUG-CC-PVTZ-JKFIT

    Orbital Energies [Eh]
    ---------------------

    Doubly Occupied:

       1A    -15.628290     2A    -15.549099     3A    -11.295990
       4A    -11.263744     5A    -11.242070     6A     -1.350760
       7A     -1.171917     8A     -1.004024     9A     -0.831157
      10A     -0.803554    11A     -0.755875    12A     -0.618861
      13A     -0.605775    14A     -0.589148    15A     -0.569090
      16A     -0.437754    17A     -0.404336    18A     -0.316167

  @DF-RHF Final Energy:  -224.89312561951724

   => Energetics <=

    Nuclear Repulsion Energy =            163.6283837764138127
    One-Electron Energy =                -628.1677969984099263
    Two-Electron Energy =                 239.6462876024789068
    Total Energy =                       -224.8931256195172352
  Basis Set: (AUG-CC-PVTZ AUX)
    Blend: AUG-CC-PVTZ-RI
    Molecular point group: c1

    Geometry (in Angstrom), charge = 0, multiplicity = 1:

       Center              X                  Y                   Z               Mass
    ------------   -----------------  -----------------  -----------------  -----------------
         C           -1.152984899154    -0.189413547399     0.000034350223    12.000000000000
         C           -0.514182699154     1.031322252601    -0.000029749777    12.000000000000
         N            0.794402100846     0.796894452601     0.000013350223    14.003074004430
         C            0.957416100846    -0.559201547399     0.000006350223    12.000000000000
         N           -0.207786899154    -1.190419547399    -0.000026649777    14.003074004430
         H            1.532357100846     1.489535452601     0.000046350223     1.007825032230
         H           -2.210270899154    -0.417244547399     0.000058350223     1.007825032230
         H           -0.954373899154     2.057082452601    -0.000053649777     1.007825032230
         H            1.932540100846    -1.027743547399     0.000003350223     1.007825032230

  Basis Set: AUG-CC-PVTZ
    Blend: AUG-CC-PVTZ
  Basis Set: (AUG-CC-PVTZ AUX)
    Blend: AUG-CC-PVTZ-JKFIT
	 Reference Energy          =    -224.8931256195172352 [Eh]
	 Singles Energy            =      -0.0000000000000000 [Eh]
	 Same-Spin Energy          =      -0.2441458495639882 [Eh]
	 Opposite-Spin Energy      =      -0.7419825851055499 [Eh]
	 Correlation Energy        =      -0.9861284346695380 [Eh]
	 Total Energy              =    -225.8792540541867595 [Eh]

	 ================> DF-SCS-MP2 Energies <==================
	-----------------------------------------------------------
	 SCS Same-Spin Scale       =       0.3333333333333333 [-]
	 SCS Opposite-Spin Scale   =       1.2000000000000000 [-]
	 SCS Same-Spin Energy      =      -0.0813819498546627 [Eh]
	 SCS Opposite-Spin Energy  =      -0.8903791021266599 [Eh]
	 SCS Correlation Energy    =      -0.9717610519813227 [Eh]
	 SCS Total Energy          =    -225.8648866714985672 [Eh]
	-----------------------------------------------------------

  Dipole Moment: [D]
     X:     1.8195      Y:     3.4446      Z:     0.0001     Total:     3.8957

*** Psi4 exiting successfully. Buy a developer a beer!
