                               Psi4 1.3.2 release

  ==> Input File <==

--------------------------------------------------------------------------
#psi4
#
memory 32 gb

molecule  {
0 1
  C       -1.1499320    -0.2219830     0.0000330
  C       -0.5583836     0.9966757    -0.0000283
  N        0.7974550     0.7643250     0.0000120
  C        0.9604690    -0.5917710     0.0000050
  N       -0.2047340    -1.2229890    -0.0000280
  H        1.5354100     1.4569660     0.0000450
  H       -2.2072180    -0.4498140     0.0000570
  H       -0.9513210     2.0245130    -0.0000550
  H        1.9355930    -1.0603130     0.0000020
units angstrom
no_reorient  #important for SAPT in psi4, default
symmetry c1  #important for SAPT in psi4, default
}

set PROPERTIES_ORIGIN ["COM"]
properties('MP2/aug-cc-pvtz', properties = ['dipole'])
--------------------------------------------------------------------------

    Molecular point group: c1
  Charge       = 0
  Multiplicity = 1
  Basis Set: AUG-CC-PVTZ
    Blend: AUG-CC-PVTZ
  Basis Set: (AUG-CC-PVTZ AUX)
    Blend: AUG-CC-PVTZ-JKFIT

    Orbital Energies [Eh]
    ---------------------

    Doubly Occupied:

       1A    -15.624771     2A    -15.547483     3A    -11.299827
       4A    -11.262476     5A    -11.242622     6A     -1.340614
       7A     -1.165410     8A     -1.008384     9A     -0.829001
      10A     -0.798632    11A     -0.755468    12A     -0.613105
      13A     -0.599063    14A     -0.595519    15A     -0.569429
      16A     -0.438505    17A     -0.400610    18A     -0.323390

  @DF-RHF Final Energy:  -224.89594469547018

   => Energetics <=

    Nuclear Repulsion Energy =            163.1795138364259969
    One-Electron Energy =                -627.3222953884690014
    Two-Electron Energy =                 239.2468368565728269
    Total Energy =                       -224.8959446954701775
  Basis Set: (AUG-CC-PVTZ AUX)
    Blend: AUG-CC-PVTZ-RI
    Molecular point group: c1

    Geometry (in Angstrom), charge = 0, multiplicity = 1:

       Center              X                  Y                   Z               Mass
    ------------   -----------------  -----------------  -----------------  -----------------
         C           -1.144650583045    -0.189047202089     0.000033856378    12.000000000000
         C           -0.553102183045     1.029611497911    -0.000027443622    12.000000000000
         N            0.802736416955     0.797260797911     0.000012856378    14.003074004430
         C            0.965750416955    -0.558835202089     0.000005856378    12.000000000000
         N           -0.199452583045    -1.190053202089    -0.000027143622    14.003074004430
         H            1.540691416955     1.489901797911     0.000045856378     1.007825032230
         H           -2.201936583045    -0.416878202089     0.000057856378     1.007825032230
         H           -0.946039583045     2.057448797911    -0.000054143622     1.007825032230
         H            1.940874416955    -1.027377202089     0.000002856378     1.007825032230

  Basis Set: AUG-CC-PVTZ
    Blend: AUG-CC-PVTZ
  Basis Set: (AUG-CC-PVTZ AUX)
    Blend: AUG-CC-PVTZ-JKFIT
	 Reference Energy          =    -224.8959446954701775 [Eh]
	 Singles Energy            =      -0.0000000000000000 [Eh]
	 Same-Spin Energy          =      -0.2434908936541301 [Eh]
	 Opposite-Spin Energy      =      -0.7416763279476459 [Eh]
	 Correlation Energy        =      -0.9851672216017759 [Eh]
	 Total Energy              =    -225.8811119170719621 [Eh]

	 ================> DF-SCS-MP2 Energies <==================
	-----------------------------------------------------------
	 SCS Same-Spin Scale       =       0.3333333333333333 [-]
	 SCS Opposite-Spin Scale   =       1.2000000000000000 [-]
	 SCS Same-Spin Energy      =      -0.0811636312180433 [Eh]
	 SCS Opposite-Spin Energy  =      -0.8900115935371751 [Eh]
	 SCS Correlation Energy    =      -0.9711752247552184 [Eh]
	 SCS Total Energy          =    -225.8671199202254058 [Eh]
	-----------------------------------------------------------

  Dipole Moment: [D]
     X:     1.7671      Y:     3.4011      Z:     0.0001     Total:     3.8328

*** Psi4 exiting successfully. Buy a developer a beer!
