                               Psi4 1.3.2 release

  ==> Input File <==

--------------------------------------------------------------------------
#psi4
#
memory 32 gb

molecule  {
0 1
  C       -1.1499320    -0.2219830     0.0000330
  C       -0.5541220     1.0203030    -0.0000280
  N        0.7974550     0.7643250     0.0000120
  C        0.9604690    -0.5917710     0.0000050
  N       -0.2047340    -1.2229890    -0.0000280
  H        1.5354100     1.4569660     0.0000450
  H       -2.2072180    -0.4498140     0.0000570
  H       -0.9881018     2.1175032    -0.0000575
  H        1.9355930    -1.0603130     0.0000020
units angstrom
no_reorient  #important for SAPT in psi4, default
symmetry c1  #important for SAPT in psi4, default
}

set PROPERTIES_ORIGIN ["COM"]
properties('MP2/aug-cc-pvtz', properties = ['dipole'])
--------------------------------------------------------------------------

    Molecular point group: c1
  Charge       = 0
  Multiplicity = 1
  Basis Set: AUG-CC-PVTZ
    Blend: AUG-CC-PVTZ
  Basis Set: (AUG-CC-PVTZ AUX)
    Blend: AUG-CC-PVTZ-JKFIT

    Orbital Energies [Eh]
    ---------------------

    Doubly Occupied:

       1A    -15.627071     2A    -15.549281     3A    -11.300363
       4A    -11.274202     5A    -11.246507     6A     -1.339944
       7A     -1.166418     8A     -1.002728     9A     -0.828278
      10A     -0.796676    11A     -0.747877    12A     -0.608934
      13A     -0.598638    14A     -0.584898    15A     -0.569284
      16A     -0.439245    17A     -0.401647    18A     -0.320146

  @DF-RHF Final Energy:  -224.88816758566131

   => Energetics <=

    Nuclear Repulsion Energy =            162.3935721356797615
    One-Electron Energy =                -625.7592056598807631
    Two-Electron Energy =                 238.4774659385397229
    Total Energy =                       -224.8881675856613072
  Basis Set: (AUG-CC-PVTZ AUX)
    Blend: AUG-CC-PVTZ-RI
    Molecular point group: c1

    Geometry (in Angstrom), charge = 0, multiplicity = 1:

       Center              X                  Y                   Z               Mass
    ------------   -----------------  -----------------  -----------------  -----------------
         C           -1.144857389583    -0.194591875819     0.000033840498    12.000000000000
         C           -0.549047389583     1.047694124181    -0.000027159502    12.000000000000
         N            0.802529610417     0.791716124181     0.000012840498    14.003074004430
         C            0.965543610417    -0.564379875819     0.000005840498    12.000000000000
         N           -0.199659389583    -1.195597875819    -0.000027159502    14.003074004430
         H            1.540484610417     1.484357124181     0.000045840498     1.007825032230
         H           -2.202143389583    -0.422422875819     0.000057840498     1.007825032230
         H           -0.983027189583     2.144894324181    -0.000056659502     1.007825032230
         H            1.940667610417    -1.032921875819     0.000002840498     1.007825032230

  Basis Set: AUG-CC-PVTZ
    Blend: AUG-CC-PVTZ
  Basis Set: (AUG-CC-PVTZ AUX)
    Blend: AUG-CC-PVTZ-JKFIT
	 Reference Energy          =    -224.8881675856613072 [Eh]
	 Singles Energy            =      -0.0000000000000000 [Eh]
	 Same-Spin Energy          =      -0.2440238175502767 [Eh]
	 Opposite-Spin Energy      =      -0.7430612197210509 [Eh]
	 Correlation Energy        =      -0.9870850372713276 [Eh]
	 Total Energy              =    -225.8752526229326349 [Eh]

	 ================> DF-SCS-MP2 Energies <==================
	-----------------------------------------------------------
	 SCS Same-Spin Scale       =       0.3333333333333333 [-]
	 SCS Opposite-Spin Scale   =       1.2000000000000000 [-]
	 SCS Same-Spin Energy      =      -0.0813412725167589 [Eh]
	 SCS Opposite-Spin Energy  =      -0.8916734636652610 [Eh]
	 SCS Correlation Energy    =      -0.9730147361820199 [Eh]
	 SCS Total Energy          =    -225.8611823218433301 [Eh]
	-----------------------------------------------------------

  Dipole Moment: [D]
     X:     1.7791      Y:     3.3999      Z:     0.0001     Total:     3.8372

*** Psi4 exiting successfully. Buy a developer a beer!
