                               Psi4 1.3.2 release

  ==> Input File <==

--------------------------------------------------------------------------
#psi4
#
memory 32 gb

molecule  {
0 1
  C       -1.1499320    -0.2219830     0.0000330
  C       -0.5978401     1.0403397    -0.0000249
  N        0.7974550     0.7643250     0.0000120
  C        0.9604690    -0.5917710     0.0000050
  N       -0.2047340    -1.2229890    -0.0000280
  H        1.5354100     1.4569660     0.0000450
  H       -2.2072180    -0.4498140     0.0000570
  H       -0.9513210     2.0245130    -0.0000550
  H        1.9355930    -1.0603130     0.0000020
units angstrom
no_reorient  #important for SAPT in psi4, default
symmetry c1  #important for SAPT in psi4, default
}

set PROPERTIES_ORIGIN ["COM"]
properties('MP2/aug-cc-pvtz', properties = ['dipole'])
--------------------------------------------------------------------------

    Molecular point group: c1
  Charge       = 0
  Multiplicity = 1
  Basis Set: AUG-CC-PVTZ
    Blend: AUG-CC-PVTZ
  Basis Set: (AUG-CC-PVTZ AUX)
    Blend: AUG-CC-PVTZ-JKFIT

    Orbital Energies [Eh]
    ---------------------

    Doubly Occupied:

       1A    -15.623887     2A    -15.548296     3A    -11.303735
       4A    -11.263898     5A    -11.250022     6A     -1.329779
       7A     -1.160596     8A     -1.007115     9A     -0.827868
      10A     -0.796597    11A     -0.757553    12A     -0.617656
      13A     -0.596156    14A     -0.591326    15A     -0.567988
      16A     -0.440472    17A     -0.398228    18A     -0.323446

  @DF-RHF Final Energy:  -224.89257138313923

   => Energetics <=

    Nuclear Repulsion Energy =            162.0865201429924127
    One-Electron Energy =                -625.1489490399154647
    Two-Electron Energy =                 238.1698575137838247
    Total Energy =                       -224.8925713831392272
  Basis Set: (AUG-CC-PVTZ AUX)
    Blend: AUG-CC-PVTZ-RI
    Molecular point group: c1

    Geometry (in Angstrom), charge = 0, multiplicity = 1:

       Center              X                  Y                   Z               Mass
    ------------   -----------------  -----------------  -----------------  -----------------
         C           -1.137691503701    -0.196748372758     0.000033256708    12.000000000000
         C           -0.585599603701     1.065574327242    -0.000024643292    12.000000000000
         N            0.809695496299     0.789559627242     0.000012256708    14.003074004430
         C            0.972709496299    -0.566536372758     0.000005256708    12.000000000000
         N           -0.192493503701    -1.197754372758    -0.000027743292    14.003074004430
         H            1.547650496299     1.482200627242     0.000045256708     1.007825032230
         H           -2.194977503701    -0.424579372758     0.000057256708     1.007825032230
         H           -0.939080503701     2.049747627242    -0.000054743292     1.007825032230
         H            1.947833496299    -1.035078372758     0.000002256708     1.007825032230

  Basis Set: AUG-CC-PVTZ
    Blend: AUG-CC-PVTZ
  Basis Set: (AUG-CC-PVTZ AUX)
    Blend: AUG-CC-PVTZ-JKFIT
	 Reference Energy          =    -224.8925713831392272 [Eh]
	 Singles Energy            =      -0.0000000000000000 [Eh]
	 Same-Spin Energy          =      -0.2434969300296787 [Eh]
	 Opposite-Spin Energy      =      -0.7426135576598533 [Eh]
	 Correlation Energy        =      -0.9861104876895320 [Eh]
	 Total Energy              =    -225.8786818708287569 [Eh]

	 ================> DF-SCS-MP2 Energies <==================
	-----------------------------------------------------------
	 SCS Same-Spin Scale       =       0.3333333333333333 [-]
	 SCS Opposite-Spin Scale   =       1.2000000000000000 [-]
	 SCS Same-Spin Energy      =      -0.0811656433432262 [Eh]
	 SCS Opposite-Spin Energy  =      -0.8911362691918239 [Eh]
	 SCS Correlation Energy    =      -0.9723019125350501 [Eh]
	 SCS Total Energy          =    -225.8648732956742720 [Eh]
	-----------------------------------------------------------

  Dipole Moment: [D]
     X:     1.7372      Y:     3.3613      Z:     0.0001     Total:     3.7837

*** Psi4 exiting successfully. Buy a developer a beer!
