                               Psi4 1.3.2 release

  ==> Input File <==

--------------------------------------------------------------------------
#psi4
#
memory 32 gb

molecule  {
0 1
  C       -1.0618231    -0.2605185     0.0000369
  C       -0.5541220     1.0203030    -0.0000280
  N        0.7974550     0.7643250     0.0000120
  C        0.9604690    -0.5917710     0.0000050
  N       -0.2047340    -1.2229890    -0.0000280
  H        1.5354100     1.4569660     0.0000450
  H       -2.2072180    -0.4498140     0.0000570
  H       -0.9513210     2.0245130    -0.0000550
  H        1.9355930    -1.0603130     0.0000020
units angstrom
no_reorient  #important for SAPT in psi4, default
symmetry c1  #important for SAPT in psi4, default
}

set PROPERTIES_ORIGIN ["COM"]
properties('MP2/aug-cc-pvtz', properties = ['dipole'])
--------------------------------------------------------------------------

    Molecular point group: c1
  Charge       = 0
  Multiplicity = 1
  Basis Set: AUG-CC-PVTZ
    Blend: AUG-CC-PVTZ
  Basis Set: (AUG-CC-PVTZ AUX)
    Blend: AUG-CC-PVTZ-JKFIT

    Orbital Energies [Eh]
    ---------------------

    Doubly Occupied:

       1A    -15.629766     2A    -15.545932     3A    -11.300071
       4A    -11.257607     5A    -11.245845     6A     -1.355025
       7A     -1.188291     8A     -1.002024     9A     -0.843091
      10A     -0.790759    11A     -0.755614    12A     -0.617787
      13A     -0.606445    14A     -0.602935    15A     -0.548821
      16A     -0.443705    17A     -0.416355    18A     -0.313035

  @DF-RHF Final Energy:  -224.88299760476824

   => Energetics <=

    Nuclear Repulsion Energy =            164.4548951058299338
    One-Electron Energy =                -629.7495706372335462
    Two-Electron Energy =                 240.4116779266354058
    Total Energy =                       -224.8829976047682351
  Basis Set: (AUG-CC-PVTZ AUX)
    Blend: AUG-CC-PVTZ-RI
    Molecular point group: c1

    Geometry (in Angstrom), charge = 0, multiplicity = 1:

       Center              X                  Y                   Z               Mass
    ------------   -----------------  -----------------  -----------------  -----------------
         C           -1.072833387545    -0.224953291303     0.000037015609    12.000000000000
         C           -0.565132287545     1.055868208697    -0.000027884391    12.000000000000
         N            0.786444712455     0.799890208697     0.000012115609    14.003074004430
         C            0.949458712455    -0.556205791303     0.000005115609    12.000000000000
         N           -0.215744287545    -1.187423791303    -0.000027884391    14.003074004430
         H            1.524399712455     1.492531208697     0.000045115609     1.007825032230
         H           -2.218228287545    -0.414248791303     0.000057115609     1.007825032230
         H           -0.962331287545     2.060078208697    -0.000054884391     1.007825032230
         H            1.924582712455    -1.024747791303     0.000002115609     1.007825032230

  Basis Set: AUG-CC-PVTZ
    Blend: AUG-CC-PVTZ
  Basis Set: (AUG-CC-PVTZ AUX)
    Blend: AUG-CC-PVTZ-JKFIT
	 Reference Energy          =    -224.8829976047682351 [Eh]
	 Singles Energy            =      -0.0000000000000000 [Eh]
	 Same-Spin Energy          =      -0.2447355516099131 [Eh]
	 Opposite-Spin Energy      =      -0.7421612278059884 [Eh]
	 Correlation Energy        =      -0.9868967794159015 [Eh]
	 Total Energy              =    -225.8698943841841356 [Eh]

	 ================> DF-SCS-MP2 Energies <==================
	-----------------------------------------------------------
	 SCS Same-Spin Scale       =       0.3333333333333333 [-]
	 SCS Opposite-Spin Scale   =       1.2000000000000000 [-]
	 SCS Same-Spin Energy      =      -0.0815785172033044 [Eh]
	 SCS Opposite-Spin Energy  =      -0.8905934733671860 [Eh]
	 SCS Correlation Energy    =      -0.9721719905704903 [Eh]
	 SCS Total Energy          =    -225.8551695953387366 [Eh]
	-----------------------------------------------------------

  Dipole Moment: [D]
     X:     1.8736      Y:     3.3730      Z:     0.0001     Total:     3.8584

*** Psi4 exiting successfully. Buy a developer a beer!
