                               Psi4 1.3.2 release

  ==> Input File <==

--------------------------------------------------------------------------
#psi4
#
memory 32 gb

molecule  {
0 1
  C       -1.1499320    -0.2219830     0.0000330
  C       -0.5541220     1.0203030    -0.0000280
  N        0.7974550     0.7643250     0.0000120
  C        0.9604690    -0.5917710     0.0000050
  N       -0.2047340    -1.2229890    -0.0000280
  H        1.3895823     1.3200928     0.0000385
  H       -2.2072180    -0.4498140     0.0000570
  H       -0.9513210     2.0245130    -0.0000550
  H        1.9355930    -1.0603130     0.0000020
units angstrom
no_reorient  #important for SAPT in psi4, default
symmetry c1  #important for SAPT in psi4, default
}

set PROPERTIES_ORIGIN ["COM"]
properties('MP2/aug-cc-pvtz', properties = ['dipole'])
--------------------------------------------------------------------------

    Molecular point group: c1
  Charge       = 0
  Multiplicity = 1
  Basis Set: AUG-CC-PVTZ
    Blend: AUG-CC-PVTZ
  Basis Set: (AUG-CC-PVTZ AUX)
    Blend: AUG-CC-PVTZ-JKFIT

    Orbital Energies [Eh]
    ---------------------

    Doubly Occupied:

       1A    -15.606039     2A    -15.550321     3A    -11.301964
       4A    -11.265025     5A    -11.247546     6A     -1.354535
       7A     -1.191449     8A     -1.010815     9A     -0.880758
      10A     -0.801743    11A     -0.765694    12A     -0.622055
      13A     -0.605512    14A     -0.601577    15A     -0.570845
      16A     -0.441420    17A     -0.405007    18A     -0.321688

  @DF-RHF Final Energy:  -224.85118087601512

   => Energetics <=

    Nuclear Repulsion Energy =            164.1558424670568286
    One-Electron Energy =                -628.9260614721295042
    Two-Electron Energy =                 239.9190381290575829
    Total Energy =                       -224.8511808760151212
  Basis Set: (AUG-CC-PVTZ AUX)
    Blend: AUG-CC-PVTZ-RI
    Molecular point group: c1

    Geometry (in Angstrom), charge = 0, multiplicity = 1:

       Center              X                  Y                   Z               Mass
    ------------   -----------------  -----------------  -----------------  -----------------
         C           -1.143242099790    -0.191186955516     0.000033899749    12.000000000000
         C           -0.547432099790     1.051099044484    -0.000027100251    12.000000000000
         N            0.804144900210     0.795121044484     0.000012899749    14.003074004430
         C            0.967158900210    -0.560974955516     0.000005899749    12.000000000000
         N           -0.198044099790    -1.192192955516    -0.000027100251    14.003074004430
         H            1.396272200210     1.350888844484     0.000039399749     1.007825032230
         H           -2.200528099790    -0.419017955516     0.000057899749     1.007825032230
         H           -0.944631099790     2.055309044484    -0.000054100251     1.007825032230
         H            1.942282900210    -1.029516955516     0.000002899749     1.007825032230

  Basis Set: AUG-CC-PVTZ
    Blend: AUG-CC-PVTZ
  Basis Set: (AUG-CC-PVTZ AUX)
    Blend: AUG-CC-PVTZ-JKFIT
	 Reference Energy          =    -224.8511808760151212 [Eh]
	 Singles Energy            =      -0.0000000000000000 [Eh]
	 Same-Spin Energy          =      -0.2423874322606188 [Eh]
	 Opposite-Spin Energy      =      -0.7396664828663415 [Eh]
	 Correlation Energy        =      -0.9820539151269603 [Eh]
	 Total Energy              =    -225.8332347911420754 [Eh]

	 ================> DF-SCS-MP2 Energies <==================
	-----------------------------------------------------------
	 SCS Same-Spin Scale       =       0.3333333333333333 [-]
	 SCS Opposite-Spin Scale   =       1.2000000000000000 [-]
	 SCS Same-Spin Energy      =      -0.0807958107535396 [Eh]
	 SCS Opposite-Spin Energy  =      -0.8875997794396098 [Eh]
	 SCS Correlation Energy    =      -0.9683955901931494 [Eh]
	 SCS Total Energy          =    -225.8195764662082752 [Eh]
	-----------------------------------------------------------

  Dipole Moment: [D]
     X:     1.6077      Y:     3.2411      Z:     0.0001     Total:     3.6179

*** Psi4 exiting successfully. Buy a developer a beer!
