                               Psi4 1.4a3.dev225

  ==> Input File <==

--------------------------------------------------------------------------
#psi4
#
memory 32 gb

molecule  {
0 1
  C        1.1497620    -0.2229380     0.0000050
  C        0.5551260     1.0198140    -0.0000050
  N       -0.7967650     0.7650270     0.0000030
  C       -0.9609660    -0.5909490     0.0000020
  N        0.2035270    -1.2232130    -0.0000060
  H       -1.5193264     1.4448265    -0.0000039
  H        2.2067410    -0.4521160     0.0000090
  H        0.9528750     2.0238360    -0.0000060
  H       -1.9365860    -1.0585140     0.0000030
units angstrom
no_reorient  #important for SAPT in psi4, default
symmetry c1  #important for SAPT in psi4, default
}

set PROPERTIES_ORIGIN ["COM"]
properties('MP2/aug-cc-pvtz', properties = ['dipole'])
--------------------------------------------------------------------------

    Molecular point group: c1
  Charge       = 0
  Multiplicity = 1
  Basis Set: AUG-CC-PVTZ
    Blend: AUG-CC-PVTZ
  Basis Set: (AUG-CC-PVTZ AUX)
    Blend: AUG-CC-PVTZ-JKFIT

    Orbital Energies [Eh]
    ---------------------

    Doubly Occupied:

       1A    -15.624431     2A    -15.548775     3A    -11.300107
       4A    -11.263702     5A    -11.246075     6A     -1.340355
       7A     -1.168028     8A     -1.005957     9A     -0.833315
      10A     -0.799337    11A     -0.758591    12A     -0.609877
      13A     -0.603428    14A     -0.598320    15A     -0.569217
      16A     -0.439407    17A     -0.401448    18A     -0.320054

  @DF-RHF Final Energy:  -224.89632989200757

   => Energetics <=

    Nuclear Repulsion Energy =            162.9460946944541320
    One-Electron Energy =                -626.8239982940284563
    Two-Electron Energy =                 238.9815737075667528
    Total Energy =                       -224.8963298920075715
  Basis Set: (AUG-CC-PVTZ AUX)
    Blend: AUG-CC-PVTZ-RI
    Molecular point group: c1

    Geometry (in Angstrom), charge = 0, multiplicity = 1:

       Center              X                  Y                   Z               Mass
    ------------   -----------------  -----------------  -----------------  -----------------
         C            1.145039696861    -0.193960806523     0.000005233589    12.000000000000
         C            0.550403696861     1.048791193477    -0.000004766411    12.000000000000
         N           -0.801487303139     0.794004193477     0.000003233589    14.003074004430
         C           -0.965688303139    -0.561971806523     0.000002233589    12.000000000000
         N            0.198804696861    -1.194235806523    -0.000005766411    14.003074004430
         H           -1.524048703139     1.473803693477    -0.000003666411     1.007825032230
         H            2.202018696861    -0.423138806523     0.000009233589     1.007825032230
         H            0.948152696861     2.052813193477    -0.000005766411     1.007825032230
         H           -1.941308303139    -1.029536806523     0.000003233589     1.007825032230

  Basis Set: AUG-CC-PVTZ
    Blend: AUG-CC-PVTZ
  Basis Set: (AUG-CC-PVTZ AUX)
    Blend: AUG-CC-PVTZ-JKFIT
	 Reference Energy          =    -224.8963298920075715 [Eh]
	 Singles Energy            =      -0.0000000000000000 [Eh]
	 Same-Spin Energy          =      -0.2436249890650049 [Eh]
	 Opposite-Spin Energy      =      -0.7418551352708552 [Eh]
	 Correlation Energy        =      -0.9854801243358602 [Eh]
	 Total Energy              =    -225.8818100163434224 [Eh]

	 ================> DF-SCS-MP2 Energies <==================
	-----------------------------------------------------------
	 SCS Same-Spin Scale       =       0.3333333333333333 [-]
	 SCS Opposite-Spin Scale   =       1.2000000000000000 [-]
	 SCS Same-Spin Energy      =      -0.0812083296883350 [Eh]
	 SCS Opposite-Spin Energy  =      -0.8902261623250263 [Eh]
	 SCS Correlation Energy    =      -0.9714344920133612 [Eh]
	 SCS Total Energy          =    -225.8677643840209441 [Eh]
	-----------------------------------------------------------

  Dipole Moment: [D]
     X:    -1.7571      Y:     3.3892      Z:     0.0000     Total:     3.8176

*** Psi4 exiting successfully. Buy a developer a beer!
