                               Psi4 1.3.2 release

  ==> Input File <==

--------------------------------------------------------------------------
#psi4
#
memory 32 gb

molecule  {
0 1
  C       -1.1499320    -0.2219830     0.0000330
  C       -0.4275317     0.9512185    -0.0000370
  N        0.7974550     0.7643250     0.0000120
  C        0.9604690    -0.5917710     0.0000050
  N       -0.2047340    -1.2229890    -0.0000280
  H        1.5354100     1.4569660     0.0000450
  H       -2.2072180    -0.4498140     0.0000570
  H       -0.9513210     2.0245130    -0.0000550
  H        1.9355930    -1.0603130     0.0000020
units angstrom
no_reorient  #important for SAPT in psi4, default
symmetry c1  #important for SAPT in psi4, default
}

set PROPERTIES_ORIGIN ["COM"]
properties('MP2/aug-cc-pvtz', properties = ['dipole'])
--------------------------------------------------------------------------

    Molecular point group: c1
  Charge       = 0
  Multiplicity = 1
  Basis Set: AUG-CC-PVTZ
    Blend: AUG-CC-PVTZ
  Basis Set: (AUG-CC-PVTZ AUX)
    Blend: AUG-CC-PVTZ-JKFIT

    Orbital Energies [Eh]
    ---------------------

    Doubly Occupied:

       1A    -15.631834     2A    -15.550656     3A    -11.288169
       4A    -11.265691     5A    -11.235262     6A     -1.379915
       7A     -1.184387     8A     -1.001354     9A     -0.840285
      10A     -0.816969    11A     -0.749997    12A     -0.639241
      13A     -0.625192    14A     -0.568216    15A     -0.557251
      16A     -0.434396    17A     -0.411766    18A     -0.308900

  @DF-RHF Final Energy:  -224.86614727436802

   => Energetics <=

    Nuclear Repulsion Energy =            165.3677884699704066
    One-Electron Energy =                -631.4889073120388048
    Two-Electron Energy =                 241.2549715677004087
    Total Energy =                       -224.8661472743680179
  Basis Set: (AUG-CC-PVTZ AUX)
    Blend: AUG-CC-PVTZ-RI
    Molecular point group: c1

    Geometry (in Angstrom), charge = 0, multiplicity = 1:

       Center              X                  Y                   Z               Mass
    ------------   -----------------  -----------------  -----------------  -----------------
         C           -1.167729385131    -0.181029758535     0.000035390827    12.000000000000
         C           -0.445329085131     0.992171741465    -0.000034609173    12.000000000000
         N            0.779657614869     0.805278241465     0.000014390827    14.003074004430
         C            0.942671614869    -0.550817758535     0.000007390827    12.000000000000
         N           -0.222531385131    -1.182035758535    -0.000025609173    14.003074004430
         H            1.517612614869     1.497919241465     0.000047390827     1.007825032230
         H           -2.225015385131    -0.408860758535     0.000059390827     1.007825032230
         H           -0.969118385131     2.065466241465    -0.000052609173     1.007825032230
         H            1.917795614869    -1.019359758535     0.000004390827     1.007825032230

  Basis Set: AUG-CC-PVTZ
    Blend: AUG-CC-PVTZ
  Basis Set: (AUG-CC-PVTZ AUX)
    Blend: AUG-CC-PVTZ-JKFIT
	 Reference Energy          =    -224.8661472743680179 [Eh]
	 Singles Energy            =      -0.0000000000000000 [Eh]
	 Same-Spin Energy          =      -0.2449852765970794 [Eh]
	 Opposite-Spin Energy      =      -0.7420534306116764 [Eh]
	 Correlation Energy        =      -0.9870387072087559 [Eh]
	 Total Energy              =    -225.8531859815767859 [Eh]

	 ================> DF-SCS-MP2 Energies <==================
	-----------------------------------------------------------
	 SCS Same-Spin Scale       =       0.3333333333333333 [-]
	 SCS Opposite-Spin Scale   =       1.2000000000000000 [-]
	 SCS Same-Spin Energy      =      -0.0816617588656931 [Eh]
	 SCS Opposite-Spin Energy  =      -0.8904641167340116 [Eh]
	 SCS Correlation Energy    =      -0.9721258755997048 [Eh]
	 SCS Total Energy          =    -225.8382731499677334 [Eh]
	-----------------------------------------------------------

  Dipole Moment: [D]
     X:     1.9192      Y:     3.5149      Z:     0.0001     Total:     4.0047

*** Psi4 exiting successfully. Buy a developer a beer!
