                               Psi4 1.3.2 release

  ==> Input File <==

--------------------------------------------------------------------------
#psi4
#
memory 32 gb

molecule  {
0 1
  C       -1.1144216    -0.1896059     0.0000348
  C       -0.5541220     1.0203030    -0.0000280
  N        0.7974550     0.7643250     0.0000120
  C        0.9604690    -0.5917710     0.0000050
  N       -0.2047340    -1.2229890    -0.0000280
  H        1.5354100     1.4569660     0.0000450
  H       -2.2072180    -0.4498140     0.0000570
  H       -0.9513210     2.0245130    -0.0000550
  H        1.9355930    -1.0603130     0.0000020
units angstrom
no_reorient  #important for SAPT in psi4, default
symmetry c1  #important for SAPT in psi4, default
}

set PROPERTIES_ORIGIN ["COM"]
properties('MP2/aug-cc-pvtz', properties = ['dipole'])
--------------------------------------------------------------------------

    Molecular point group: c1
  Charge       = 0
  Multiplicity = 1
  Basis Set: AUG-CC-PVTZ
    Blend: AUG-CC-PVTZ
  Basis Set: (AUG-CC-PVTZ AUX)
    Blend: AUG-CC-PVTZ-JKFIT

    Orbital Energies [Eh]
    ---------------------

    Doubly Occupied:

       1A    -15.623429     2A    -15.548039     3A    -11.301321
       4A    -11.257564     5A    -11.242677     6A     -1.343156
       7A     -1.165688     8A     -1.013010     9A     -0.829820
      10A     -0.793594    11A     -0.758216    12A     -0.612609
      13A     -0.602978    14A     -0.601014    15A     -0.551841
      16A     -0.444640    17A     -0.400144    18A     -0.327484

  @DF-RHF Final Energy:  -224.89363647678653

   => Energetics <=

    Nuclear Repulsion Energy =            163.5737115187671691
    One-Electron Energy =                -628.1002501568179923
    Two-Electron Energy =                 239.6329021612643260
    Total Energy =                       -224.8936364767865257
  Basis Set: (AUG-CC-PVTZ AUX)
    Blend: AUG-CC-PVTZ-RI
    Molecular point group: c1

    Geometry (in Angstrom), charge = 0, multiplicity = 1:

       Center              X                  Y                   Z               Mass
    ------------   -----------------  -----------------  -----------------  -----------------
         C           -1.116154908216    -0.166547791779     0.000035285993    12.000000000000
         C           -0.555855308216     1.043361108221    -0.000027514007    12.000000000000
         N            0.795721691784     0.787383108221     0.000012485993    14.003074004430
         C            0.958735691784    -0.568712891779     0.000005485993    12.000000000000
         N           -0.206467308216    -1.199930891779    -0.000027514007    14.003074004430
         H            1.533676691784     1.480024108221     0.000045485993     1.007825032230
         H           -2.208951308216    -0.426755891779     0.000057485993     1.007825032230
         H           -0.953054308216     2.047571108221    -0.000054514007     1.007825032230
         H            1.933859691784    -1.037254891779     0.000002485993     1.007825032230

  Basis Set: AUG-CC-PVTZ
    Blend: AUG-CC-PVTZ
  Basis Set: (AUG-CC-PVTZ AUX)
    Blend: AUG-CC-PVTZ-JKFIT
	 Reference Energy          =    -224.8936364767865257 [Eh]
	 Singles Energy            =      -0.0000000000000000 [Eh]
	 Same-Spin Energy          =      -0.2433232714770298 [Eh]
	 Opposite-Spin Energy      =      -0.7413492081689217 [Eh]
	 Correlation Energy        =      -0.9846724796459514 [Eh]
	 Total Energy              =    -225.8783089564324769 [Eh]

	 ================> DF-SCS-MP2 Energies <==================
	-----------------------------------------------------------
	 SCS Same-Spin Scale       =       0.3333333333333333 [-]
	 SCS Opposite-Spin Scale   =       1.2000000000000000 [-]
	 SCS Same-Spin Energy      =      -0.0811077571590099 [Eh]
	 SCS Opposite-Spin Energy  =      -0.8896190498027060 [Eh]
	 SCS Correlation Energy    =      -0.9707268069617159 [Eh]
	 SCS Total Energy          =    -225.8643632837482471 [Eh]
	-----------------------------------------------------------

  Dipole Moment: [D]
     X:     1.8063      Y:     3.4170      Z:     0.0001     Total:     3.8650

*** Psi4 exiting successfully. Buy a developer a beer!
