                               Psi4 1.3.2 release

  ==> Input File <==

--------------------------------------------------------------------------
#psi4
#
memory 32 gb

molecule  {
0 1
  C       -1.1499320    -0.2219830     0.0000330
  C       -0.5541220     1.0203030    -0.0000280
  N        0.7974550     0.7643250     0.0000120
  C        0.9604690    -0.5917710     0.0000050
  N       -0.2047340    -1.2229890    -0.0000280
  H        1.5354100     1.4569660     0.0000450
  H       -2.4027302    -0.4919443     0.0000614
  H       -0.9513210     2.0245130    -0.0000550
  H        1.9355930    -1.0603130     0.0000020
units angstrom
no_reorient  #important for SAPT in psi4, default
symmetry c1  #important for SAPT in psi4, default
}

set PROPERTIES_ORIGIN ["COM"]
properties('MP2/aug-cc-pvtz', properties = ['dipole'])
--------------------------------------------------------------------------

    Molecular point group: c1
  Charge       = 0
  Multiplicity = 1
  Basis Set: AUG-CC-PVTZ
    Blend: AUG-CC-PVTZ
  Basis Set: (AUG-CC-PVTZ AUX)
    Blend: AUG-CC-PVTZ-JKFIT

    Orbital Energies [Eh]
    ---------------------

    Doubly Occupied:

       1A    -15.627732     2A    -15.551154     3A    -11.301852
       4A    -11.267301     5A    -11.265316     6A     -1.341201
       7A     -1.167401     8A     -1.003381     9A     -0.828846
      10A     -0.786278    11A     -0.752711    12A     -0.606553
      13A     -0.603376    14A     -0.599749    15A     -0.533044
      16A     -0.438961    17A     -0.402811    18A     -0.321211

  @DF-RHF Final Energy:  -224.87293774836664

   => Energetics <=

    Nuclear Repulsion Energy =            162.0008057370265817
    One-Electron Energy =                -624.9497309176967974
    Two-Electron Energy =                 238.0759874323036058
    Total Energy =                       -224.8729377483666383
  Basis Set: (AUG-CC-PVTZ AUX)
    Blend: AUG-CC-PVTZ-RI
    Molecular point group: c1

    Geometry (in Angstrom), charge = 0, multiplicity = 1:

       Center              X                  Y                   Z               Mass
    ------------   -----------------  -----------------  -----------------  -----------------
         C           -1.142506133286    -0.192590363034     0.000033738289    12.000000000000
         C           -0.546696133286     1.049695636966    -0.000027261711    12.000000000000
         N            0.804880866714     0.793717636966     0.000012738289    14.003074004430
         C            0.967894866714    -0.562378363034     0.000005738289    12.000000000000
         N           -0.197308133286    -1.193596363034    -0.000027261711    14.003074004430
         H            1.542835866714     1.486358636966     0.000045738289     1.007825032230
         H           -2.395304333286    -0.462551663034     0.000062138289     1.007825032230
         H           -0.943895133286     2.053905636966    -0.000054261711     1.007825032230
         H            1.943018866714    -1.030920363034     0.000002738289     1.007825032230

  Basis Set: AUG-CC-PVTZ
    Blend: AUG-CC-PVTZ
  Basis Set: (AUG-CC-PVTZ AUX)
    Blend: AUG-CC-PVTZ-JKFIT
	 Reference Energy          =    -224.8729377483666383 [Eh]
	 Singles Energy            =      -0.0000000000000000 [Eh]
	 Same-Spin Energy          =      -0.2442365875487169 [Eh]
	 Opposite-Spin Energy      =      -0.7441451377114194 [Eh]
	 Correlation Energy        =      -0.9883817252601363 [Eh]
	 Total Energy              =    -225.8613194736267644 [Eh]

	 ================> DF-SCS-MP2 Energies <==================
	-----------------------------------------------------------
	 SCS Same-Spin Scale       =       0.3333333333333333 [-]
	 SCS Opposite-Spin Scale   =       1.2000000000000000 [-]
	 SCS Same-Spin Energy      =      -0.0814121958495723 [Eh]
	 SCS Opposite-Spin Energy  =      -0.8929741652537033 [Eh]
	 SCS Correlation Energy    =      -0.9743863611032756 [Eh]
	 SCS Total Energy          =    -225.8473241094699233 [Eh]
	-----------------------------------------------------------

  Dipole Moment: [D]
     X:     1.8367      Y:     3.3815      Z:     0.0001     Total:     3.8481

*** Psi4 exiting successfully. Buy a developer a beer!
