                               Psi4 1.3.2 release

  ==> Input File <==

--------------------------------------------------------------------------
#psi4
#
memory 32 gb

molecule  {
0 1
  C       -1.1499320    -0.2219830     0.0000330
  C       -0.5541220     1.0203030    -0.0000280
  N        0.8211470     0.7669634     0.0000126
  C        0.9604690    -0.5917710     0.0000050
  N       -0.2047340    -1.2229890    -0.0000280
  H        1.5354100     1.4569660     0.0000450
  H       -2.2072180    -0.4498140     0.0000570
  H       -0.9513210     2.0245130    -0.0000550
  H        1.9355930    -1.0603130     0.0000020
units angstrom
no_reorient  #important for SAPT in psi4, default
symmetry c1  #important for SAPT in psi4, default
}

set PROPERTIES_ORIGIN ["COM"]
properties('MP2/aug-cc-pvtz', properties = ['dipole'])
--------------------------------------------------------------------------

    Molecular point group: c1
  Charge       = 0
  Multiplicity = 1
  Basis Set: AUG-CC-PVTZ
    Blend: AUG-CC-PVTZ
  Basis Set: (AUG-CC-PVTZ AUX)
    Blend: AUG-CC-PVTZ-JKFIT

    Orbital Energies [Eh]
    ---------------------

    Doubly Occupied:

       1A    -15.624566     2A    -15.548975     3A    -11.302131
       4A    -11.265007     5A    -11.248075     6A     -1.335324
       7A     -1.167047     8A     -1.004212     9A     -0.834496
      10A     -0.797090    11A     -0.756751    12A     -0.611598
      13A     -0.598384    14A     -0.595142    15A     -0.570217
      16A     -0.439895    17A     -0.401353    18A     -0.321053

  @DF-RHF Final Energy:  -224.89533760075847

   => Energetics <=

    Nuclear Repulsion Energy =            162.4552682194923534
    One-Electron Energy =                -625.8585765093491773
    Two-Electron Energy =                 238.5079706890983289
    Total Energy =                       -224.8953376007584666
  Basis Set: (AUG-CC-PVTZ AUX)
    Blend: AUG-CC-PVTZ-RI
    Molecular point group: c1

    Geometry (in Angstrom), charge = 0, multiplicity = 1:

       Center              X                  Y                   Z               Mass
    ------------   -----------------  -----------------  -----------------  -----------------
         C           -1.150278366564    -0.193757450919     0.000033679977    12.000000000000
         C           -0.554468366564     1.048528549081    -0.000027320023    12.000000000000
         N            0.820800633436     0.795188949081     0.000013279977    14.003074004430
         C            0.960122633436    -0.563545450919     0.000005679977    12.000000000000
         N           -0.205080366564    -1.194763450919    -0.000027320023    14.003074004430
         H            1.535063633436     1.485191549081     0.000045679977     1.007825032230
         H           -2.207564366564    -0.421588450919     0.000057679977     1.007825032230
         H           -0.951667366564     2.052738549081    -0.000054320023     1.007825032230
         H            1.935246633436    -1.032087450919     0.000002679977     1.007825032230

  Basis Set: AUG-CC-PVTZ
    Blend: AUG-CC-PVTZ
  Basis Set: (AUG-CC-PVTZ AUX)
    Blend: AUG-CC-PVTZ-JKFIT
	 Reference Energy          =    -224.8953376007584666 [Eh]
	 Singles Energy            =      -0.0000000000000000 [Eh]
	 Same-Spin Energy          =      -0.2434465780575961 [Eh]
	 Opposite-Spin Energy      =      -0.7421284403662187 [Eh]
	 Correlation Energy        =      -0.9855750184238149 [Eh]
	 Total Energy              =    -225.8809126191822827 [Eh]

	 ================> DF-SCS-MP2 Energies <==================
	-----------------------------------------------------------
	 SCS Same-Spin Scale       =       0.3333333333333333 [-]
	 SCS Opposite-Spin Scale   =       1.2000000000000000 [-]
	 SCS Same-Spin Energy      =      -0.0811488593525320 [Eh]
	 SCS Opposite-Spin Energy  =      -0.8905541284394625 [Eh]
	 SCS Correlation Energy    =      -0.9717029877919945 [Eh]
	 SCS Total Energy          =    -225.8670405885504522 [Eh]
	-----------------------------------------------------------

  Dipole Moment: [D]
     X:     1.7312      Y:     3.3628      Z:     0.0001     Total:     3.7823

*** Psi4 exiting successfully. Buy a developer a beer!
