                               Psi4 1.3.2 release

  ==> Input File <==

--------------------------------------------------------------------------
#psi4
#
memory 32 gb

molecule  {
0 1
  C       -1.1499320    -0.2219830     0.0000330
  C       -0.5541220     1.0203030    -0.0000280
  N        0.7974550     0.7643250     0.0000120
  C        0.9604690    -0.5917710     0.0000050
  N       -0.2047340    -1.2229890    -0.0000280
  H        1.5354100     1.4569660     0.0000450
  H       -2.1094619    -0.4287489     0.0000548
  H       -0.9513210     2.0245130    -0.0000550
  H        1.9355930    -1.0603130     0.0000020
units angstrom
no_reorient  #important for SAPT in psi4, default
symmetry c1  #important for SAPT in psi4, default
}

set PROPERTIES_ORIGIN ["COM"]
properties('MP2/aug-cc-pvtz', properties = ['dipole'])
--------------------------------------------------------------------------

    Molecular point group: c1
  Charge       = 0
  Multiplicity = 1
  Basis Set: AUG-CC-PVTZ
    Blend: AUG-CC-PVTZ
  Basis Set: (AUG-CC-PVTZ AUX)
    Blend: AUG-CC-PVTZ-JKFIT

    Orbital Energies [Eh]
    ---------------------

    Doubly Occupied:

       1A    -15.625803     2A    -15.547784     3A    -11.299259
       4A    -11.263038     5A    -11.234243     6A     -1.338747
       7A     -1.165994     8A     -1.008330     9A     -0.831393
      10A     -0.809888    11A     -0.759324    12A     -0.613689
      13A     -0.602991    14A     -0.597463    15A     -0.581889
      16A     -0.439116    17A     -0.400608    18A     -0.319536

  @DF-RHF Final Energy:  -224.88965285725033

   => Energetics <=

    Nuclear Repulsion Energy =            163.3383321191079744
    One-Electron Energy =                -627.5777793117943020
    Two-Electron Energy =                 239.3497943354360018
    Total Energy =                       -224.8896528572503257
  Basis Set: (AUG-CC-PVTZ AUX)
    Blend: AUG-CC-PVTZ-RI
    Molecular point group: c1

    Geometry (in Angstrom), charge = 0, multiplicity = 1:

       Center              X                  Y                   Z               Mass
    ------------   -----------------  -----------------  -----------------  -----------------
         C           -1.146850257618    -0.193526463782     0.000033836054    12.000000000000
         C           -0.551040257618     1.048759536218    -0.000027163946    12.000000000000
         N            0.800536742382     0.792781536218     0.000012836054    14.003074004430
         C            0.963550742382    -0.563314463782     0.000005836054    12.000000000000
         N           -0.201652257618    -1.194532463782    -0.000027163946    14.003074004430
         H            1.538491742382     1.485422536218     0.000045836054     1.007825032230
         H           -2.106380157618    -0.400292363782     0.000055636054     1.007825032230
         H           -0.948239257618     2.052969536218    -0.000054163946     1.007825032230
         H            1.938674742382    -1.031856463782     0.000002836054     1.007825032230

  Basis Set: AUG-CC-PVTZ
    Blend: AUG-CC-PVTZ
  Basis Set: (AUG-CC-PVTZ AUX)
    Blend: AUG-CC-PVTZ-JKFIT
	 Reference Energy          =    -224.8896528572503257 [Eh]
	 Singles Energy            =      -0.0000000000000000 [Eh]
	 Same-Spin Energy          =      -0.2436719371044246 [Eh]
	 Opposite-Spin Energy      =      -0.7418579152966466 [Eh]
	 Correlation Energy        =      -0.9855298524010712 [Eh]
	 Total Energy              =    -225.8751827096513978 [Eh]

	 ================> DF-SCS-MP2 Energies <==================
	-----------------------------------------------------------
	 SCS Same-Spin Scale       =       0.3333333333333333 [-]
	 SCS Opposite-Spin Scale   =       1.2000000000000000 [-]
	 SCS Same-Spin Energy      =      -0.0812239790348082 [Eh]
	 SCS Opposite-Spin Energy  =      -0.8902294983559759 [Eh]
	 SCS Correlation Energy    =      -0.9714534773907840 [Eh]
	 SCS Total Energy          =    -225.8611063346411072 [Eh]
	-----------------------------------------------------------

  Dipole Moment: [D]
     X:     1.7678      Y:     3.4176      Z:     0.0001     Total:     3.8478

*** Psi4 exiting successfully. Buy a developer a beer!
