                               Psi4 1.4a3.dev225

  ==> Input File <==

--------------------------------------------------------------------------
#psi4
#
memory 32 gb

molecule  {
0 1
  C        1.1497620    -0.2229380     0.0000050
  C        0.5551260     1.0198140    -0.0000050
  N       -0.7967650     0.7650270     0.0000030
  C       -0.9609660    -0.5909490     0.0000020
  N        0.2035270    -1.2232130    -0.0000060
  H       -1.5338930     1.4585310    -0.0000040
  H        2.2067410    -0.4521160     0.0000090
  H        0.9602412     2.0424301    -0.0000060
  H       -1.9365860    -1.0585140     0.0000030
units angstrom
no_reorient  #important for SAPT in psi4, default
symmetry c1  #important for SAPT in psi4, default
}

set PROPERTIES_ORIGIN ["COM"]
properties('MP2/aug-cc-pvtz', properties = ['dipole'])
--------------------------------------------------------------------------

    Molecular point group: c1
  Charge       = 0
  Multiplicity = 1
  Basis Set: AUG-CC-PVTZ
    Blend: AUG-CC-PVTZ
  Basis Set: (AUG-CC-PVTZ AUX)
    Blend: AUG-CC-PVTZ-JKFIT

    Orbital Energies [Eh]
    ---------------------

    Doubly Occupied:

       1A    -15.626354     2A    -15.548741     3A    -11.300000
       4A    -11.265776     5A    -11.246023     6A     -1.339423
       7A     -1.166116     8A     -1.004853     9A     -0.828576
      10A     -0.798424    11A     -0.755381    12A     -0.608361
      13A     -0.599680    14A     -0.598109    15A     -0.569089
      16A     -0.439198    17A     -0.401190    18A     -0.319916

  @DF-RHF Final Energy:  -224.89520096452006

   => Energetics <=

    Nuclear Repulsion Energy =            162.7398745319833893
    One-Electron Energy =                -626.4397335865794503
    Two-Electron Energy =                 238.8046580900760034
    Total Energy =                       -224.8952009645200576
  Basis Set: (AUG-CC-PVTZ AUX)
    Blend: AUG-CC-PVTZ-RI
    Molecular point group: c1

    Geometry (in Angstrom), charge = 0, multiplicity = 1:

       Center              X                  Y                   Z               Mass
    ------------   -----------------  -----------------  -----------------  -----------------
         C            1.145146354938    -0.194439239187     0.000005235070    12.000000000000
         C            0.550510354938     1.048312760813    -0.000004764930    12.000000000000
         N           -0.801380645062     0.793525760813     0.000003235070    14.003074004430
         C           -0.965581645062    -0.562450239187     0.000002235070    12.000000000000
         N            0.198911354938    -1.194714239187    -0.000005764930    14.003074004430
         H           -1.538508645062     1.487029760813    -0.000003764930     1.007825032230
         H            2.202125354938    -0.423617239187     0.000009235070     1.007825032230
         H            0.955625554938     2.070928860813    -0.000005764930     1.007825032230
         H           -1.941201645062    -1.030015239187     0.000003235070     1.007825032230

  Basis Set: AUG-CC-PVTZ
    Blend: AUG-CC-PVTZ
  Basis Set: (AUG-CC-PVTZ AUX)
    Blend: AUG-CC-PVTZ-JKFIT
	 Reference Energy          =    -224.8952009645200576 [Eh]
	 Singles Energy            =      -0.0000000000000000 [Eh]
	 Same-Spin Energy          =      -0.2438288191384311 [Eh]
	 Opposite-Spin Energy      =      -0.7423441541403480 [Eh]
	 Correlation Energy        =      -0.9861729732787792 [Eh]
	 Total Energy              =    -225.8813739377988270 [Eh]

	 ================> DF-SCS-MP2 Energies <==================
	-----------------------------------------------------------
	 SCS Same-Spin Scale       =       0.3333333333333333 [-]
	 SCS Opposite-Spin Scale   =       1.2000000000000000 [-]
	 SCS Same-Spin Energy      =      -0.0812762730461437 [Eh]
	 SCS Opposite-Spin Energy  =      -0.8908129849684177 [Eh]
	 SCS Correlation Energy    =      -0.9720892580145614 [Eh]
	 SCS Total Energy          =    -225.8672902225346206 [Eh]
	-----------------------------------------------------------

  Dipole Moment: [D]
     X:    -1.7739      Y:     3.4052      Z:     0.0000     Total:     3.8395

*** Psi4 exiting successfully. Buy a developer a beer!
