                               Psi4 1.3.2 release

  ==> Input File <==

--------------------------------------------------------------------------
#psi4
#
memory 32 gb

molecule  {
0 1
  C       -1.1499320    -0.2219830     0.0000330
  C       -0.5325319     1.0097155    -0.0000295
  N        0.7974550     0.7643250     0.0000120
  C        0.9604690    -0.5917710     0.0000050
  N       -0.2047340    -1.2229890    -0.0000280
  H        1.5354100     1.4569660     0.0000450
  H       -2.2072180    -0.4498140     0.0000570
  H       -0.9513210     2.0245130    -0.0000550
  H        1.9355930    -1.0603130     0.0000020
units angstrom
no_reorient  #important for SAPT in psi4, default
symmetry c1  #important for SAPT in psi4, default
}

set PROPERTIES_ORIGIN ["COM"]
properties('MP2/aug-cc-pvtz', properties = ['dipole'])
--------------------------------------------------------------------------

    Molecular point group: c1
  Charge       = 0
  Multiplicity = 1
  Basis Set: AUG-CC-PVTZ
    Blend: AUG-CC-PVTZ
  Basis Set: (AUG-CC-PVTZ AUX)
    Blend: AUG-CC-PVTZ-JKFIT

    Orbital Energies [Eh]
    ---------------------

    Doubly Occupied:

       1A    -15.627297     2A    -15.548840     3A    -11.297967
       4A    -11.263586     5A    -11.243957     6A     -1.344806
       7A     -1.168968     8A     -1.004755     9A     -0.829785
      10A     -0.801075    11A     -0.756818    12A     -0.613379
      13A     -0.601749    14A     -0.596534    15A     -0.569155
      16A     -0.438477    17A     -0.402685    18A     -0.318002

  @DF-RHF Final Energy:  -224.89529599186778

   => Energetics <=

    Nuclear Repulsion Energy =            163.2251940376470145
    One-Electron Energy =                -627.3853124329810953
    Two-Electron Energy =                 239.2648224034662690
    Total Energy =                       -224.8952959918677834
  Basis Set: (AUG-CC-PVTZ AUX)
    Blend: AUG-CC-PVTZ-RI
    Molecular point group: c1

    Geometry (in Angstrom), charge = 0, multiplicity = 1:

       Center              X                  Y                   Z               Mass
    ------------   -----------------  -----------------  -----------------  -----------------
         C           -1.149210136769    -0.191347076707     0.000034068026    12.000000000000
         C           -0.531810036769     1.040351423293    -0.000028431974    12.000000000000
         N            0.798176863231     0.794960923293     0.000013068026    14.003074004430
         C            0.961190863231    -0.561135076707     0.000006068026    12.000000000000
         N           -0.204012136769    -1.192353076707    -0.000026931974    14.003074004430
         H            1.536131863231     1.487601923293     0.000046068026     1.007825032230
         H           -2.206496136769    -0.419178076707     0.000058068026     1.007825032230
         H           -0.950599136769     2.055148923293    -0.000053931974     1.007825032230
         H            1.936314863231    -1.029677076707     0.000003068026     1.007825032230

  Basis Set: AUG-CC-PVTZ
    Blend: AUG-CC-PVTZ
  Basis Set: (AUG-CC-PVTZ AUX)
    Blend: AUG-CC-PVTZ-JKFIT
	 Reference Energy          =    -224.8952959918677834 [Eh]
	 Singles Energy            =      -0.0000000000000000 [Eh]
	 Same-Spin Energy          =      -0.2439626587510960 [Eh]
	 Opposite-Spin Energy      =      -0.7420737971725897 [Eh]
	 Correlation Energy        =      -0.9860364559236857 [Eh]
	 Total Energy              =    -225.8813324477914648 [Eh]

	 ================> DF-SCS-MP2 Energies <==================
	-----------------------------------------------------------
	 SCS Same-Spin Scale       =       0.3333333333333333 [-]
	 SCS Opposite-Spin Scale   =       1.2000000000000000 [-]
	 SCS Same-Spin Energy      =      -0.0813208862503653 [Eh]
	 SCS Opposite-Spin Energy  =      -0.8904885566071076 [Eh]
	 SCS Correlation Energy    =      -0.9718094428574729 [Eh]
	 SCS Total Energy          =    -225.8671054347252607 [Eh]
	-----------------------------------------------------------

  Dipole Moment: [D]
     X:     1.7980      Y:     3.4244      Z:     0.0001     Total:     3.8677

*** Psi4 exiting successfully. Buy a developer a beer!
