                               Psi4 1.3.2 release

  ==> Input File <==

--------------------------------------------------------------------------
#psi4
#
memory 32 gb

molecule  {
0 1
  C       -1.1499320    -0.2219830     0.0000330
  C       -0.5541220     1.0203030    -0.0000280
  N        0.7974550     0.7643250     0.0000120
  C        0.9604690    -0.5917710     0.0000050
  N       -0.2047340    -1.2229890    -0.0000280
  H        1.5354100     1.4569660     0.0000450
  H       -2.2072180    -0.4498140     0.0000570
  H       -0.9513210     2.0245130    -0.0000550
  H        2.1158628    -1.1469317     0.0000014
units angstrom
no_reorient  #important for SAPT in psi4, default
symmetry c1  #important for SAPT in psi4, default
}

set PROPERTIES_ORIGIN ["COM"]
properties('MP2/aug-cc-pvtz', properties = ['dipole'])
--------------------------------------------------------------------------

    Molecular point group: c1
  Charge       = 0
  Multiplicity = 1
  Basis Set: AUG-CC-PVTZ
    Blend: AUG-CC-PVTZ
  Basis Set: (AUG-CC-PVTZ AUX)
    Blend: AUG-CC-PVTZ-JKFIT

    Orbital Energies [Eh]
    ---------------------

    Doubly Occupied:

       1A    -15.628089     2A    -15.550328     3A    -11.319943
       4A    -11.264436     5A    -11.247432     6A     -1.340506
       7A     -1.167669     8A     -1.000668     9A     -0.824764
      10A     -0.798119    11A     -0.735904    12A     -0.607522
      13A     -0.599389    14A     -0.592041    15A     -0.549562
      16A     -0.439072    17A     -0.402542    18A     -0.320620

  @DF-RHF Final Energy:  -224.87280661250853

   => Energetics <=

    Nuclear Repulsion Energy =            161.9857525352955179
    One-Electron Energy =                -624.9399088549334920
    Two-Electron Energy =                 238.0813497071294194
    Total Energy =                       -224.8728066125085263
  Basis Set: (AUG-CC-PVTZ AUX)
    Blend: AUG-CC-PVTZ-RI
    Molecular point group: c1

    Geometry (in Angstrom), charge = 0, multiplicity = 1:

       Center              X                  Y                   Z               Mass
    ------------   -----------------  -----------------  -----------------  -----------------
         C           -1.148072516456    -0.191931365315     0.000033812353    12.000000000000
         C           -0.552262516456     1.050354634685    -0.000027187647    12.000000000000
         N            0.799314483544     0.794376634685     0.000012812353    14.003074004430
         C            0.962328483544    -0.561719365315     0.000005812353    12.000000000000
         N           -0.202874516456    -1.192937365315    -0.000027187647    14.003074004430
         H            1.537269483544     1.487017634685     0.000045812353     1.007825032230
         H           -2.205358516456    -0.419762365315     0.000057812353     1.007825032230
         H           -0.949461516456     2.054564634685    -0.000054187647     1.007825032230
         H            2.117722283544    -1.116880065315     0.000002212353     1.007825032230

  Basis Set: AUG-CC-PVTZ
    Blend: AUG-CC-PVTZ
  Basis Set: (AUG-CC-PVTZ AUX)
    Blend: AUG-CC-PVTZ-JKFIT
	 Reference Energy          =    -224.8728066125085263 [Eh]
	 Singles Energy            =      -0.0000000000000000 [Eh]
	 Same-Spin Energy          =      -0.2443122370001476 [Eh]
	 Opposite-Spin Energy      =      -0.7441758438328029 [Eh]
	 Correlation Energy        =      -0.9884880808329506 [Eh]
	 Total Energy              =    -225.8612946933414776 [Eh]

	 ================> DF-SCS-MP2 Energies <==================
	-----------------------------------------------------------
	 SCS Same-Spin Scale       =       0.3333333333333333 [-]
	 SCS Opposite-Spin Scale   =       1.2000000000000000 [-]
	 SCS Same-Spin Energy      =      -0.0814374123333825 [Eh]
	 SCS Opposite-Spin Energy  =      -0.8930110125993634 [Eh]
	 SCS Correlation Energy    =      -0.9744484249327460 [Eh]
	 SCS Total Energy          =    -225.8472550374412720 [Eh]
	-----------------------------------------------------------

  Dipole Moment: [D]
     X:     1.7432      Y:     3.3908      Z:     0.0001     Total:     3.8127

*** Psi4 exiting successfully. Buy a developer a beer!
