                               Psi4 1.3.2 release

  ==> Input File <==

--------------------------------------------------------------------------
#psi4
#
memory 32 gb

molecule  {
0 1
  C       -1.1499320    -0.2219830     0.0000330
  C       -0.5443652     1.0673164    -0.0000273
  N        0.7974550     0.7643250     0.0000120
  C        0.9604690    -0.5917710     0.0000050
  N       -0.2047340    -1.2229890    -0.0000280
  H        1.5354100     1.4569660     0.0000450
  H       -2.2072180    -0.4498140     0.0000570
  H       -0.9513210     2.0245130    -0.0000550
  H        1.9355930    -1.0603130     0.0000020
units angstrom
no_reorient  #important for SAPT in psi4, default
symmetry c1  #important for SAPT in psi4, default
}

set PROPERTIES_ORIGIN ["COM"]
properties('MP2/aug-cc-pvtz', properties = ['dipole'])
--------------------------------------------------------------------------

    Molecular point group: c1
  Charge       = 0
  Multiplicity = 1
  Basis Set: AUG-CC-PVTZ
    Blend: AUG-CC-PVTZ
  Basis Set: (AUG-CC-PVTZ AUX)
    Blend: AUG-CC-PVTZ-JKFIT

    Orbital Energies [Eh]
    ---------------------

    Doubly Occupied:

       1A    -15.629416     2A    -15.551077     3A    -11.300235
       4A    -11.265722     5A    -11.252269     6A     -1.337196
       7A     -1.167787     8A     -1.000558     9A     -0.828899
      10A     -0.800461    11A     -0.761145    12A     -0.618588
      13A     -0.598469    14A     -0.596300    15A     -0.567266
      16A     -0.440245    17A     -0.402487    18A     -0.312991

  @DF-RHF Final Energy:  -224.89031967250764

   => Energetics <=

    Nuclear Repulsion Energy =            162.1775628097461777
    One-Electron Energy =                -625.2735425383357324
    Two-Electron Energy =                 238.2056600560819106
    Total Energy =                       -224.8903196725076441
  Basis Set: (AUG-CC-PVTZ AUX)
    Blend: AUG-CC-PVTZ-RI
    Molecular point group: c1

    Geometry (in Angstrom), charge = 0, multiplicity = 1:

       Center              X                  Y                   Z               Mass
    ------------   -----------------  -----------------  -----------------  -----------------
         C           -1.147123056729    -0.201506346622     0.000033680004    12.000000000000
         C           -0.541556256729     1.087793053378    -0.000026619996    12.000000000000
         N            0.800263943271     0.784801653378     0.000012680004    14.003074004430
         C            0.963277943271    -0.571294346622     0.000005680004    12.000000000000
         N           -0.201925056729    -1.202512346622    -0.000027319996    14.003074004430
         H            1.538218943271     1.477442653378     0.000045680004     1.007825032230
         H           -2.204409056729    -0.429337346622     0.000057680004     1.007825032230
         H           -0.948512056729     2.044989653378    -0.000054319996     1.007825032230
         H            1.938401943271    -1.039836346622     0.000002680004     1.007825032230

  Basis Set: AUG-CC-PVTZ
    Blend: AUG-CC-PVTZ
  Basis Set: (AUG-CC-PVTZ AUX)
    Blend: AUG-CC-PVTZ-JKFIT
	 Reference Energy          =    -224.8903196725076441 [Eh]
	 Singles Energy            =      -0.0000000000000000 [Eh]
	 Same-Spin Energy          =      -0.2445098545964088 [Eh]
	 Opposite-Spin Energy      =      -0.7435626987162058 [Eh]
	 Correlation Energy        =      -0.9880725533126147 [Eh]
	 Total Energy              =    -225.8783922258202495 [Eh]

	 ================> DF-SCS-MP2 Energies <==================
	-----------------------------------------------------------
	 SCS Same-Spin Scale       =       0.3333333333333333 [-]
	 SCS Opposite-Spin Scale   =       1.2000000000000000 [-]
	 SCS Same-Spin Energy      =      -0.0815032848654696 [Eh]
	 SCS Opposite-Spin Energy  =      -0.8922752384594470 [Eh]
	 SCS Correlation Energy    =      -0.9737785233249165 [Eh]
	 SCS Total Energy          =    -225.8640981958325540 [Eh]
	-----------------------------------------------------------

  Dipole Moment: [D]
     X:     1.7996      Y:     3.3962      Z:     0.0001     Total:     3.8435

*** Psi4 exiting successfully. Buy a developer a beer!
