                               Psi4 1.3.2 release

  ==> Input File <==

--------------------------------------------------------------------------
#psi4
#
memory 32 gb

molecule  {
0 1
  C       -1.1672580    -0.2386314     0.0000321
  C       -0.5541220     1.0203030    -0.0000280
  N        0.7974550     0.7643250     0.0000120
  C        0.9604690    -0.5917710     0.0000050
  N       -0.2047340    -1.2229890    -0.0000280
  H        1.5354100     1.4569660     0.0000450
  H       -2.2072180    -0.4498140     0.0000570
  H       -0.9513210     2.0245130    -0.0000550
  H        1.9355930    -1.0603130     0.0000020
units angstrom
no_reorient  #important for SAPT in psi4, default
symmetry c1  #important for SAPT in psi4, default
}

set PROPERTIES_ORIGIN ["COM"]
properties('MP2/aug-cc-pvtz', properties = ['dipole'])
--------------------------------------------------------------------------

    Molecular point group: c1
  Charge       = 0
  Multiplicity = 1
  Basis Set: AUG-CC-PVTZ
    Blend: AUG-CC-PVTZ
  Basis Set: (AUG-CC-PVTZ AUX)
    Blend: AUG-CC-PVTZ-JKFIT

    Orbital Energies [Eh]
    ---------------------

    Doubly Occupied:

       1A    -15.627712     2A    -15.549056     3A    -11.299277
       4A    -11.266497     5A    -11.247584     6A     -1.337695
       7A     -1.166344     8A     -1.002213     9A     -0.828787
      10A     -0.801651    11A     -0.757126    12A     -0.608435
      13A     -0.601407    14A     -0.596721    15A     -0.576630
      16A     -0.436349    17A     -0.401684    18A     -0.316194

  @DF-RHF Final Energy:  -224.89421133901826

   => Energetics <=

    Nuclear Repulsion Energy =            162.4804970080346038
    One-Electron Energy =                -625.9066893990167273
    Two-Electron Energy =                 238.5319810519638679
    Total Energy =                       -224.8942113390182556
  Basis Set: (AUG-CC-PVTZ AUX)
    Blend: AUG-CC-PVTZ-RI
    Molecular point group: c1

    Geometry (in Angstrom), charge = 0, multiplicity = 1:

       Center              X                  Y                   Z               Mass
    ------------   -----------------  -----------------  -----------------  -----------------
         C           -1.159672369641    -0.206926494815     0.000033062202    12.000000000000
         C           -0.546536369641     1.052007905185    -0.000027037798    12.000000000000
         N            0.805040630359     0.796029905185     0.000012962202    14.003074004430
         C            0.968054630359    -0.560066094815     0.000005962202    12.000000000000
         N           -0.197148369641    -1.191284094815    -0.000027037798    14.003074004430
         H            1.542995630359     1.488670905185     0.000045962202     1.007825032230
         H           -2.199632369641    -0.418109094815     0.000057962202     1.007825032230
         H           -0.943735369641     2.056217905185    -0.000054037798     1.007825032230
         H            1.943178630359    -1.028608094815     0.000002962202     1.007825032230

  Basis Set: AUG-CC-PVTZ
    Blend: AUG-CC-PVTZ
  Basis Set: (AUG-CC-PVTZ AUX)
    Blend: AUG-CC-PVTZ-JKFIT
	 Reference Energy          =    -224.8942113390182556 [Eh]
	 Singles Energy            =      -0.0000000000000000 [Eh]
	 Same-Spin Energy          =      -0.2440785194731631 [Eh]
	 Opposite-Spin Energy      =      -0.7427655536191595 [Eh]
	 Correlation Energy        =      -0.9868440730923227 [Eh]
	 Total Energy              =    -225.8810554121105838 [Eh]

	 ================> DF-SCS-MP2 Energies <==================
	-----------------------------------------------------------
	 SCS Same-Spin Scale       =       0.3333333333333333 [-]
	 SCS Opposite-Spin Scale   =       1.2000000000000000 [-]
	 SCS Same-Spin Energy      =      -0.0813595064910544 [Eh]
	 SCS Opposite-Spin Energy  =      -0.8913186643429915 [Eh]
	 SCS Correlation Energy    =      -0.9726781708340458 [Eh]
	 SCS Total Energy          =    -225.8668895098523137 [Eh]
	-----------------------------------------------------------

  Dipole Moment: [D]
     X:     1.7663      Y:     3.3957      Z:     0.0001     Total:     3.8276

*** Psi4 exiting successfully. Buy a developer a beer!
