                               Psi4 1.3.2 release

  ==> Input File <==

--------------------------------------------------------------------------
#psi4
#
memory 32 gb

molecule  {
0 1
  C       -1.1499320    -0.2219830     0.0000330
  C       -0.5541220     1.0203030    -0.0000280
  N        0.7032556     0.7496503     0.0000096
  C        0.9604690    -0.5917710     0.0000050
  N       -0.2047340    -1.2229890    -0.0000280
  H        1.5354100     1.4569660     0.0000450
  H       -2.2072180    -0.4498140     0.0000570
  H       -0.9513210     2.0245130    -0.0000550
  H        1.9355930    -1.0603130     0.0000020
units angstrom
no_reorient  #important for SAPT in psi4, default
symmetry c1  #important for SAPT in psi4, default
}

set PROPERTIES_ORIGIN ["COM"]
properties('MP2/aug-cc-pvtz', properties = ['dipole'])
--------------------------------------------------------------------------

    Molecular point group: c1
  Charge       = 0
  Multiplicity = 1
  Basis Set: AUG-CC-PVTZ
    Blend: AUG-CC-PVTZ
  Basis Set: (AUG-CC-PVTZ AUX)
    Blend: AUG-CC-PVTZ-JKFIT

    Orbital Energies [Eh]
    ---------------------

    Doubly Occupied:

       1A    -15.632877     2A    -15.547500     3A    -11.291479
       4A    -11.258000     5A    -11.237446     6A     -1.359499
       7A     -1.165456     8A     -1.010611     9A     -0.808528
      10A     -0.807471    11A     -0.760599    12A     -0.627365
      13A     -0.612113    14A     -0.584662    15A     -0.563714
      16A     -0.436376    17A     -0.401825    18A     -0.314038

  @DF-RHF Final Energy:  -224.87939194915518

   => Energetics <=

    Nuclear Repulsion Energy =            164.4775609906542115
    One-Electron Energy =                -629.8747874158973445
    Two-Electron Energy =                 240.5178344760879838
    Total Energy =                       -224.8793919491551776
  Basis Set: (AUG-CC-PVTZ AUX)
    Blend: AUG-CC-PVTZ-RI
    Molecular point group: c1

    Geometry (in Angstrom), charge = 0, multiplicity = 1:

       Center              X                  Y                   Z               Mass
    ------------   -----------------  -----------------  -----------------  -----------------
         C           -1.126014640574    -0.190194168827     0.000034297420    12.000000000000
         C           -0.530204640574     1.052091831173    -0.000026702580    12.000000000000
         N            0.727172959426     0.781439131173     0.000010897420    14.003074004430
         C            0.984386359426    -0.559982168827     0.000006297420    12.000000000000
         N           -0.180816640574    -1.191200168827    -0.000026702580    14.003074004430
         H            1.559327359426     1.488754831173     0.000046297420     1.007825032230
         H           -2.183300640574    -0.418025168827     0.000058297420     1.007825032230
         H           -0.927403640574     2.056301831173    -0.000053702580     1.007825032230
         H            1.959510359426    -1.028524168827     0.000003297420     1.007825032230

  Basis Set: AUG-CC-PVTZ
    Blend: AUG-CC-PVTZ
  Basis Set: (AUG-CC-PVTZ AUX)
    Blend: AUG-CC-PVTZ-JKFIT
	 Reference Energy          =    -224.8793919491551776 [Eh]
	 Singles Energy            =      -0.0000000000000000 [Eh]
	 Same-Spin Energy          =      -0.2454638152458121 [Eh]
	 Opposite-Spin Energy      =      -0.7433130388319259 [Eh]
	 Correlation Energy        =      -0.9887768540777380 [Eh]
	 Total Energy              =    -225.8681688032329191 [Eh]

	 ================> DF-SCS-MP2 Energies <==================
	-----------------------------------------------------------
	 SCS Same-Spin Scale       =       0.3333333333333333 [-]
	 SCS Opposite-Spin Scale   =       1.2000000000000000 [-]
	 SCS Same-Spin Energy      =      -0.0818212717486040 [Eh]
	 SCS Opposite-Spin Energy  =      -0.8919756465983111 [Eh]
	 SCS Correlation Energy    =      -0.9737969183469151 [Eh]
	 SCS Total Energy          =    -225.8531888675020980 [Eh]
	-----------------------------------------------------------

  Dipole Moment: [D]
     X:     1.9291      Y:     3.5726      Z:     0.0001     Total:     4.0602

*** Psi4 exiting successfully. Buy a developer a beer!
