                               Psi4 1.3.2 release

  ==> Input File <==

--------------------------------------------------------------------------
#psi4
#
memory 32 gb

molecule  {
0 1
  C       -1.1499320    -0.2219830     0.0000330
  C       -0.5541220     1.0203030    -0.0000280
  N        0.7974550     0.7643250     0.0000120
  C        0.9604690    -0.5917710     0.0000050
  N       -0.2047340    -1.2229890    -0.0000280
  H        1.5354100     1.4569660     0.0000450
  H       -2.3049741    -0.4708791     0.0000592
  H       -0.9513210     2.0245130    -0.0000550
  H        1.9355930    -1.0603130     0.0000020
units angstrom
no_reorient  #important for SAPT in psi4, default
symmetry c1  #important for SAPT in psi4, default
}

set PROPERTIES_ORIGIN ["COM"]
properties('MP2/aug-cc-pvtz', properties = ['dipole'])
--------------------------------------------------------------------------

    Molecular point group: c1
  Charge       = 0
  Multiplicity = 1
  Basis Set: AUG-CC-PVTZ
    Blend: AUG-CC-PVTZ
  Basis Set: (AUG-CC-PVTZ AUX)
    Blend: AUG-CC-PVTZ-JKFIT

    Orbital Energies [Eh]
    ---------------------

    Doubly Occupied:

       1A    -15.626882     2A    -15.549754     3A    -11.300787
       4A    -11.264453     5A    -11.256889     6A     -1.340164
       7A     -1.166585     8A     -1.003987     9A     -0.828422
      10A     -0.791050    11A     -0.755116    12A     -0.606471
      13A     -0.603274    14A     -0.598777    15A     -0.551874
      16A     -0.439172    17A     -0.401853    18A     -0.320390

  @DF-RHF Final Energy:  -224.88828385274417

   => Energetics <=

    Nuclear Repulsion Energy =            162.3924456912824041
    One-Electron Energy =                -625.7496596606749790
    Two-Electron Energy =                 238.4689301166483801
    Total Energy =                       -224.8882838527441663
  Basis Set: (AUG-CC-PVTZ AUX)
    Blend: AUG-CC-PVTZ-RI
    Molecular point group: c1

    Geometry (in Angstrom), charge = 0, multiplicity = 1:

       Center              X                  Y                   Z               Mass
    ------------   -----------------  -----------------  -----------------  -----------------
         C           -1.143954174730    -0.192902397604     0.000033770878    12.000000000000
         C           -0.548144174730     1.049383602396    -0.000027229122    12.000000000000
         N            0.803432825270     0.793405602396     0.000012770878    14.003074004430
         C            0.966446825270    -0.562690397604     0.000005770878    12.000000000000
         N           -0.198756174730    -1.193908397604    -0.000027229122    14.003074004430
         H            1.541387825270     1.486046602396     0.000045770878     1.007825032230
         H           -2.298996274730    -0.441798497604     0.000059970878     1.007825032230
         H           -0.945343174730     2.053593602396    -0.000054229122     1.007825032230
         H            1.941570825270    -1.031232397604     0.000002770878     1.007825032230

  Basis Set: AUG-CC-PVTZ
    Blend: AUG-CC-PVTZ
  Basis Set: (AUG-CC-PVTZ AUX)
    Blend: AUG-CC-PVTZ-JKFIT
	 Reference Energy          =    -224.8882838527441663 [Eh]
	 Singles Energy            =      -0.0000000000000000 [Eh]
	 Same-Spin Energy          =      -0.2439908800244008 [Eh]
	 Opposite-Spin Energy      =      -0.7429940667895890 [Eh]
	 Correlation Energy        =      -0.9869849468139898 [Eh]
	 Total Energy              =    -225.8752687995581425 [Eh]

	 ================> DF-SCS-MP2 Energies <==================
	-----------------------------------------------------------
	 SCS Same-Spin Scale       =       0.3333333333333333 [-]
	 SCS Opposite-Spin Scale   =       1.2000000000000000 [-]
	 SCS Same-Spin Energy      =      -0.0813302933414669 [Eh]
	 SCS Opposite-Spin Energy  =      -0.8915928801475068 [Eh]
	 SCS Correlation Energy    =      -0.9729231734889737 [Eh]
	 SCS Total Energy          =    -225.8612070262331315 [Eh]
	-----------------------------------------------------------

  Dipole Moment: [D]
     X:     1.8003      Y:     3.3916      Z:     0.0001     Total:     3.8398

*** Psi4 exiting successfully. Buy a developer a beer!
