                               Psi4 1.3.2 release

  ==> Input File <==

--------------------------------------------------------------------------
#psi4
#
memory 32 gb

molecule  {
0 1
  C       -1.1499320    -0.2219830     0.0000330
  C       -0.4689159     0.9757152    -0.0000340
  N        0.7974550     0.7643250     0.0000120
  C        0.9604690    -0.5917710     0.0000050
  N       -0.2047340    -1.2229890    -0.0000280
  H        1.5354100     1.4569660     0.0000450
  H       -2.2072180    -0.4498140     0.0000570
  H       -0.9513210     2.0245130    -0.0000550
  H        1.9355930    -1.0603130     0.0000020
units angstrom
no_reorient  #important for SAPT in psi4, default
symmetry c1  #important for SAPT in psi4, default
}

set PROPERTIES_ORIGIN ["COM"]
properties('MP2/aug-cc-pvtz', properties = ['dipole'])
--------------------------------------------------------------------------

    Molecular point group: c1
  Charge       = 0
  Multiplicity = 1
  Basis Set: AUG-CC-PVTZ
    Blend: AUG-CC-PVTZ
  Basis Set: (AUG-CC-PVTZ AUX)
    Blend: AUG-CC-PVTZ-JKFIT

    Orbital Energies [Eh]
    ---------------------

    Doubly Occupied:

       1A    -15.630123     2A    -15.549761     3A    -11.292032
       4A    -11.264448     5A    -11.238510     6A     -1.364239
       7A     -1.178025     8A     -1.002639     9A     -0.834987
      10A     -0.809697    11A     -0.753243    12A     -0.629440
      13A     -0.614778    14A     -0.573641    15A     -0.568645
      16A     -0.436189    17A     -0.407887    18A     -0.312502

  @DF-RHF Final Energy:  -224.88352470601788

   => Energetics <=

    Nuclear Repulsion Energy =            164.4722319889824007
    One-Electron Energy =                -629.7899402924679180
    Two-Electron Energy =                 240.4341835974676371
    Total Energy =                       -224.8835247060178801
  Basis Set: (AUG-CC-PVTZ AUX)
    Blend: AUG-CC-PVTZ-RI
    Molecular point group: c1

    Geometry (in Angstrom), charge = 0, multiplicity = 1:

       Center              X                  Y                   Z               Mass
    ------------   -----------------  -----------------  -----------------  -----------------
         C           -1.160430310672    -0.185350326223     0.000034861706    12.000000000000
         C           -0.479414210672     1.012347873777    -0.000032138294    12.000000000000
         N            0.786956689328     0.800957673777     0.000013861706    14.003074004430
         C            0.949970689328    -0.555138326223     0.000006861706    12.000000000000
         N           -0.215232310672    -1.186356326223    -0.000026138294    14.003074004430
         H            1.524911689328     1.493598673777     0.000046861706     1.007825032230
         H           -2.217716310672    -0.413181326223     0.000058861706     1.007825032230
         H           -0.961819310672     2.061145673777    -0.000053138294     1.007825032230
         H            1.925094689328    -1.023680326223     0.000003861706     1.007825032230

  Basis Set: AUG-CC-PVTZ
    Blend: AUG-CC-PVTZ
  Basis Set: (AUG-CC-PVTZ AUX)
    Blend: AUG-CC-PVTZ-JKFIT
	 Reference Energy          =    -224.8835247060178801 [Eh]
	 Singles Energy            =      -0.0000000000000000 [Eh]
	 Same-Spin Energy          =      -0.2445467589607244 [Eh]
	 Opposite-Spin Energy      =      -0.7419323239427997 [Eh]
	 Correlation Energy        =      -0.9864790829035242 [Eh]
	 Total Energy              =    -225.8700037889213945 [Eh]

	 ================> DF-SCS-MP2 Energies <==================
	-----------------------------------------------------------
	 SCS Same-Spin Scale       =       0.3333333333333333 [-]
	 SCS Opposite-Spin Scale   =       1.2000000000000000 [-]
	 SCS Same-Spin Energy      =      -0.0815155863202415 [Eh]
	 SCS Opposite-Spin Energy  =      -0.8903187887313596 [Eh]
	 SCS Correlation Energy    =      -0.9718343750516011 [Eh]
	 SCS Total Energy          =    -225.8553590810694800 [Eh]
	-----------------------------------------------------------

  Dipole Moment: [D]
     X:     1.8660      Y:     3.4825      Z:     0.0001     Total:     3.9510

*** Psi4 exiting successfully. Buy a developer a beer!
