                               Psi4 1.3.2 release

  ==> Input File <==

--------------------------------------------------------------------------
#psi4
#
memory 32 gb

molecule  {
0 1
  C       -1.1499320    -0.2219830     0.0000330
  C       -0.5329735     1.1139607    -0.0000265
  N        0.7974550     0.7643250     0.0000120
  C        0.9604690    -0.5917710     0.0000050
  N       -0.2047340    -1.2229890    -0.0000280
  H        1.5354100     1.4569660     0.0000450
  H       -2.2072180    -0.4498140     0.0000570
  H       -0.9513210     2.0245130    -0.0000550
  H        1.9355930    -1.0603130     0.0000020
units angstrom
no_reorient  #important for SAPT in psi4, default
symmetry c1  #important for SAPT in psi4, default
}

set PROPERTIES_ORIGIN ["COM"]
properties('MP2/aug-cc-pvtz', properties = ['dipole'])
--------------------------------------------------------------------------

    Molecular point group: c1
  Charge       = 0
  Multiplicity = 1
  Basis Set: AUG-CC-PVTZ
    Blend: AUG-CC-PVTZ
  Basis Set: (AUG-CC-PVTZ AUX)
    Blend: AUG-CC-PVTZ-JKFIT

    Orbital Energies [Eh]
    ---------------------

    Doubly Occupied:

       1A    -15.632893     2A    -15.553695     3A    -11.300676
       4A    -11.267888     5A    -11.258253     6A     -1.335517
       7A     -1.169806     8A     -0.996704     9A     -0.830239
      10A     -0.802062    11A     -0.764577    12A     -0.632606
      13A     -0.595042    14A     -0.590241    15A     -0.563697
      16A     -0.440886    17A     -0.404225    18A     -0.306594

  @DF-RHF Final Energy:  -224.87808229015232

   => Energetics <=

    Nuclear Repulsion Energy =            161.5648152302908613
    One-Electron Energy =                -623.9945949963035901
    Two-Electron Energy =                 237.5516974758604363
    Total Energy =                       -224.8780822901523209
  Basis Set: (AUG-CC-PVTZ AUX)
    Blend: AUG-CC-PVTZ-RI
    Molecular point group: c1

    Geometry (in Angstrom), charge = 0, multiplicity = 1:

       Center              X                  Y                   Z               Mass
    ------------   -----------------  -----------------  -----------------  -----------------
         C           -1.149132250250    -0.209733163108     0.000033538906    12.000000000000
         C           -0.532173750250     1.126210536892    -0.000025961094    12.000000000000
         N            0.798254749750     0.776574836892     0.000012538906    14.003074004430
         C            0.961268749750    -0.579521163108     0.000005538906    12.000000000000
         N           -0.203934250250    -1.210739163108    -0.000027461094    14.003074004430
         H            1.536209749750     1.469215836892     0.000045538906     1.007825032230
         H           -2.206418250250    -0.437564163108     0.000057538906     1.007825032230
         H           -0.950521250250     2.036762836892    -0.000054461094     1.007825032230
         H            1.936392749750    -1.048063163108     0.000002538906     1.007825032230

  Basis Set: AUG-CC-PVTZ
    Blend: AUG-CC-PVTZ
  Basis Set: (AUG-CC-PVTZ AUX)
    Blend: AUG-CC-PVTZ-JKFIT
	 Reference Energy          =    -224.8780822901523209 [Eh]
	 Singles Energy            =      -0.0000000000000000 [Eh]
	 Same-Spin Energy          =      -0.2453724825220246 [Eh]
	 Opposite-Spin Energy      =      -0.7452926170249911 [Eh]
	 Correlation Energy        =      -0.9906650995470156 [Eh]
	 Total Energy              =    -225.8687473896993367 [Eh]

	 ================> DF-SCS-MP2 Energies <==================
	-----------------------------------------------------------
	 SCS Same-Spin Scale       =       0.3333333333333333 [-]
	 SCS Opposite-Spin Scale   =       1.2000000000000000 [-]
	 SCS Same-Spin Energy      =      -0.0817908275073415 [Eh]
	 SCS Opposite-Spin Energy  =      -0.8943511404299892 [Eh]
	 SCS Correlation Energy    =      -0.9761419679373308 [Eh]
	 SCS Total Energy          =    -225.8542242580896584 [Eh]
	-----------------------------------------------------------

  Dipole Moment: [D]
     X:     1.8239      Y:     3.3745      Z:     0.0001     Total:     3.8359

*** Psi4 exiting successfully. Buy a developer a beer!
