                               Psi4 1.3.2 release

  ==> Input File <==

--------------------------------------------------------------------------
#psi4
#
memory 32 gb

molecule  {
0 1
  C       -1.1499320    -0.2219830     0.0000330
  C       -0.5494487     1.0438523    -0.0000276
  N        0.7974550     0.7643250     0.0000120
  C        0.9604690    -0.5917710     0.0000050
  N       -0.2047340    -1.2229890    -0.0000280
  H        1.5354100     1.4569660     0.0000450
  H       -2.2072180    -0.4498140     0.0000570
  H       -0.9513210     2.0245130    -0.0000550
  H        1.9355930    -1.0603130     0.0000020
units angstrom
no_reorient  #important for SAPT in psi4, default
symmetry c1  #important for SAPT in psi4, default
}

set PROPERTIES_ORIGIN ["COM"]
properties('MP2/aug-cc-pvtz', properties = ['dipole'])
--------------------------------------------------------------------------

    Molecular point group: c1
  Charge       = 0
  Multiplicity = 1
  Basis Set: AUG-CC-PVTZ
    Blend: AUG-CC-PVTZ
  Basis Set: (AUG-CC-PVTZ AUX)
    Blend: AUG-CC-PVTZ-JKFIT

    Orbital Energies [Eh]
    ---------------------

    Doubly Occupied:

       1A    -15.627788     2A    -15.549825     3A    -11.300061
       4A    -11.264640     5A    -11.249132     6A     -1.338207
       7A     -1.166893     8A     -1.002899     9A     -0.828722
      10A     -0.799699    11A     -0.759327    12A     -0.611164
      13A     -0.603115    14A     -0.597096    15A     -0.568336
      16A     -0.439753    17A     -0.401749    18A     -0.316359

  @DF-RHF Final Energy:  -224.89395918732330

   => Energetics <=

    Nuclear Repulsion Energy =            162.5001819444861155
    One-Electron Energy =                -625.9387479492045259
    Two-Electron Energy =                 238.5446068173950778
    Total Energy =                       -224.8939591873233041
  Basis Set: (AUG-CC-PVTZ AUX)
    Blend: AUG-CC-PVTZ-RI
    Molecular point group: c1

    Geometry (in Angstrom), charge = 0, multiplicity = 1:

       Center              X                  Y                   Z               Mass
    ------------   -----------------  -----------------  -----------------  -----------------
         C           -1.146226462255    -0.197367902167     0.000033732916    12.000000000000
         C           -0.545743162255     1.068467397833    -0.000026867084    12.000000000000
         N            0.801160537745     0.788940097833     0.000012732916    14.003074004430
         C            0.964174537745    -0.567155902167     0.000005732916    12.000000000000
         N           -0.201028462255    -1.198373902167    -0.000027267084    14.003074004430
         H            1.539115537745     1.481581097833     0.000045732916     1.007825032230
         H           -2.203512462255    -0.425198902167     0.000057732916     1.007825032230
         H           -0.947615462255     2.049128097833    -0.000054267084     1.007825032230
         H            1.939298537745    -1.035697902167     0.000002732916     1.007825032230

  Basis Set: AUG-CC-PVTZ
    Blend: AUG-CC-PVTZ
  Basis Set: (AUG-CC-PVTZ AUX)
    Blend: AUG-CC-PVTZ-JKFIT
	 Reference Energy          =    -224.8939591873233041 [Eh]
	 Singles Energy            =      -0.0000000000000000 [Eh]
	 Same-Spin Energy          =      -0.2441326716950779 [Eh]
	 Opposite-Spin Energy      =      -0.7428384759035529 [Eh]
	 Correlation Energy        =      -0.9869711475986307 [Eh]
	 Total Energy              =    -225.8809303349219419 [Eh]

	 ================> DF-SCS-MP2 Energies <==================
	-----------------------------------------------------------
	 SCS Same-Spin Scale       =       0.3333333333333333 [-]
	 SCS Opposite-Spin Scale   =       1.2000000000000000 [-]
	 SCS Same-Spin Energy      =      -0.0813775572316926 [Eh]
	 SCS Opposite-Spin Energy  =      -0.8914061710842635 [Eh]
	 SCS Correlation Energy    =      -0.9727837283159561 [Eh]
	 SCS Total Energy          =    -225.8667429156392643 [Eh]
	-----------------------------------------------------------

  Dipole Moment: [D]
     X:     1.7881      Y:     3.4019      Z:     0.0001     Total:     3.8432

*** Psi4 exiting successfully. Buy a developer a beer!
