                               Psi4 1.4a3.dev225

  ==> Input File <==

--------------------------------------------------------------------------
#psi4
#
memory 32 gb

molecule  {
0 1
  C        1.1497620    -0.2229380     0.0000050
  C        0.5551260     1.0198140    -0.0000050
  N       -0.7967650     0.7650270     0.0000030
  C       -0.9609660    -0.5909490     0.0000020
  N        0.2035270    -1.2232130    -0.0000060
  H       -1.5338930     1.4585310    -0.0000040
  H        2.2556056    -0.4627110     0.0000092
  H        0.9528750     2.0238360    -0.0000060
  H       -1.9365860    -1.0585140     0.0000030
units angstrom
no_reorient  #important for SAPT in psi4, default
symmetry c1  #important for SAPT in psi4, default
}

set PROPERTIES_ORIGIN ["COM"]
properties('MP2/aug-cc-pvtz', properties = ['dipole'])
--------------------------------------------------------------------------

    Molecular point group: c1
  Charge       = 0
  Multiplicity = 1
  Basis Set: AUG-CC-PVTZ
    Blend: AUG-CC-PVTZ
  Basis Set: (AUG-CC-PVTZ AUX)
    Blend: AUG-CC-PVTZ-JKFIT

    Orbital Energies [Eh]
    ---------------------

    Doubly Occupied:

       1A    -15.626498     2A    -15.549153     3A    -11.300333
       4A    -11.263973     5A    -11.251526     6A     -1.339702
       7A     -1.166271     8A     -1.004629     9A     -0.828431
      10A     -0.794633    11A     -0.756294    12A     -0.607041
      13A     -0.603226    14A     -0.598353    15A     -0.560805
      16A     -0.439201    17A     -0.401435    18A     -0.320119

  @DF-RHF Final Energy:  -224.89335332186471

   => Energetics <=

    Nuclear Repulsion Energy =            162.6047620267496825
    One-Electron Energy =                -626.1729830371232310
    Two-Electron Energy =                 238.6748676885088685
    Total Energy =                       -224.8933533218647085
  Basis Set: (AUG-CC-PVTZ AUX)
    Blend: AUG-CC-PVTZ-RI
    Molecular point group: c1

    Geometry (in Angstrom), charge = 0, multiplicity = 1:

       Center              X                  Y                   Z               Mass
    ------------   -----------------  -----------------  -----------------  -----------------
         C            1.144531647487    -0.194006866921     0.000005232108    12.000000000000
         C            0.549895647487     1.048745133079    -0.000004767892    12.000000000000
         N           -0.801995352513     0.793958133079     0.000003232108    14.003074004430
         C           -0.966196352513    -0.562017866921     0.000002232108    12.000000000000
         N            0.198296647487    -1.194281866921    -0.000005767892    14.003074004430
         H           -1.539123352513     1.487462133079    -0.000003767892     1.007825032230
         H            2.250375247487    -0.433779866921     0.000009432108     1.007825032230
         H            0.947644647487     2.052767133079    -0.000005767892     1.007825032230
         H           -1.941816352513    -1.029582866921     0.000003232108     1.007825032230

  Basis Set: AUG-CC-PVTZ
    Blend: AUG-CC-PVTZ
  Basis Set: (AUG-CC-PVTZ AUX)
    Blend: AUG-CC-PVTZ-JKFIT
	 Reference Energy          =    -224.8933533218647085 [Eh]
	 Singles Energy            =      -0.0000000000000000 [Eh]
	 Same-Spin Energy          =      -0.2438792307368954 [Eh]
	 Opposite-Spin Energy      =      -0.7425471785070160 [Eh]
	 Correlation Energy        =      -0.9864264092439115 [Eh]
	 Total Energy              =    -225.8797797311086129 [Eh]

	 ================> DF-SCS-MP2 Energies <==================
	-----------------------------------------------------------
	 SCS Same-Spin Scale       =       0.3333333333333333 [-]
	 SCS Opposite-Spin Scale   =       1.2000000000000000 [-]
	 SCS Same-Spin Energy      =      -0.0812930769122985 [Eh]
	 SCS Opposite-Spin Energy  =      -0.8910566142084192 [Eh]
	 SCS Correlation Energy    =      -0.9723496911207177 [Eh]
	 SCS Total Energy          =    -225.8657030129854206 [Eh]
	-----------------------------------------------------------

  Dipole Moment: [D]
     X:    -1.7836      Y:     3.3989      Z:     0.0000     Total:     3.8385

*** Psi4 exiting successfully. Buy a developer a beer!
