                               Psi4 1.3.2 release

  ==> Input File <==

--------------------------------------------------------------------------
#psi4
#
memory 32 gb

molecule  {
0 1
  C       -1.1499320    -0.2219830     0.0000330
  C       -0.5541220     1.0203030    -0.0000280
  N        0.7974550     0.7643250     0.0000120
  C        0.9604690    -0.5917710     0.0000050
  N       -0.2047340    -1.2229890    -0.0000280
  H        1.5354100     1.4569660     0.0000450
  H       -2.2072180    -0.4498140     0.0000570
  H       -0.9513210     2.0245130    -0.0000550
  H        1.8454581    -1.0170037     0.0000023
units angstrom
no_reorient  #important for SAPT in psi4, default
symmetry c1  #important for SAPT in psi4, default
}

set PROPERTIES_ORIGIN ["COM"]
properties('MP2/aug-cc-pvtz', properties = ['dipole'])
--------------------------------------------------------------------------

    Molecular point group: c1
  Charge       = 0
  Multiplicity = 1
  Basis Set: AUG-CC-PVTZ
    Blend: AUG-CC-PVTZ
  Basis Set: (AUG-CC-PVTZ AUX)
    Blend: AUG-CC-PVTZ-JKFIT

    Orbital Energies [Eh]
    ---------------------

    Doubly Occupied:

       1A    -15.625693     2A    -15.548202     3A    -11.288672
       4A    -11.263418     5A    -11.245422     6A     -1.339186
       7A     -1.165583     8A     -1.010413     9A     -0.835168
      10A     -0.801055    11A     -0.769705    12A     -0.615785
      13A     -0.604977    14A     -0.597628    15A     -0.572928
      16A     -0.439223    17A     -0.400633    18A     -0.319778

  @DF-RHF Final Energy:  -224.88963623855264

   => Energetics <=

    Nuclear Repulsion Energy =            163.3467872739051074
    One-Electron Energy =                -627.5859081581184000
    Two-Electron Energy =                 239.3494846456606808
    Total Energy =                       -224.8896362385526402
  Basis Set: (AUG-CC-PVTZ AUX)
    Blend: AUG-CC-PVTZ-RI
    Molecular point group: c1

    Geometry (in Angstrom), charge = 0, multiplicity = 1:

       Center              X                  Y                   Z               Mass
    ------------   -----------------  -----------------  -----------------  -----------------
         C           -1.144067066032    -0.193855962641     0.000033799022    12.000000000000
         C           -0.548257066032     1.048430037359    -0.000027200978    12.000000000000
         N            0.803319933968     0.792452037359     0.000012799022    14.003074004430
         C            0.966333933968    -0.563643962641     0.000005799022    12.000000000000
         N           -0.198869066032    -1.194861962641    -0.000027200978    14.003074004430
         H            1.541274933968     1.485093037359     0.000045799022     1.007825032230
         H           -2.201353066032    -0.421686962641     0.000057799022     1.007825032230
         H           -0.945456066032     2.052640037359    -0.000054200978     1.007825032230
         H            1.851323033968    -0.988876662641     0.000003099022     1.007825032230

  Basis Set: AUG-CC-PVTZ
    Blend: AUG-CC-PVTZ
  Basis Set: (AUG-CC-PVTZ AUX)
    Blend: AUG-CC-PVTZ-JKFIT
	 Reference Energy          =    -224.8896362385526402 [Eh]
	 Singles Energy            =      -0.0000000000000000 [Eh]
	 Same-Spin Energy          =      -0.2436621426897196 [Eh]
	 Opposite-Spin Energy      =      -0.7418579531086784 [Eh]
	 Correlation Energy        =      -0.9855200957983981 [Eh]
	 Total Energy              =    -225.8751563343510327 [Eh]

	 ================> DF-SCS-MP2 Energies <==================
	-----------------------------------------------------------
	 SCS Same-Spin Scale       =       0.3333333333333333 [-]
	 SCS Opposite-Spin Scale   =       1.2000000000000000 [-]
	 SCS Same-Spin Energy      =      -0.0812207142299065 [Eh]
	 SCS Opposite-Spin Energy  =      -0.8902295437304141 [Eh]
	 SCS Correlation Energy    =      -0.9714502579603206 [Eh]
	 SCS Total Energy          =    -225.8610864965129679 [Eh]
	-----------------------------------------------------------

  Dipole Moment: [D]
     X:     1.7766      Y:     3.4182      Z:     0.0001     Total:     3.8523

*** Psi4 exiting successfully. Buy a developer a beer!
