                               Psi4 1.3.2 release

  ==> Input File <==

--------------------------------------------------------------------------
#psi4
#
memory 32 gb

molecule  {
0 1
  C       -1.2493877    -0.3262667     0.0000273
  C       -0.5541220     1.0203030    -0.0000280
  N        0.7974550     0.7643250     0.0000120
  C        0.9604690    -0.5917710     0.0000050
  N       -0.2047340    -1.2229890    -0.0000280
  H        1.5354100     1.4569660     0.0000450
  H       -2.2072180    -0.4498140     0.0000570
  H       -0.9513210     2.0245130    -0.0000550
  H        1.9355930    -1.0603130     0.0000020
units angstrom
no_reorient  #important for SAPT in psi4, default
symmetry c1  #important for SAPT in psi4, default
}

set PROPERTIES_ORIGIN ["COM"]
properties('MP2/aug-cc-pvtz', properties = ['dipole'])
--------------------------------------------------------------------------

    Molecular point group: c1
  Charge       = 0
  Multiplicity = 1
  Basis Set: AUG-CC-PVTZ
    Blend: AUG-CC-PVTZ
  Basis Set: (AUG-CC-PVTZ AUX)
    Blend: AUG-CC-PVTZ-JKFIT

    Orbital Energies [Eh]
    ---------------------

    Doubly Occupied:

       1A    -15.635426     2A    -15.552576     3A    -11.296407
       4A    -11.280023     5A    -11.256314     6A     -1.331576
       7A     -1.167779     8A     -0.990268     9A     -0.836753
      10A     -0.810701    11A     -0.756526    12A     -0.627724
      13A     -0.599947    14A     -0.591904    15A     -0.581261
      16A     -0.421357    17A     -0.405229    18A     -0.299950

  @DF-RHF Final Energy:  -224.86084744066505

   => Energetics <=

    Nuclear Repulsion Energy =            160.8669283664984277
    One-Electron Energy =                -622.5721095474324329
    Two-Electron Energy =                 236.8443337402689508
    Total Energy =                       -224.8608474406650544
  Basis Set: (AUG-CC-PVTZ AUX)
    Blend: AUG-CC-PVTZ-RI
    Molecular point group: c1

    Geometry (in Angstrom), charge = 0, multiplicity = 1:

       Center              X                  Y                   Z               Mass
    ------------   -----------------  -----------------  -----------------  -----------------
         C           -1.227316570449    -0.279105253913     0.000029108794    12.000000000000
         C           -0.532050870449     1.067464446087    -0.000026191206    12.000000000000
         N            0.819526129551     0.811486446087     0.000013808794    14.003074004430
         C            0.982540129551    -0.544609553913     0.000006808794    12.000000000000
         N           -0.182662870449    -1.175827553913    -0.000026191206    14.003074004430
         H            1.557481129551     1.504127446087     0.000046808794     1.007825032230
         H           -2.185146870449    -0.402652553913     0.000058808794     1.007825032230
         H           -0.929249870449     2.071674446087    -0.000053191206     1.007825032230
         H            1.957664129551    -1.013151553913     0.000003808794     1.007825032230

  Basis Set: AUG-CC-PVTZ
    Blend: AUG-CC-PVTZ
  Basis Set: (AUG-CC-PVTZ AUX)
    Blend: AUG-CC-PVTZ-JKFIT
	 Reference Energy          =    -224.8608474406650544 [Eh]
	 Singles Energy            =      -0.0000000000000000 [Eh]
	 Same-Spin Energy          =      -0.2459686914743264 [Eh]
	 Opposite-Spin Energy      =      -0.7467328330536107 [Eh]
	 Correlation Energy        =      -0.9927015245279371 [Eh]
	 Total Energy              =    -225.8535489651929993 [Eh]

	 ================> DF-SCS-MP2 Energies <==================
	-----------------------------------------------------------
	 SCS Same-Spin Scale       =       0.3333333333333333 [-]
	 SCS Opposite-Spin Scale   =       1.2000000000000000 [-]
	 SCS Same-Spin Energy      =      -0.0819895638247755 [Eh]
	 SCS Opposite-Spin Energy  =      -0.8960793996643328 [Eh]
	 SCS Correlation Energy    =      -0.9780689634891082 [Eh]
	 SCS Total Energy          =    -225.8389164041541619 [Eh]
	-----------------------------------------------------------

  Dipole Moment: [D]
     X:     1.7414      Y:     3.3330      Z:     0.0001     Total:     3.7605

*** Psi4 exiting successfully. Buy a developer a beer!
