                               Psi4 1.3.2 release

  ==> Input File <==

--------------------------------------------------------------------------
#psi4
#
memory 32 gb

molecule  {
0 1
  C       -1.1715221    -0.2113955     0.0000320
  C       -0.5541220     1.0203030    -0.0000280
  N        0.7974550     0.7643250     0.0000120
  C        0.9604690    -0.5917710     0.0000050
  N       -0.2047340    -1.2229890    -0.0000280
  H        1.5354100     1.4569660     0.0000450
  H       -2.2072180    -0.4498140     0.0000570
  H       -0.9513210     2.0245130    -0.0000550
  H        1.9355930    -1.0603130     0.0000020
units angstrom
no_reorient  #important for SAPT in psi4, default
symmetry c1  #important for SAPT in psi4, default
}

set PROPERTIES_ORIGIN ["COM"]
properties('MP2/aug-cc-pvtz', properties = ['dipole'])
--------------------------------------------------------------------------

    Molecular point group: c1
  Charge       = 0
  Multiplicity = 1
  Basis Set: AUG-CC-PVTZ
    Blend: AUG-CC-PVTZ
  Basis Set: (AUG-CC-PVTZ AUX)
    Blend: AUG-CC-PVTZ-JKFIT

    Orbital Energies [Eh]
    ---------------------

    Doubly Occupied:

       1A    -15.625567     2A    -15.549277     3A    -11.300054
       4A    -11.265294     5A    -11.246141     6A     -1.336377
       7A     -1.161092     8A     -1.006483     9A     -0.825825
      10A     -0.801844    11A     -0.757432    12A     -0.610070
      13A     -0.601525    14A     -0.596426    15A     -0.572103
      16A     -0.436883    17A     -0.397765    18A     -0.321659

  @DF-RHF Final Energy:  -224.89506672612458

   => Energetics <=

    Nuclear Repulsion Energy =            162.4575275566645303
    One-Electron Energy =                -625.8815553722959066
    Two-Electron Energy =                 238.5289610895067653
    Total Energy =                       -224.8950667261245826
  Basis Set: (AUG-CC-PVTZ AUX)
    Blend: AUG-CC-PVTZ-RI
    Molecular point group: c1

    Geometry (in Angstrom), charge = 0, multiplicity = 1:

       Center              X                  Y                   Z               Mass
    ------------   -----------------  -----------------  -----------------  -----------------
         C           -1.163184395579    -0.184494284679     0.000032979839    12.000000000000
         C           -0.545784295579     1.047204215321    -0.000027020161    12.000000000000
         N            0.805792704421     0.791226215321     0.000012979839    14.003074004430
         C            0.968806704421    -0.564869784679     0.000005979839    12.000000000000
         N           -0.196396295579    -1.196087784679    -0.000027020161    14.003074004430
         H            1.543747704421     1.483867215321     0.000045979839     1.007825032230
         H           -2.198880295579    -0.422912784679     0.000057979839     1.007825032230
         H           -0.942983295579     2.051414215321    -0.000054020161     1.007825032230
         H            1.943930704421    -1.033411784679     0.000002979839     1.007825032230

  Basis Set: AUG-CC-PVTZ
    Blend: AUG-CC-PVTZ
  Basis Set: (AUG-CC-PVTZ AUX)
    Blend: AUG-CC-PVTZ-JKFIT
	 Reference Energy          =    -224.8950667261245826 [Eh]
	 Singles Energy            =      -0.0000000000000000 [Eh]
	 Same-Spin Energy          =      -0.2436097609361534 [Eh]
	 Opposite-Spin Energy      =      -0.7424161072390895 [Eh]
	 Correlation Energy        =      -0.9860258681752430 [Eh]
	 Total Energy              =    -225.8810925942998153 [Eh]

	 ================> DF-SCS-MP2 Energies <==================
	-----------------------------------------------------------
	 SCS Same-Spin Scale       =       0.3333333333333333 [-]
	 SCS Opposite-Spin Scale   =       1.2000000000000000 [-]
	 SCS Same-Spin Energy      =      -0.0812032536453845 [Eh]
	 SCS Opposite-Spin Energy  =      -0.8908993286869074 [Eh]
	 SCS Correlation Energy    =      -0.9721025823322919 [Eh]
	 SCS Total Energy          =    -225.8671693084568801 [Eh]
	-----------------------------------------------------------

  Dipole Moment: [D]
     X:     1.7641      Y:     3.4088      Z:     0.0001     Total:     3.8382

*** Psi4 exiting successfully. Buy a developer a beer!
