                               Psi4 1.3.2 release

  ==> Input File <==

--------------------------------------------------------------------------
#psi4
#
memory 32 gb

molecule  {
0 1
  C       -1.0778029    -0.1584877     0.0000365
  C       -0.5541220     1.0203030    -0.0000280
  N        0.7974550     0.7643250     0.0000120
  C        0.9604690    -0.5917710     0.0000050
  N       -0.2047340    -1.2229890    -0.0000280
  H        1.5354100     1.4569660     0.0000450
  H       -2.2072180    -0.4498140     0.0000570
  H       -0.9513210     2.0245130    -0.0000550
  H        1.9355930    -1.0603130     0.0000020
units angstrom
no_reorient  #important for SAPT in psi4, default
symmetry c1  #important for SAPT in psi4, default
}

set PROPERTIES_ORIGIN ["COM"]
properties('MP2/aug-cc-pvtz', properties = ['dipole'])
--------------------------------------------------------------------------

    Molecular point group: c1
  Charge       = 0
  Multiplicity = 1
  Basis Set: AUG-CC-PVTZ
    Blend: AUG-CC-PVTZ
  Basis Set: (AUG-CC-PVTZ AUX)
    Blend: AUG-CC-PVTZ-JKFIT

    Orbital Energies [Eh]
    ---------------------

    Doubly Occupied:

       1A    -15.620865     2A    -15.547844     3A    -11.302889
       4A    -11.251552     5A    -11.239650     6A     -1.347732
       7A     -1.165466     8A     -1.021629     9A     -0.831798
      10A     -0.788163    11A     -0.759143    12A     -0.618192
      13A     -0.604658    14A     -0.601850    15A     -0.533047
      16A     -0.449846    17A     -0.399411    18A     -0.335635

  @DF-RHF Final Energy:  -224.88363745097865

   => Energetics <=

    Nuclear Repulsion Energy =            164.3574339889202918
    One-Electron Energy =                -629.6434009209425540
    Two-Electron Energy =                 240.4023294810435800
    Total Energy =                       -224.8836374509786538
  Basis Set: (AUG-CC-PVTZ AUX)
    Blend: AUG-CC-PVTZ-RI
    Molecular point group: c1

    Geometry (in Angstrom), charge = 0, multiplicity = 1:

       Center              X                  Y                   Z               Mass
    ------------   -----------------  -----------------  -----------------  -----------------
         C           -1.085994774962    -0.140918016319     0.000036686159    12.000000000000
         C           -0.562313874962     1.037872683681    -0.000027813841    12.000000000000
         N            0.789263125038     0.781894683681     0.000012186159    14.003074004430
         C            0.952277125038    -0.574201316319     0.000005186159    12.000000000000
         N           -0.212925874962    -1.205419316319    -0.000027813841    14.003074004430
         H            1.527218125038     1.474535683681     0.000045186159     1.007825032230
         H           -2.215409874962    -0.432244316319     0.000057186159     1.007825032230
         H           -0.959512874962     2.042082683681    -0.000054813841     1.007825032230
         H            1.927401125038    -1.042743316319     0.000002186159     1.007825032230

  Basis Set: AUG-CC-PVTZ
    Blend: AUG-CC-PVTZ
  Basis Set: (AUG-CC-PVTZ AUX)
    Blend: AUG-CC-PVTZ-JKFIT
	 Reference Energy          =    -224.8836374509786538 [Eh]
	 Singles Energy            =      -0.0000000000000000 [Eh]
	 Same-Spin Energy          =      -0.2429977460734458 [Eh]
	 Opposite-Spin Energy      =      -0.7408260962093782 [Eh]
	 Correlation Energy        =      -0.9838238422828240 [Eh]
	 Total Energy              =    -225.8674612932614707 [Eh]

	 ================> DF-SCS-MP2 Energies <==================
	-----------------------------------------------------------
	 SCS Same-Spin Scale       =       0.3333333333333333 [-]
	 SCS Opposite-Spin Scale   =       1.2000000000000000 [-]
	 SCS Same-Spin Energy      =      -0.0809992486911486 [Eh]
	 SCS Opposite-Spin Energy  =      -0.8889913154512539 [Eh]
	 SCS Correlation Energy    =      -0.9699905641424025 [Eh]
	 SCS Total Energy          =    -225.8536280151210462 [Eh]
	-----------------------------------------------------------

  Dipole Moment: [D]
     X:     1.8461      Y:     3.4284      Z:     0.0001     Total:     3.8938

*** Psi4 exiting successfully. Buy a developer a beer!
