                               Psi4 1.3.2 release

  ==> Input File <==

--------------------------------------------------------------------------
#psi4
#
memory 32 gb

molecule  {
0 1
  C       -1.1499320    -0.2219830     0.0000330
  C       -0.6872402     1.0757767    -0.0000184
  N        0.7974550     0.7643250     0.0000120
  C        0.9604690    -0.5917710     0.0000050
  N       -0.2047340    -1.2229890    -0.0000280
  H        1.5354100     1.4569660     0.0000450
  H       -2.2072180    -0.4498140     0.0000570
  H       -0.9513210     2.0245130    -0.0000550
  H        1.9355930    -1.0603130     0.0000020
units angstrom
no_reorient  #important for SAPT in psi4, default
symmetry c1  #important for SAPT in psi4, default
}

set PROPERTIES_ORIGIN ["COM"]
properties('MP2/aug-cc-pvtz', properties = ['dipole'])
--------------------------------------------------------------------------

    Molecular point group: c1
  Charge       = 0
  Multiplicity = 1
  Basis Set: AUG-CC-PVTZ
    Blend: AUG-CC-PVTZ
  Basis Set: (AUG-CC-PVTZ AUX)
    Blend: AUG-CC-PVTZ-JKFIT

    Orbital Energies [Eh]
    ---------------------

    Doubly Occupied:

       1A    -15.617993     2A    -15.547952     3A    -11.310679
       4A    -11.266262     5A    -11.259023     6A     -1.315200
       7A     -1.150629     8A     -1.010751     9A     -0.830537
      10A     -0.796735    11A     -0.753953    12A     -0.640479
      13A     -0.581505    14A     -0.580544    15A     -0.555759
      16A     -0.442801    17A     -0.393389    18A     -0.330432

  @DF-RHF Final Energy:  -224.87123924223232

   => Energetics <=

    Nuclear Repulsion Energy =            160.7183273779258457
    One-Electron Energy =                -622.4098917840151444
    Two-Electron Energy =                 236.8203251638569782
    Total Energy =                       -224.8712392422323205
  Basis Set: (AUG-CC-PVTZ AUX)
    Blend: AUG-CC-PVTZ-RI
    Molecular point group: c1

    Geometry (in Angstrom), charge = 0, multiplicity = 1:

       Center              X                  Y                   Z               Mass
    ------------   -----------------  -----------------  -----------------  -----------------
         C           -1.121923698920    -0.202998518989     0.000032110281    12.000000000000
         C           -0.659231898920     1.094761181011    -0.000019289719    12.000000000000
         N            0.825463301080     0.783309481011     0.000011110281    14.003074004430
         C            0.988477301080    -0.572786518989     0.000004110281    12.000000000000
         N           -0.176725698920    -1.204004518989    -0.000028889719    14.003074004430
         H            1.563418301080     1.475950481011     0.000044110281     1.007825032230
         H           -2.179209698920    -0.430829518989     0.000056110281     1.007825032230
         H           -0.923312698920     2.043497481011    -0.000055889719     1.007825032230
         H            1.963601301080    -1.041328518989     0.000001110281     1.007825032230

  Basis Set: AUG-CC-PVTZ
    Blend: AUG-CC-PVTZ
  Basis Set: (AUG-CC-PVTZ AUX)
    Blend: AUG-CC-PVTZ-JKFIT
	 Reference Energy          =    -224.8712392422323205 [Eh]
	 Singles Energy            =      -0.0000000000000000 [Eh]
	 Same-Spin Energy          =      -0.2431005521655779 [Eh]
	 Opposite-Spin Energy      =      -0.7439037517243012 [Eh]
	 Correlation Energy        =      -0.9870043038898791 [Eh]
	 Total Energy              =    -225.8582435461221962 [Eh]

	 ================> DF-SCS-MP2 Energies <==================
	-----------------------------------------------------------
	 SCS Same-Spin Scale       =       0.3333333333333333 [-]
	 SCS Opposite-Spin Scale   =       1.2000000000000000 [-]
	 SCS Same-Spin Energy      =      -0.0810335173885260 [Eh]
	 SCS Opposite-Spin Energy  =      -0.8926845020691615 [Eh]
	 SCS Correlation Energy    =      -0.9737180194576874 [Eh]
	 SCS Total Energy          =    -225.8449572616900127 [Eh]
	-----------------------------------------------------------

  Dipole Moment: [D]
     X:     1.6576      Y:     3.2775      Z:     0.0001     Total:     3.6728

*** Psi4 exiting successfully. Buy a developer a beer!
