                               Psi4 1.3.2 release

  ==> Input File <==

--------------------------------------------------------------------------
#psi4
#
memory 32 gb

molecule  {
0 1
  C       -1.1499320    -0.2219830     0.0000330
  C       -0.5541220     1.0203030    -0.0000280
  N        0.8448814     0.7691880     0.0000132
  C        0.9604690    -0.5917710     0.0000050
  N       -0.2047340    -1.2229890    -0.0000280
  H        1.5354100     1.4569660     0.0000450
  H       -2.2072180    -0.4498140     0.0000570
  H       -0.9513210     2.0245130    -0.0000550
  H        1.9355930    -1.0603130     0.0000020
units angstrom
no_reorient  #important for SAPT in psi4, default
symmetry c1  #important for SAPT in psi4, default
}

set PROPERTIES_ORIGIN ["COM"]
properties('MP2/aug-cc-pvtz', properties = ['dipole'])
--------------------------------------------------------------------------

    Molecular point group: c1
  Charge       = 0
  Multiplicity = 1
  Basis Set: AUG-CC-PVTZ
    Blend: AUG-CC-PVTZ
  Basis Set: (AUG-CC-PVTZ AUX)
    Blend: AUG-CC-PVTZ-JKFIT

    Orbital Energies [Eh]
    ---------------------

    Doubly Occupied:

       1A    -15.622895     2A    -15.549350     3A    -11.304370
       4A    -11.266464     5A    -11.250235     6A     -1.331668
       7A     -1.168270     8A     -1.002957     9A     -0.840346
      10A     -0.795279    11A     -0.756077    12A     -0.615681
      13A     -0.592503    14A     -0.592308    15A     -0.571287
      16A     -0.440632    17A     -0.401744    18A     -0.322178

  @DF-RHF Final Energy:  -224.89308100404989

   => Energetics <=

    Nuclear Repulsion Energy =            162.0886920000358771
    One-Electron Energy =                -625.1150552754165801
    Two-Electron Energy =                 238.1332822713308417
    Total Energy =                       -224.8930810040498898
  Basis Set: (AUG-CC-PVTZ AUX)
    Blend: AUG-CC-PVTZ-RI
    Molecular point group: c1

    Geometry (in Angstrom), charge = 0, multiplicity = 1:

       Center              X                  Y                   Z               Mass
    ------------   -----------------  -----------------  -----------------  -----------------
         C           -1.155163243478    -0.194215305222     0.000033556489    12.000000000000
         C           -0.559353243478     1.048070694778    -0.000027443511    12.000000000000
         N            0.839650156522     0.796955694778     0.000013756489    14.003074004430
         C            0.955237756522    -0.564003305222     0.000005556489    12.000000000000
         N           -0.209965243478    -1.195221305222    -0.000027443511    14.003074004430
         H            1.530178756522     1.484733694778     0.000045556489     1.007825032230
         H           -2.212449243478    -0.422046305222     0.000057556489     1.007825032230
         H           -0.956552243478     2.052280694778    -0.000054443511     1.007825032230
         H            1.930361756522    -1.032545305222     0.000002556489     1.007825032230

  Basis Set: AUG-CC-PVTZ
    Blend: AUG-CC-PVTZ
  Basis Set: (AUG-CC-PVTZ AUX)
    Blend: AUG-CC-PVTZ-JKFIT
	 Reference Energy          =    -224.8930810040498898 [Eh]
	 Singles Energy            =      -0.0000000000000000 [Eh]
	 Same-Spin Energy          =      -0.2431347078025805 [Eh]
	 Opposite-Spin Energy      =      -0.7421301258114708 [Eh]
	 Correlation Energy        =      -0.9852648336140513 [Eh]
	 Total Energy              =    -225.8783458376639430 [Eh]

	 ================> DF-SCS-MP2 Energies <==================
	-----------------------------------------------------------
	 SCS Same-Spin Scale       =       0.3333333333333333 [-]
	 SCS Opposite-Spin Scale   =       1.2000000000000000 [-]
	 SCS Same-Spin Energy      =      -0.0810449026008601 [Eh]
	 SCS Opposite-Spin Energy  =      -0.8905561509737648 [Eh]
	 SCS Correlation Energy    =      -0.9716010535746250 [Eh]
	 SCS Total Energy          =    -225.8646820576245204 [Eh]
	-----------------------------------------------------------

  Dipole Moment: [D]
     X:     1.6829      Y:     3.3228      Z:     0.0001     Total:     3.7247

*** Psi4 exiting successfully. Buy a developer a beer!
