                               Psi4 1.4a3.dev225

  ==> Input File <==

--------------------------------------------------------------------------
#psi4
#
memory 32 gb

molecule  {
0 1
  C        1.1497620    -0.2229380     0.0000050
  C        0.5551260     1.0198140    -0.0000050
  N       -0.7967650     0.7650270     0.0000030
  C       -0.9609660    -0.5909490     0.0000020
  N        0.2035270    -1.2232130    -0.0000060
  H       -1.5338930     1.4585310    -0.0000040
  H        2.2067410    -0.4521160     0.0000090
  H        0.9528750     2.0238360    -0.0000060
  H       -1.8914966    -1.0369050     0.0000030
units angstrom
no_reorient  #important for SAPT in psi4, default
symmetry c1  #important for SAPT in psi4, default
}

set PROPERTIES_ORIGIN ["COM"]
properties('MP2/aug-cc-pvtz', properties = ['dipole'])
--------------------------------------------------------------------------

    Molecular point group: c1
  Charge       = 0
  Multiplicity = 1
  Basis Set: AUG-CC-PVTZ
    Blend: AUG-CC-PVTZ
  Basis Set: (AUG-CC-PVTZ AUX)
    Blend: AUG-CC-PVTZ-JKFIT

    Orbital Energies [Eh]
    ---------------------

    Doubly Occupied:

       1A    -15.625895     2A    -15.548373     3A    -11.294362
       4A    -11.263479     5A    -11.245656     6A     -1.339201
       7A     -1.165790     8A     -1.007696     9A     -0.831342
      10A     -0.799909    11A     -0.763716    12A     -0.611411
      13A     -0.604634    14A     -0.597779    15A     -0.571292
      16A     -0.439206    17A     -0.400834    18A     -0.319816

  @DF-RHF Final Energy:  -224.89499202880756

   => Energetics <=

    Nuclear Repulsion Energy =            163.0799861266021082
    One-Electron Energy =                -627.0891744487203141
    Two-Electron Energy =                 239.1141962933106697
    Total Energy =                       -224.8949920288075646
  Basis Set: (AUG-CC-PVTZ AUX)
    Blend: AUG-CC-PVTZ-RI
    Molecular point group: c1

    Geometry (in Angstrom), charge = 0, multiplicity = 1:

       Center              X                  Y                   Z               Mass
    ------------   -----------------  -----------------  -----------------  -----------------
         C            1.144587568765    -0.194483898294     0.000005235070    12.000000000000
         C            0.549951568765     1.048268101706    -0.000004764930    12.000000000000
         N           -0.801939431235     0.793481101706     0.000003235070    14.003074004430
         C           -0.966140431235    -0.562494898294     0.000002235070    12.000000000000
         N            0.198352568765    -1.194758898294    -0.000005764930    14.003074004430
         H           -1.539067431235     1.486985101706    -0.000003764930     1.007825032230
         H            2.201566568765    -0.423661898294     0.000009235070     1.007825032230
         H            0.947700568765     2.052290101706    -0.000005764930     1.007825032230
         H           -1.896671031235    -1.008450898294     0.000003235070     1.007825032230

  Basis Set: AUG-CC-PVTZ
    Blend: AUG-CC-PVTZ
  Basis Set: (AUG-CC-PVTZ AUX)
    Blend: AUG-CC-PVTZ-JKFIT
	 Reference Energy          =    -224.8949920288075646 [Eh]
	 Singles Energy            =      -0.0000000000000000 [Eh]
	 Same-Spin Energy          =      -0.2437081271736319 [Eh]
	 Opposite-Spin Energy      =      -0.7419721400250593 [Eh]
	 Correlation Energy        =      -0.9856802671986913 [Eh]
	 Total Energy              =    -225.8806722960062530 [Eh]

	 ================> DF-SCS-MP2 Energies <==================
	-----------------------------------------------------------
	 SCS Same-Spin Scale       =       0.3333333333333333 [-]
	 SCS Opposite-Spin Scale   =       1.2000000000000000 [-]
	 SCS Same-Spin Energy      =      -0.0812360423912106 [Eh]
	 SCS Opposite-Spin Energy  =      -0.8903665680300711 [Eh]
	 SCS Correlation Energy    =      -0.9716026104212817 [Eh]
	 SCS Total Energy          =    -225.8665946392288504 [Eh]
	-----------------------------------------------------------

  Dipole Moment: [D]
     X:    -1.7749      Y:     3.4118      Z:     0.0000     Total:     3.8459

*** Psi4 exiting successfully. Buy a developer a beer!
