                               Psi4 1.3.2 release

  ==> Input File <==

--------------------------------------------------------------------------
#psi4
#
memory 32 gb

molecule  {
0 1
  C       -1.2351381    -0.1773952     0.0000288
  C       -0.5541220     1.0203030    -0.0000280
  N        0.7974550     0.7643250     0.0000120
  C        0.9604690    -0.5917710     0.0000050
  N       -0.2047340    -1.2229890    -0.0000280
  H        1.5354100     1.4569660     0.0000450
  H       -2.2072180    -0.4498140     0.0000570
  H       -0.9513210     2.0245130    -0.0000550
  H        1.9355930    -1.0603130     0.0000020
units angstrom
no_reorient  #important for SAPT in psi4, default
symmetry c1  #important for SAPT in psi4, default
}

set PROPERTIES_ORIGIN ["COM"]
properties('MP2/aug-cc-pvtz', properties = ['dipole'])
--------------------------------------------------------------------------

    Molecular point group: c1
  Charge       = 0
  Multiplicity = 1
  Basis Set: AUG-CC-PVTZ
    Blend: AUG-CC-PVTZ
  Basis Set: (AUG-CC-PVTZ AUX)
    Blend: AUG-CC-PVTZ-JKFIT

    Orbital Energies [Eh]
    ---------------------

    Doubly Occupied:

       1A    -15.623984     2A    -15.550980     3A    -11.300652
       4A    -11.271000     5A    -11.247315     6A     -1.329242
       7A     -1.147575     8A     -1.009559     9A     -0.819774
      10A     -0.810100    11A     -0.756753    12A     -0.622879
      13A     -0.598826    14A     -0.592635    15A     -0.570884
      16A     -0.428489    17A     -0.388767    18A     -0.327325

  @DF-RHF Final Energy:  -224.88424001267856

   => Energetics <=

    Nuclear Repulsion Energy =            161.3929578176899895
    One-Electron Energy =                -623.7609211382344938
    Two-Electron Energy =                 237.4837233078659438
    Total Energy =                       -224.8842400126785606
  Basis Set: (AUG-CC-PVTZ AUX)
    Blend: AUG-CC-PVTZ-RI
    Molecular point group: c1

    Geometry (in Angstrom), charge = 0, multiplicity = 1:

       Center              X                  Y                   Z               Mass
    ------------   -----------------  -----------------  -----------------  -----------------
         C           -1.215580221676    -0.156490735162     0.000030344234    12.000000000000
         C           -0.534564121676     1.041207464838    -0.000026455766    12.000000000000
         N            0.817012878324     0.785229464838     0.000013544234    14.003074004430
         C            0.980026878324    -0.570866535162     0.000006544234    12.000000000000
         N           -0.185176121676    -1.202084535162    -0.000026455766    14.003074004430
         H            1.554967878324     1.477870464838     0.000046544234     1.007825032230
         H           -2.187660121676    -0.428909535162     0.000058544234     1.007825032230
         H           -0.931763121676     2.045417464838    -0.000053455766     1.007825032230
         H            1.955150878324    -1.039408535162     0.000003544234     1.007825032230

  Basis Set: AUG-CC-PVTZ
    Blend: AUG-CC-PVTZ
  Basis Set: (AUG-CC-PVTZ AUX)
    Blend: AUG-CC-PVTZ-JKFIT
	 Reference Energy          =    -224.8842400126785606 [Eh]
	 Singles Energy            =      -0.0000000000000000 [Eh]
	 Same-Spin Energy          =      -0.2432182322806197 [Eh]
	 Opposite-Spin Energy      =      -0.7435002822422774 [Eh]
	 Correlation Energy        =      -0.9867185145228970 [Eh]
	 Total Energy              =    -225.8709585272014522 [Eh]

	 ================> DF-SCS-MP2 Energies <==================
	-----------------------------------------------------------
	 SCS Same-Spin Scale       =       0.3333333333333333 [-]
	 SCS Opposite-Spin Scale   =       1.2000000000000000 [-]
	 SCS Same-Spin Energy      =      -0.0810727440935399 [Eh]
	 SCS Opposite-Spin Energy  =      -0.8922003386907328 [Eh]
	 SCS Correlation Energy    =      -0.9732730827842727 [Eh]
	 SCS Total Energy          =    -225.8575130954628207 [Eh]
	-----------------------------------------------------------

  Dipole Moment: [D]
     X:     1.7431      Y:     3.4182      Z:     0.0001     Total:     3.8370

*** Psi4 exiting successfully. Buy a developer a beer!
