                               Psi4 1.4a3.dev225

  ==> Input File <==

--------------------------------------------------------------------------
#psi4
#
memory 32 gb

molecule  {
0 1
  C        1.1497620    -0.2229380     0.0000050
  C        0.5551260     1.0198140    -0.0000050
  N       -0.7967650     0.7650270     0.0000030
  C       -0.9609660    -0.5909490     0.0000020
  N        0.2035270    -1.2232130    -0.0000060
  H       -1.4974765     1.4242697    -0.0000037
  H        2.2067410    -0.4521160     0.0000090
  H        0.9528750     2.0238360    -0.0000060
  H       -1.9365860    -1.0585140     0.0000030
units angstrom
no_reorient  #important for SAPT in psi4, default
symmetry c1  #important for SAPT in psi4, default
}

set PROPERTIES_ORIGIN ["COM"]
properties('MP2/aug-cc-pvtz', properties = ['dipole'])
--------------------------------------------------------------------------

    Molecular point group: c1
  Charge       = 0
  Multiplicity = 1
  Basis Set: AUG-CC-PVTZ
    Blend: AUG-CC-PVTZ
  Basis Set: (AUG-CC-PVTZ AUX)
    Blend: AUG-CC-PVTZ-JKFIT

    Orbital Energies [Eh]
    ---------------------

    Doubly Occupied:

       1A    -15.621652     2A    -15.549012     3A    -11.300386
       4A    -11.263900     5A    -11.246308     6A     -1.342064
       7A     -1.171186     8A     -1.006638     9A     -0.840538
      10A     -0.799726    11A     -0.760172    12A     -0.612206
      13A     -0.603776    14A     -0.598818    15A     -0.569484
      16A     -0.439742    17A     -0.401993    18A     -0.320328

  @DF-RHF Final Energy:  -224.89556998102250

   => Energetics <=

    Nuclear Repulsion Energy =            163.1231208886683532
    One-Electron Energy =                -627.1415257885518031
    Two-Electron Energy =                 239.1228349188609172
    Total Energy =                       -224.8955699810225042
  Basis Set: (AUG-CC-PVTZ AUX)
    Blend: AUG-CC-PVTZ-RI
    Molecular point group: c1

    Geometry (in Angstrom), charge = 0, multiplicity = 1:

       Center              X                  Y                   Z               Mass
    ------------   -----------------  -----------------  -----------------  -----------------
         C            1.144716038688    -0.193656302780     0.000005230626    12.000000000000
         C            0.550080038688     1.049095697220    -0.000004769374    12.000000000000
         N           -0.801810961312     0.794308697220     0.000003230626    14.003074004430
         C           -0.966011961312    -0.561667302780     0.000002230626    12.000000000000
         N            0.198481038688    -1.193931302780    -0.000005769374    14.003074004430
         H           -1.502522461312     1.453551397220    -0.000003469374     1.007825032230
         H            2.201695038688    -0.422834302780     0.000009230626     1.007825032230
         H            0.947829038688     2.053117697220    -0.000005769374     1.007825032230
         H           -1.941631961312    -1.029232302780     0.000003230626     1.007825032230

  Basis Set: AUG-CC-PVTZ
    Blend: AUG-CC-PVTZ
  Basis Set: (AUG-CC-PVTZ AUX)
    Blend: AUG-CC-PVTZ-JKFIT
	 Reference Energy          =    -224.8955699810225042 [Eh]
	 Singles Energy            =      -0.0000000000000000 [Eh]
	 Same-Spin Energy          =      -0.2433877343909389 [Eh]
	 Opposite-Spin Energy      =      -0.7413639390852000 [Eh]
	 Correlation Energy        =      -0.9847516734761389 [Eh]
	 Total Energy              =    -225.8803216544986299 [Eh]

	 ================> DF-SCS-MP2 Energies <==================
	-----------------------------------------------------------
	 SCS Same-Spin Scale       =       0.3333333333333333 [-]
	 SCS Opposite-Spin Scale   =       1.2000000000000000 [-]
	 SCS Same-Spin Energy      =      -0.0811292447969796 [Eh]
	 SCS Opposite-Spin Energy  =      -0.8896367269022400 [Eh]
	 SCS Correlation Energy    =      -0.9707659716992196 [Eh]
	 SCS Total Energy          =    -225.8663359527217267 [Eh]
	-----------------------------------------------------------

  Dipole Moment: [D]
     X:    -1.7317      Y:     3.3650      Z:     0.0000     Total:     3.7845

*** Psi4 exiting successfully. Buy a developer a beer!
