                               Psi4 1.3.2 release

  ==> Input File <==

--------------------------------------------------------------------------
#psi4
#
memory 32 gb

molecule  {
0 1
  C       -1.1499320    -0.2219830     0.0000330
  C       -0.5541220     1.0203030    -0.0000280
  N        0.7974550     0.7643250     0.0000120
  C        0.9604690    -0.5917710     0.0000050
  N       -0.2047340    -1.2229890    -0.0000280
  H        1.5354100     1.4569660     0.0000450
  H       -2.2072180    -0.4498140     0.0000570
  H       -0.9513210     2.0245130    -0.0000550
  H        1.7553232    -0.9736943     0.0000026
units angstrom
no_reorient  #important for SAPT in psi4, default
symmetry c1  #important for SAPT in psi4, default
}

set PROPERTIES_ORIGIN ["COM"]
properties('MP2/aug-cc-pvtz', properties = ['dipole'])
--------------------------------------------------------------------------

    Molecular point group: c1
  Charge       = 0
  Multiplicity = 1
  Basis Set: AUG-CC-PVTZ
    Blend: AUG-CC-PVTZ
  Basis Set: (AUG-CC-PVTZ AUX)
    Blend: AUG-CC-PVTZ-JKFIT

    Orbital Energies [Eh]
    ---------------------

    Doubly Occupied:

       1A    -15.625454     2A    -15.548111     3A    -11.277462
       4A    -11.263482     5A    -11.245111     6A     -1.339371
       7A     -1.165275     8A     -1.018078     9A     -0.847704
      10A     -0.804092    11A     -0.778992    12A     -0.624480
      13A     -0.605168    14A     -0.597465    15A     -0.575017
      16A     -0.439351    17A     -0.400302    18A     -0.319974

  @DF-RHF Final Energy:  -224.85946332453932

   => Energetics <=

    Nuclear Repulsion Energy =            163.9408742828690890
    One-Electron Energy =                -628.6508983021452650
    Two-Electron Energy =                 239.8505606947368278
    Total Energy =                       -224.8594633245393197
  Basis Set: (AUG-CC-PVTZ AUX)
    Blend: AUG-CC-PVTZ-RI
    Molecular point group: c1

    Geometry (in Angstrom), charge = 0, multiplicity = 1:

       Center              X                  Y                   Z               Mass
    ------------   -----------------  -----------------  -----------------  -----------------
         C           -1.142731915891    -0.194497496071     0.000033794578    12.000000000000
         C           -0.546921915891     1.047788503929    -0.000027205422    12.000000000000
         N            0.804655084109     0.791810503929     0.000012794578    14.003074004430
         C            0.967669084109    -0.564285496071     0.000005794578    12.000000000000
         N           -0.197533915891    -1.195503496071    -0.000027205422    14.003074004430
         H            1.542610084109     1.484451503929     0.000045794578     1.007825032230
         H           -2.200017915891    -0.422328496071     0.000057794578     1.007825032230
         H           -0.944120915891     2.051998503929    -0.000054205422     1.007825032230
         H            1.762523284109    -0.946208796071     0.000003394578     1.007825032230

  Basis Set: AUG-CC-PVTZ
    Blend: AUG-CC-PVTZ
  Basis Set: (AUG-CC-PVTZ AUX)
    Blend: AUG-CC-PVTZ-JKFIT
	 Reference Energy          =    -224.8594633245393197 [Eh]
	 Singles Energy            =      -0.0000000000000000 [Eh]
	 Same-Spin Energy          =      -0.2436588121208730 [Eh]
	 Opposite-Spin Energy      =      -0.7419648294595429 [Eh]
	 Correlation Energy        =      -0.9856236415804159 [Eh]
	 Total Energy              =    -225.8450869661197373 [Eh]

	 ================> DF-SCS-MP2 Energies <==================
	-----------------------------------------------------------
	 SCS Same-Spin Scale       =       0.3333333333333333 [-]
	 SCS Opposite-Spin Scale   =       1.2000000000000000 [-]
	 SCS Same-Spin Energy      =      -0.0812196040402910 [Eh]
	 SCS Opposite-Spin Energy  =      -0.8903577953514514 [Eh]
	 SCS Correlation Energy    =      -0.9715773993917425 [Eh]
	 SCS Total Energy          =    -225.8310407239310678 [Eh]
	-----------------------------------------------------------

  Dipole Moment: [D]
     X:     1.7646      Y:     3.4379      Z:     0.0001     Total:     3.8643

*** Psi4 exiting successfully. Buy a developer a beer!
