                               Psi4 1.3.2 release

  ==> Input File <==

--------------------------------------------------------------------------
#psi4
#
memory 32 gb

molecule  {
0 1
  C       -1.1499320    -0.2219830     0.0000330
  C       -0.5541220     1.0203030    -0.0000280
  N        0.8924486     0.7723929     0.0000143
  C        0.9604690    -0.5917710     0.0000050
  N       -0.2047340    -1.2229890    -0.0000280
  H        1.5354100     1.4569660     0.0000450
  H       -2.2072180    -0.4498140     0.0000570
  H       -0.9513210     2.0245130    -0.0000550
  H        1.9355930    -1.0603130     0.0000020
units angstrom
no_reorient  #important for SAPT in psi4, default
symmetry c1  #important for SAPT in psi4, default
}

set PROPERTIES_ORIGIN ["COM"]
properties('MP2/aug-cc-pvtz', properties = ['dipole'])
--------------------------------------------------------------------------

    Molecular point group: c1
  Charge       = 0
  Multiplicity = 1
  Basis Set: AUG-CC-PVTZ
    Blend: AUG-CC-PVTZ
  Basis Set: (AUG-CC-PVTZ AUX)
    Blend: AUG-CC-PVTZ-JKFIT

    Orbital Energies [Eh]
    ---------------------

    Doubly Occupied:

       1A    -15.619591     2A    -15.550169     3A    -11.308943
       4A    -11.269368     5A    -11.254517     6A     -1.325350
       7A     -1.171422     8A     -1.000674     9A     -0.852298
      10A     -0.792260    11A     -0.754665    12A     -0.623168
      13A     -0.587866    14A     -0.580062    15A     -0.572455
      16A     -0.442138    17A     -0.402957    18A     -0.324141

  @DF-RHF Final Energy:  -224.88359868294395

   => Energetics <=

    Nuclear Repulsion Energy =            161.3906405237430590
    One-Electron Energy =                -623.6843898126809336
    Two-Electron Energy =                 237.4101506059939197
    Total Energy =                       -224.8835986829439548
  Basis Set: (AUG-CC-PVTZ AUX)
    Blend: AUG-CC-PVTZ-RI
    Molecular point group: c1

    Geometry (in Angstrom), charge = 0, multiplicity = 1:

       Center              X                  Y                   Z               Mass
    ------------   -----------------  -----------------  -----------------  -----------------
         C           -1.164953249423    -0.194874919201     0.000033330093    12.000000000000
         C           -0.569143249423     1.047411080799    -0.000027669907    12.000000000000
         N            0.877427350577     0.799500980799     0.000014630093    14.003074004430
         C            0.945447750577    -0.564662919201     0.000005330093    12.000000000000
         N           -0.219755249423    -1.195880919201    -0.000027669907    14.003074004430
         H            1.520388750577     1.484074080799     0.000045330093     1.007825032230
         H           -2.222239249423    -0.422705919201     0.000057330093     1.007825032230
         H           -0.966342249423     2.051621080799    -0.000054669907     1.007825032230
         H            1.920571750577    -1.033204919201     0.000002330093     1.007825032230

  Basis Set: AUG-CC-PVTZ
    Blend: AUG-CC-PVTZ
  Basis Set: (AUG-CC-PVTZ AUX)
    Blend: AUG-CC-PVTZ-JKFIT
	 Reference Energy          =    -224.8835986829439548 [Eh]
	 Singles Energy            =      -0.0000000000000000 [Eh]
	 Same-Spin Energy          =      -0.2426240599517567 [Eh]
	 Opposite-Spin Energy      =      -0.7423896015248788 [Eh]
	 Correlation Energy        =      -0.9850136614766355 [Eh]
	 Total Energy              =    -225.8686123444205975 [Eh]

	 ================> DF-SCS-MP2 Energies <==================
	-----------------------------------------------------------
	 SCS Same-Spin Scale       =       0.3333333333333333 [-]
	 SCS Opposite-Spin Scale   =       1.2000000000000000 [-]
	 SCS Same-Spin Energy      =      -0.0808746866505856 [Eh]
	 SCS Opposite-Spin Energy  =      -0.8908675218298545 [Eh]
	 SCS Correlation Energy    =      -0.9717422084804401 [Eh]
	 SCS Total Energy          =    -225.8553408914243903 [Eh]
	-----------------------------------------------------------

  Dipole Moment: [D]
     X:     1.5805      Y:     3.2460      Z:     0.0001     Total:     3.6103

*** Psi4 exiting successfully. Buy a developer a beer!
