                               Psi4 1.3.2 release

  ==> Input File <==

--------------------------------------------------------------------------
#psi4
#
memory 32 gb

molecule  {
0 1
  C       -1.0401205    -0.1286665     0.0000381
  C       -0.5541220     1.0203030    -0.0000280
  N        0.7974550     0.7643250     0.0000120
  C        0.9604690    -0.5917710     0.0000050
  N       -0.2047340    -1.2229890    -0.0000280
  H        1.5354100     1.4569660     0.0000450
  H       -2.2072180    -0.4498140     0.0000570
  H       -0.9513210     2.0245130    -0.0000550
  H        1.9355930    -1.0603130     0.0000020
units angstrom
no_reorient  #important for SAPT in psi4, default
symmetry c1  #important for SAPT in psi4, default
}

set PROPERTIES_ORIGIN ["COM"]
properties('MP2/aug-cc-pvtz', properties = ['dipole'])
--------------------------------------------------------------------------

    Molecular point group: c1
  Charge       = 0
  Multiplicity = 1
  Basis Set: AUG-CC-PVTZ
    Blend: AUG-CC-PVTZ
  Basis Set: (AUG-CC-PVTZ AUX)
    Blend: AUG-CC-PVTZ-JKFIT

    Orbital Energies [Eh]
    ---------------------

    Doubly Occupied:

       1A    -15.618636     2A    -15.548062     3A    -11.304669
       4A    -11.245737     5A    -11.236922     6A     -1.353174
       7A     -1.165544     8A     -1.031199     9A     -0.834309
      10A     -0.783303    11A     -0.760017    12A     -0.623701
      13A     -0.609061    14A     -0.600810    15A     -0.513550
      16A     -0.454590    17A     -0.398959    18A     -0.344259

  @DF-RHF Final Energy:  -224.86532340853270

   => Energetics <=

    Nuclear Repulsion Energy =            165.1855306168666289
    One-Electron Energy =                -631.2487036536032292
    Two-Electron Energy =                 241.1978496282038975
    Total Energy =                       -224.8653234085327028
  Basis Set: (AUG-CC-PVTZ AUX)
    Blend: AUG-CC-PVTZ-RI
    Molecular point group: c1

    Geometry (in Angstrom), charge = 0, multiplicity = 1:

       Center              X                  Y                   Z               Mass
    ------------   -----------------  -----------------  -----------------  -----------------
         C           -1.054958550154    -0.116356484484     0.000038003961    12.000000000000
         C           -0.568960050154     1.032613015516    -0.000028096039    12.000000000000
         N            0.782616949846     0.776635015516     0.000011903961    14.003074004430
         C            0.945630949846    -0.579460984484     0.000004903961    12.000000000000
         N           -0.219572050154    -1.210678984484    -0.000028096039    14.003074004430
         H            1.520571949846     1.469276015516     0.000044903961     1.007825032230
         H           -2.222056050154    -0.437503984484     0.000056903961     1.007825032230
         H           -0.966159050154     2.036823015516    -0.000055096039     1.007825032230
         H            1.920754949846    -1.048002984484     0.000001903961     1.007825032230

  Basis Set: AUG-CC-PVTZ
    Blend: AUG-CC-PVTZ
  Basis Set: (AUG-CC-PVTZ AUX)
    Blend: AUG-CC-PVTZ-JKFIT
	 Reference Energy          =    -224.8653234085327028 [Eh]
	 Singles Energy            =      -0.0000000000000000 [Eh]
	 Same-Spin Energy          =      -0.2428248755709062 [Eh]
	 Opposite-Spin Energy      =      -0.7406361634623082 [Eh]
	 Correlation Energy        =      -0.9834610390332144 [Eh]
	 Total Energy              =    -225.8487844475659188 [Eh]

	 ================> DF-SCS-MP2 Energies <==================
	-----------------------------------------------------------
	 SCS Same-Spin Scale       =       0.3333333333333333 [-]
	 SCS Opposite-Spin Scale   =       1.2000000000000000 [-]
	 SCS Same-Spin Energy      =      -0.0809416251903021 [Eh]
	 SCS Opposite-Spin Energy  =      -0.8887633961547698 [Eh]
	 SCS Correlation Energy    =      -0.9697050213450720 [Eh]
	 SCS Total Energy          =    -225.8350284298777808 [Eh]
	-----------------------------------------------------------

  Dipole Moment: [D]
     X:     1.8986      Y:     3.4397      Z:     0.0001     Total:     3.9289

*** Psi4 exiting successfully. Buy a developer a beer!
