                               Psi4 1.3.2 release

  ==> Input File <==

--------------------------------------------------------------------------
#psi4
#
memory 32 gb

molecule  {
0 1
  C       -1.1499320    -0.2219830     0.0000330
  C       -0.6422309     1.0588385    -0.0000217
  N        0.7974550     0.7643250     0.0000120
  C        0.9604690    -0.5917710     0.0000050
  N       -0.2047340    -1.2229890    -0.0000280
  H        1.5354100     1.4569660     0.0000450
  H       -2.2072180    -0.4498140     0.0000570
  H       -0.9513210     2.0245130    -0.0000550
  H        1.9355930    -1.0603130     0.0000020
units angstrom
no_reorient  #important for SAPT in psi4, default
symmetry c1  #important for SAPT in psi4, default
}

set PROPERTIES_ORIGIN ["COM"]
properties('MP2/aug-cc-pvtz', properties = ['dipole'])
--------------------------------------------------------------------------

    Molecular point group: c1
  Charge       = 0
  Multiplicity = 1
  Basis Set: AUG-CC-PVTZ
    Blend: AUG-CC-PVTZ
  Basis Set: (AUG-CC-PVTZ AUX)
    Blend: AUG-CC-PVTZ-JKFIT

    Orbital Energies [Eh]
    ---------------------

    Doubly Occupied:

       1A    -15.621160     2A    -15.548083     3A    -11.307342
       4A    -11.264789     5A    -11.254394     6A     -1.321817
       7A     -1.155440     8A     -1.008854     9A     -0.828461
      10A     -0.796011    11A     -0.756250    12A     -0.629793
      13A     -0.586819    14A     -0.585552    15A     -0.564254
      16A     -0.441682    17A     -0.395657    18A     -0.326986

  @DF-RHF Final Energy:  -224.88408917214471

   => Energetics <=

    Nuclear Repulsion Energy =            161.3824925028792165
    One-Electron Energy =                -623.7464755928158411
    Two-Electron Energy =                 237.4798939177918840
    Total Energy =                       -224.8840891721447122
  Basis Set: (AUG-CC-PVTZ AUX)
    Blend: AUG-CC-PVTZ-RI
    Molecular point group: c1

    Geometry (in Angstrom), charge = 0, multiplicity = 1:

       Center              X                  Y                   Z               Mass
    ------------   -----------------  -----------------  -----------------  -----------------
         C           -1.129862144802    -0.200011070083     0.000032692313    12.000000000000
         C           -0.622161044802     1.080810429917    -0.000022007687    12.000000000000
         N            0.817524855198     0.786296929917     0.000011692313    14.003074004430
         C            0.980538855198    -0.569799070083     0.000004692313    12.000000000000
         N           -0.184664144802    -1.201017070083    -0.000028307687    14.003074004430
         H            1.555479855198     1.478937929917     0.000044692313     1.007825032230
         H           -2.187148144802    -0.427842070083     0.000056692313     1.007825032230
         H           -0.931251144802     2.046484929917    -0.000055307687     1.007825032230
         H            1.955662855198    -1.038341070083     0.000001692313     1.007825032230

  Basis Set: AUG-CC-PVTZ
    Blend: AUG-CC-PVTZ
  Basis Set: (AUG-CC-PVTZ AUX)
    Blend: AUG-CC-PVTZ-JKFIT
	 Reference Energy          =    -224.8840891721447122 [Eh]
	 Singles Energy            =      -0.0000000000000000 [Eh]
	 Same-Spin Energy          =      -0.2432654670343085 [Eh]
	 Opposite-Spin Energy      =      -0.7431853332818479 [Eh]
	 Correlation Energy        =      -0.9864508003161564 [Eh]
	 Total Energy              =    -225.8705399724608753 [Eh]

	 ================> DF-SCS-MP2 Energies <==================
	-----------------------------------------------------------
	 SCS Same-Spin Scale       =       0.3333333333333333 [-]
	 SCS Opposite-Spin Scale   =       1.2000000000000000 [-]
	 SCS Same-Spin Energy      =      -0.0810884890114362 [Eh]
	 SCS Opposite-Spin Energy  =      -0.8918223999382174 [Eh]
	 SCS Correlation Energy    =      -0.9729108889496536 [Eh]
	 SCS Total Energy          =    -225.8570000610943680 [Eh]
	-----------------------------------------------------------

  Dipole Moment: [D]
     X:     1.6978      Y:     3.3190      Z:     0.0001     Total:     3.7280

*** Psi4 exiting successfully. Buy a developer a beer!
