                               Psi4 1.4a3.dev225

  ==> Input File <==

--------------------------------------------------------------------------
#psi4
#
memory 32 gb

molecule  {
0 1
  C        1.1497620    -0.2229380     0.0000050
  C        0.5551260     1.0198140    -0.0000050
  N       -0.7967650     0.7650270     0.0000030
  C       -0.9609660    -0.5909490     0.0000020
  N        0.2035270    -1.2232130    -0.0000060
  H       -1.5338930     1.4585310    -0.0000040
  H        2.2067410    -0.4521160     0.0000090
  H        0.9528750     2.0238360    -0.0000060
  H       -1.9185503    -1.0498704     0.0000030
units angstrom
no_reorient  #important for SAPT in psi4, default
symmetry c1  #important for SAPT in psi4, default
}

set PROPERTIES_ORIGIN ["COM"]
properties('MP2/aug-cc-pvtz', properties = ['dipole'])
--------------------------------------------------------------------------

    Molecular point group: c1
  Charge       = 0
  Multiplicity = 1
  Basis Set: AUG-CC-PVTZ
    Blend: AUG-CC-PVTZ
  Basis Set: (AUG-CC-PVTZ AUX)
    Blend: AUG-CC-PVTZ-JKFIT

    Orbital Energies [Eh]
    ---------------------

    Doubly Occupied:

       1A    -15.626072     2A    -15.548514     3A    -11.297721
       4A    -11.263530     5A    -11.245811     6A     -1.339263
       7A     -1.165953     8A     -1.006334     9A     -0.829666
      10A     -0.799375    11A     -0.759944    12A     -0.609273
      13A     -0.603981    14A     -0.597904    15A     -0.570034
      16A     -0.439192    17A     -0.400986    18A     -0.319843

  @DF-RHF Final Energy:  -224.89597671813530

   => Energetics <=

    Nuclear Repulsion Energy =            162.9295092725213578
    One-Electron Energy =                -626.8041805576575598
    Two-Electron Energy =                 238.9786945670008720
    Total Energy =                       -224.8959767181353016
  Basis Set: (AUG-CC-PVTZ AUX)
    Blend: AUG-CC-PVTZ-RI
    Molecular point group: c1

    Geometry (in Angstrom), charge = 0, multiplicity = 1:

       Center              X                  Y                   Z               Mass
    ------------   -----------------  -----------------  -----------------  -----------------
         C            1.144988309781    -0.194291844432     0.000005235070    12.000000000000
         C            0.550352309781     1.048460155568    -0.000004764930    12.000000000000
         N           -0.801538690219     0.793673155568     0.000003235070    14.003074004430
         C           -0.965739690219    -0.562302844432     0.000002235070    12.000000000000
         N            0.198753309781    -1.194566844432    -0.000005764930    14.003074004430
         H           -1.538666690219     1.487177155568    -0.000003764930     1.007825032230
         H            2.201967309781    -0.423469844432     0.000009235070     1.007825032230
         H            0.948101309781     2.052482155568    -0.000005764930     1.007825032230
         H           -1.923323990219    -1.021224244432     0.000003235070     1.007825032230

  Basis Set: AUG-CC-PVTZ
    Blend: AUG-CC-PVTZ
  Basis Set: (AUG-CC-PVTZ AUX)
    Blend: AUG-CC-PVTZ-JKFIT
	 Reference Energy          =    -224.8959767181353016 [Eh]
	 Singles Energy            =      -0.0000000000000000 [Eh]
	 Same-Spin Energy          =      -0.2437527067520935 [Eh]
	 Opposite-Spin Energy      =      -0.7420986626622236 [Eh]
	 Correlation Energy        =      -0.9858513694143171 [Eh]
	 Total Energy              =    -225.8818280875496214 [Eh]

	 ================> DF-SCS-MP2 Energies <==================
	-----------------------------------------------------------
	 SCS Same-Spin Scale       =       0.3333333333333333 [-]
	 SCS Opposite-Spin Scale   =       1.2000000000000000 [-]
	 SCS Same-Spin Energy      =      -0.0812509022506978 [Eh]
	 SCS Opposite-Spin Energy  =      -0.8905183951946682 [Eh]
	 SCS Correlation Energy    =      -0.9717692974453661 [Eh]
	 SCS Total Energy          =    -225.8677460155806784 [Eh]
	-----------------------------------------------------------

  Dipole Moment: [D]
     X:    -1.7746      Y:     3.4077      Z:     0.0000     Total:     3.8421

*** Psi4 exiting successfully. Buy a developer a beer!
