                               Psi4 1.3.2 release

  ==> Input File <==

--------------------------------------------------------------------------
#psi4
#
memory 32 gb

molecule  {
0 1
  C       -1.1499320    -0.2219830     0.0000330
  C       -0.5622322     0.9729777    -0.0000287
  N        0.7974550     0.7643250     0.0000120
  C        0.9604690    -0.5917710     0.0000050
  N       -0.2047340    -1.2229890    -0.0000280
  H        1.5354100     1.4569660     0.0000450
  H       -2.2072180    -0.4498140     0.0000570
  H       -0.9513210     2.0245130    -0.0000550
  H        1.9355930    -1.0603130     0.0000020
units angstrom
no_reorient  #important for SAPT in psi4, default
symmetry c1  #important for SAPT in psi4, default
}

set PROPERTIES_ORIGIN ["COM"]
properties('MP2/aug-cc-pvtz', properties = ['dipole'])
--------------------------------------------------------------------------

    Molecular point group: c1
  Charge       = 0
  Multiplicity = 1
  Basis Set: AUG-CC-PVTZ
    Blend: AUG-CC-PVTZ
  Basis Set: (AUG-CC-PVTZ AUX)
    Blend: AUG-CC-PVTZ-JKFIT

    Orbital Energies [Eh]
    ---------------------

    Doubly Occupied:

       1A    -15.623389     2A    -15.546414     3A    -11.299775
       4A    -11.261401     5A    -11.239276     6A     -1.342028
       7A     -1.164856     8A     -1.011501     9A     -0.829346
      10A     -0.798424    11A     -0.753435    12A     -0.618033
      13A     -0.600255    14A     -0.588007    15A     -0.569203
      16A     -0.437771    17A     -0.400249    18A     -0.327025

  @DF-RHF Final Energy:  -224.89414571597558

   => Energetics <=

    Nuclear Repulsion Energy =            163.5367868298021676
    One-Electron Energy =                -628.0410860615742195
    Two-Electron Energy =                 239.6101535157964690
    Total Energy =                       -224.8941457159755828
  Basis Set: (AUG-CC-PVTZ AUX)
    Blend: AUG-CC-PVTZ-RI
    Molecular point group: c1

    Geometry (in Angstrom), charge = 0, multiplicity = 1:

       Center              X                  Y                   Z               Mass
    ------------   -----------------  -----------------  -----------------  -----------------
         C           -1.143971792155    -0.184867503882     0.000033926927    12.000000000000
         C           -0.556271992155     1.010093196118    -0.000027773073    12.000000000000
         N            0.803415207845     0.801440496118     0.000012926927    14.003074004430
         C            0.966429207845    -0.554655503882     0.000005926927    12.000000000000
         N           -0.198773792155    -1.185873503882    -0.000027073073    14.003074004430
         H            1.541370207845     1.494081496118     0.000045926927     1.007825032230
         H           -2.201257792155    -0.412698503882     0.000057926927     1.007825032230
         H           -0.945360792155     2.061628496118    -0.000054073073     1.007825032230
         H            1.941553207845    -1.023197503882     0.000002926927     1.007825032230

  Basis Set: AUG-CC-PVTZ
    Blend: AUG-CC-PVTZ
  Basis Set: (AUG-CC-PVTZ AUX)
    Blend: AUG-CC-PVTZ-JKFIT
	 Reference Energy          =    -224.8941457159755828 [Eh]
	 Singles Energy            =      -0.0000000000000000 [Eh]
	 Same-Spin Energy          =      -0.2432283726548304 [Eh]
	 Opposite-Spin Energy      =      -0.7412384114076320 [Eh]
	 Correlation Energy        =      -0.9844667840624625 [Eh]
	 Total Energy              =    -225.8786125000380594 [Eh]

	 ================> DF-SCS-MP2 Energies <==================
	-----------------------------------------------------------
	 SCS Same-Spin Scale       =       0.3333333333333333 [-]
	 SCS Opposite-Spin Scale   =       1.2000000000000000 [-]
	 SCS Same-Spin Energy      =      -0.0810761242182768 [Eh]
	 SCS Opposite-Spin Energy  =      -0.8894860936891584 [Eh]
	 SCS Correlation Energy    =      -0.9705622179074352 [Eh]
	 SCS Total Energy          =    -225.8647079338830110 [Eh]
	-----------------------------------------------------------

  Dipole Moment: [D]
     X:     1.7577      Y:     3.3939      Z:     0.0001     Total:     3.8220

*** Psi4 exiting successfully. Buy a developer a beer!
