                               Psi4 1.3.2 release

  ==> Input File <==

--------------------------------------------------------------------------
#psi4
#
memory 32 gb

molecule  {
0 1
  C       -1.1499320    -0.2219830     0.0000330
  C       -0.5541220     1.0203030    -0.0000280
  N        0.7974550     0.7643250     0.0000120
  C        0.9604690    -0.5917710     0.0000050
  N       -0.2047340    -1.2229890    -0.0000280
  H        1.5354100     1.4569660     0.0000450
  H       -2.2072180    -0.4498140     0.0000570
  H       -0.8777595     1.8385326    -0.0000500
  H        1.9355930    -1.0603130     0.0000020
units angstrom
no_reorient  #important for SAPT in psi4, default
symmetry c1  #important for SAPT in psi4, default
}

set PROPERTIES_ORIGIN ["COM"]
properties('MP2/aug-cc-pvtz', properties = ['dipole'])
--------------------------------------------------------------------------

    Molecular point group: c1
  Charge       = 0
  Multiplicity = 1
  Basis Set: AUG-CC-PVTZ
    Blend: AUG-CC-PVTZ
  Basis Set: (AUG-CC-PVTZ AUX)
    Blend: AUG-CC-PVTZ-JKFIT

    Orbital Energies [Eh]
    ---------------------

    Doubly Occupied:

       1A    -15.625241     2A    -15.547797     3A    -11.299609
       4A    -11.245679     5A    -11.240668     6A     -1.338791
       7A     -1.166276     8A     -1.016983     9A     -0.836917
      10A     -0.812085    11A     -0.775387    12A     -0.632720
      13A     -0.607324    14A     -0.597304    15A     -0.568773
      16A     -0.439198    17A     -0.400488    18A     -0.319957

  @DF-RHF Final Energy:  -224.85919795624608

   => Energetics <=

    Nuclear Repulsion Energy =            163.9213412365256772
    One-Electron Energy =                -628.6186832096038870
    Two-Electron Energy =                 239.8381440168321319
    Total Energy =                       -224.8591979562460779
  Basis Set: (AUG-CC-PVTZ AUX)
    Blend: AUG-CC-PVTZ-RI
    Molecular point group: c1

    Geometry (in Angstrom), charge = 0, multiplicity = 1:

       Center              X                  Y                   Z               Mass
    ------------   -----------------  -----------------  -----------------  -----------------
         C           -1.146491867875    -0.190459540441     0.000033729402    12.000000000000
         C           -0.550681867875     1.051826459559    -0.000027270598    12.000000000000
         N            0.800895132125     0.795848459559     0.000012729402    14.003074004430
         C            0.963909132125    -0.560247540441     0.000005729402    12.000000000000
         N           -0.201293867875    -1.191465540441    -0.000027270598    14.003074004430
         H            1.538850132125     1.488489459559     0.000045729402     1.007825032230
         H           -2.203777867875    -0.418290540441     0.000057729402     1.007825032230
         H           -0.874319367875     1.870056059559    -0.000049270598     1.007825032230
         H            1.939033132125    -1.028789540441     0.000002729402     1.007825032230

  Basis Set: AUG-CC-PVTZ
    Blend: AUG-CC-PVTZ
  Basis Set: (AUG-CC-PVTZ AUX)
    Blend: AUG-CC-PVTZ-JKFIT
	 Reference Energy          =    -224.8591979562460779 [Eh]
	 Singles Energy            =      -0.0000000000000000 [Eh]
	 Same-Spin Energy          =      -0.2435977038477101 [Eh]
	 Opposite-Spin Energy      =      -0.7418019934209821 [Eh]
	 Correlation Energy        =      -0.9853996972686921 [Eh]
	 Total Energy              =    -225.8445976535147679 [Eh]

	 ================> DF-SCS-MP2 Energies <==================
	-----------------------------------------------------------
	 SCS Same-Spin Scale       =       0.3333333333333333 [-]
	 SCS Opposite-Spin Scale   =       1.2000000000000000 [-]
	 SCS Same-Spin Energy      =      -0.0811992346159034 [Eh]
	 SCS Opposite-Spin Energy  =      -0.8901623921051784 [Eh]
	 SCS Correlation Energy    =      -0.9713616267210818 [Eh]
	 SCS Total Energy          =    -225.8305595829671688 [Eh]
	-----------------------------------------------------------

  Dipole Moment: [D]
     X:     1.7858      Y:     3.3841      Z:     0.0001     Total:     3.8264

*** Psi4 exiting successfully. Buy a developer a beer!
