                               Psi4 1.3.2 release

  ==> Input File <==

--------------------------------------------------------------------------
#psi4
#
memory 32 gb

molecule  {
0 1
  C       -1.1499320    -0.2219830     0.0000330
  C       -0.5734749     0.8776225    -0.0000299
  N        0.7974550     0.7643250     0.0000120
  C        0.9604690    -0.5917710     0.0000050
  N       -0.2047340    -1.2229890    -0.0000280
  H        1.5354100     1.4569660     0.0000450
  H       -2.2072180    -0.4498140     0.0000570
  H       -0.9513210     2.0245130    -0.0000550
  H        1.9355930    -1.0603130     0.0000020
units angstrom
no_reorient  #important for SAPT in psi4, default
symmetry c1  #important for SAPT in psi4, default
}

set PROPERTIES_ORIGIN ["COM"]
properties('MP2/aug-cc-pvtz', properties = ['dipole'])
--------------------------------------------------------------------------

    Molecular point group: c1
  Charge       = 0
  Multiplicity = 1
  Basis Set: AUG-CC-PVTZ
    Blend: AUG-CC-PVTZ
  Basis Set: (AUG-CC-PVTZ AUX)
    Blend: AUG-CC-PVTZ-JKFIT

    Orbital Energies [Eh]
    ---------------------

    Doubly Occupied:

       1A    -15.618803     2A    -15.543117     3A    -11.300162
       4A    -11.257361     5A    -11.225681     6A     -1.349323
       7A     -1.164405     8A     -1.025873     9A     -0.831300
      10A     -0.800118    11A     -0.744940    12A     -0.637034
      13A     -0.606707    14A     -0.577187    15A     -0.547152
      16A     -0.434174    17A     -0.400818    18A     -0.341874

  @DF-RHF Final Energy:  -224.86638649226094

   => Energetics <=

    Nuclear Repulsion Energy =            165.0884990740835576
    One-Electron Energy =                -631.0977135392656692
    Two-Electron Energy =                 241.1428279729211965
    Total Energy =                       -224.8663864922609434
  Basis Set: (AUG-CC-PVTZ AUX)
    Blend: AUG-CC-PVTZ-RI
    Molecular point group: c1

    Geometry (in Angstrom), charge = 0, multiplicity = 1:

       Center              X                  Y                   Z               Mass
    ------------   -----------------  -----------------  -----------------  -----------------
         C           -1.141988878279    -0.168049377522     0.000034138575    12.000000000000
         C           -0.565531778279     0.931556122478    -0.000028761425    12.000000000000
         N            0.805398121721     0.818258622478     0.000013138575    14.003074004430
         C            0.968412121721    -0.537837377522     0.000006138575    12.000000000000
         N           -0.196790878279    -1.169055377522    -0.000026861425    14.003074004430
         H            1.543353121721     1.510899622478     0.000046138575     1.007825032230
         H           -2.199274878279    -0.395880377522     0.000058138575     1.007825032230
         H           -0.943377878279     2.078446622478    -0.000053861425     1.007825032230
         H            1.943536121721    -1.006379377522     0.000003138575     1.007825032230

  Basis Set: AUG-CC-PVTZ
    Blend: AUG-CC-PVTZ
  Basis Set: (AUG-CC-PVTZ AUX)
    Blend: AUG-CC-PVTZ-JKFIT
	 Reference Energy          =    -224.8663864922609434 [Eh]
	 Singles Energy            =      -0.0000000000000000 [Eh]
	 Same-Spin Energy          =      -0.2425960815471989 [Eh]
	 Opposite-Spin Energy      =      -0.7404194764243976 [Eh]
	 Correlation Energy        =      -0.9830155579715966 [Eh]
	 Total Energy              =    -225.8494020502325270 [Eh]

	 ================> DF-SCS-MP2 Energies <==================
	-----------------------------------------------------------
	 SCS Same-Spin Scale       =       0.3333333333333333 [-]
	 SCS Opposite-Spin Scale   =       1.2000000000000000 [-]
	 SCS Same-Spin Energy      =      -0.0808653605157330 [Eh]
	 SCS Opposite-Spin Energy  =      -0.8885033717092772 [Eh]
	 SCS Correlation Energy    =      -0.9693687322250102 [Eh]
	 SCS Total Energy          =    -225.8357552244859505 [Eh]
	-----------------------------------------------------------

  Dipole Moment: [D]
     X:     1.7315      Y:     3.3077      Z:     0.0001     Total:     3.7335

*** Psi4 exiting successfully. Buy a developer a beer!
