                               Psi4 1.3.2 release

  ==> Input File <==

--------------------------------------------------------------------------
#psi4
#
memory 32 gb

molecule  {
0 1
  C       -1.1062139    -0.2420197     0.0000350
  C       -0.5541220     1.0203030    -0.0000280
  N        0.7974550     0.7643250     0.0000120
  C        0.9604690    -0.5917710     0.0000050
  N       -0.2047340    -1.2229890    -0.0000280
  H        1.5354100     1.4569660     0.0000450
  H       -2.2072180    -0.4498140     0.0000570
  H       -0.9513210     2.0245130    -0.0000550
  H        1.9355930    -1.0603130     0.0000020
units angstrom
no_reorient  #important for SAPT in psi4, default
symmetry c1  #important for SAPT in psi4, default
}

set PROPERTIES_ORIGIN ["COM"]
properties('MP2/aug-cc-pvtz', properties = ['dipole'])
--------------------------------------------------------------------------

    Molecular point group: c1
  Charge       = 0
  Multiplicity = 1
  Basis Set: AUG-CC-PVTZ
    Blend: AUG-CC-PVTZ
  Basis Set: (AUG-CC-PVTZ AUX)
    Blend: AUG-CC-PVTZ-JKFIT

    Orbital Energies [Eh]
    ---------------------

    Doubly Occupied:

       1A    -15.627824     2A    -15.547261     3A    -11.299838
       4A    -11.260365     5A    -11.245699     6A     -1.346352
       7A     -1.176793     8A     -1.003675     9A     -0.835490
      10A     -0.794254    11A     -0.756934    12A     -0.611339
      13A     -0.603521    14A     -0.601772    15A     -0.559528
      16A     -0.442589    17A     -0.408370    18A     -0.316307

  @DF-RHF Final Energy:  -224.89277770600273

   => Energetics <=

    Nuclear Repulsion Energy =            163.6212112511393002
    One-Electron Energy =                -628.1521551639375502
    Two-Electron Energy =                 239.6381662067955176
    Total Energy =                       -224.8927777060027324
  Basis Set: (AUG-CC-PVTZ AUX)
    Blend: AUG-CC-PVTZ-RI
    Molecular point group: c1

    Geometry (in Angstrom), charge = 0, multiplicity = 1:

       Center              X                  Y                   Z               Mass
    ------------   -----------------  -----------------  -----------------  -----------------
         C           -1.109394828647    -0.209717188627     0.000035450719    12.000000000000
         C           -0.557302928647     1.052605511373    -0.000027549281    12.000000000000
         N            0.794274071353     0.796627511373     0.000012450719    14.003074004430
         C            0.957288071353    -0.559468488627     0.000005450719    12.000000000000
         N           -0.207914928647    -1.190686488627    -0.000027549281    14.003074004430
         H            1.532229071353     1.489268511373     0.000045450719     1.007825032230
         H           -2.210398928647    -0.417511488627     0.000057450719     1.007825032230
         H           -0.954501928647     2.056815511373    -0.000054549281     1.007825032230
         H            1.932412071353    -1.028010488627     0.000002450719     1.007825032230

  Basis Set: AUG-CC-PVTZ
    Blend: AUG-CC-PVTZ
  Basis Set: (AUG-CC-PVTZ AUX)
    Blend: AUG-CC-PVTZ-JKFIT
	 Reference Energy          =    -224.8927777060027324 [Eh]
	 Singles Energy            =      -0.0000000000000000 [Eh]
	 Same-Spin Energy          =      -0.2442258468197704 [Eh]
	 Opposite-Spin Energy      =      -0.7420304592438460 [Eh]
	 Correlation Energy        =      -0.9862563060636164 [Eh]
	 Total Energy              =    -225.8790340120663416 [Eh]

	 ================> DF-SCS-MP2 Energies <==================
	-----------------------------------------------------------
	 SCS Same-Spin Scale       =       0.3333333333333333 [-]
	 SCS Opposite-Spin Scale   =       1.2000000000000000 [-]
	 SCS Same-Spin Energy      =      -0.0814086156065901 [Eh]
	 SCS Opposite-Spin Energy  =      -0.8904365510926152 [Eh]
	 SCS Correlation Energy    =      -0.9718451666992053 [Eh]
	 SCS Total Energy          =    -225.8646228727019434 [Eh]
	-----------------------------------------------------------

  Dipole Moment: [D]
     X:     1.8156      Y:     3.3903      Z:     0.0001     Total:     3.8458

*** Psi4 exiting successfully. Buy a developer a beer!
