                               Psi4 1.3.2 release

  ==> Input File <==

--------------------------------------------------------------------------
#psi4
#
memory 32 gb

molecule  {
0 1
  C       -1.1499320    -0.2219830     0.0000330
  C       -0.5758936     1.0305121    -0.0000264
  N        0.7974550     0.7643250     0.0000120
  C        0.9604690    -0.5917710     0.0000050
  N       -0.2047340    -1.2229890    -0.0000280
  H        1.5354100     1.4569660     0.0000450
  H       -2.2072180    -0.4498140     0.0000570
  H       -0.9513210     2.0245130    -0.0000550
  H        1.9355930    -1.0603130     0.0000020
units angstrom
no_reorient  #important for SAPT in psi4, default
symmetry c1  #important for SAPT in psi4, default
}

set PROPERTIES_ORIGIN ["COM"]
properties('MP2/aug-cc-pvtz', properties = ['dipole'])
--------------------------------------------------------------------------

    Molecular point group: c1
  Charge       = 0
  Multiplicity = 1
  Basis Set: AUG-CC-PVTZ
    Blend: AUG-CC-PVTZ
  Basis Set: (AUG-CC-PVTZ AUX)
    Blend: AUG-CC-PVTZ-JKFIT

    Orbital Energies [Eh]
    ---------------------

    Doubly Occupied:

       1A    -15.625106     2A    -15.548444     3A    -11.301850
       4A    -11.263660     5A    -11.247934     6A     -1.334345
       7A     -1.163303     8A     -1.006297     9A     -0.828136
      10A     -0.797576    11A     -0.757685    12A     -0.611230
      13A     -0.601482    14A     -0.594546    15A     -0.568722
      16A     -0.439833    17A     -0.399632    18A     -0.321646

  @DF-RHF Final Energy:  -224.89491509489852

   => Energetics <=

    Nuclear Repulsion Energy =            162.4546405087948813
    One-Electron Energy =                -625.8762569602259873
    Two-Electron Energy =                 238.5267013565325556
    Total Energy =                       -224.8949150948985221
  Basis Set: (AUG-CC-PVTZ AUX)
    Blend: AUG-CC-PVTZ-RI
    Molecular point group: c1

    Geometry (in Angstrom), charge = 0, multiplicity = 1:

       Center              X                  Y                   Z               Mass
    ------------   -----------------  -----------------  -----------------  -----------------
         C           -1.141562283796    -0.195015044963     0.000033521268    12.000000000000
         C           -0.567523883796     1.057480055037    -0.000025878732    12.000000000000
         N            0.805824716204     0.791292955037     0.000012521268    14.003074004430
         C            0.968838716204    -0.564803044963     0.000005521268    12.000000000000
         N           -0.196364283796    -1.196021044963    -0.000027478732    14.003074004430
         H            1.543779716204     1.483933955037     0.000045521268     1.007825032230
         H           -2.198848283796    -0.422846044963     0.000057521268     1.007825032230
         H           -0.942951283796     2.051480955037    -0.000054478732     1.007825032230
         H            1.943962716204    -1.033345044963     0.000002521268     1.007825032230

  Basis Set: AUG-CC-PVTZ
    Blend: AUG-CC-PVTZ
  Basis Set: (AUG-CC-PVTZ AUX)
    Blend: AUG-CC-PVTZ-JKFIT
	 Reference Energy          =    -224.8949150948985221 [Eh]
	 Singles Energy            =      -0.0000000000000000 [Eh]
	 Same-Spin Energy          =      -0.2436371154199256 [Eh]
	 Opposite-Spin Energy      =      -0.7423897584064407 [Eh]
	 Correlation Energy        =      -0.9860268738263663 [Eh]
	 Total Energy              =    -225.8809419687248976 [Eh]

	 ================> DF-SCS-MP2 Energies <==================
	-----------------------------------------------------------
	 SCS Same-Spin Scale       =       0.3333333333333333 [-]
	 SCS Opposite-Spin Scale   =       1.2000000000000000 [-]
	 SCS Same-Spin Energy      =      -0.0812123718066419 [Eh]
	 SCS Opposite-Spin Energy  =      -0.8908677100877288 [Eh]
	 SCS Correlation Energy    =      -0.9720800818943707 [Eh]
	 SCS Total Energy          =    -225.8669951767928978 [Eh]
	-----------------------------------------------------------

  Dipole Moment: [D]
     X:     1.7571      Y:     3.3826      Z:     0.0001     Total:     3.8117

*** Psi4 exiting successfully. Buy a developer a beer!
