                               Psi4 1.4a3.dev225

  ==> Input File <==

--------------------------------------------------------------------------
#psi4
#
memory 32 gb

molecule  {
0 1
  C        1.1497620    -0.2229380     0.0000050
  C        0.5551260     1.0198140    -0.0000050
  N       -0.7967650     0.7650270     0.0000030
  C       -0.9609660    -0.5909490     0.0000020
  N        0.2035270    -1.2232130    -0.0000060
  H       -1.5338930     1.4585310    -0.0000040
  H        2.1578764    -0.4415210     0.0000088
  H        0.9528750     2.0238360    -0.0000060
  H       -1.9365860    -1.0585140     0.0000030
units angstrom
no_reorient  #important for SAPT in psi4, default
symmetry c1  #important for SAPT in psi4, default
}

set PROPERTIES_ORIGIN ["COM"]
properties('MP2/aug-cc-pvtz', properties = ['dipole'])
--------------------------------------------------------------------------

    Molecular point group: c1
  Charge       = 0
  Multiplicity = 1
  Basis Set: AUG-CC-PVTZ
    Blend: AUG-CC-PVTZ
  Basis Set: (AUG-CC-PVTZ AUX)
    Blend: AUG-CC-PVTZ-JKFIT

    Orbital Energies [Eh]
    ---------------------

    Doubly Occupied:

       1A    -15.625960     2A    -15.548165     3A    -11.299570
       4A    -11.263268     5A    -11.240142     6A     -1.338993
       7A     -1.165967     8A     -1.006744     9A     -0.829569
      10A     -0.804309    11A     -0.758429    12A     -0.610422
      13A     -0.603087    14A     -0.597696    15A     -0.576172
      16A     -0.439157    17A     -0.400812    18A     -0.319692

  @DF-RHF Final Energy:  -224.89499067776981

   => Energetics <=

    Nuclear Repulsion Energy =            163.0758474810122607
    One-Electron Energy =                -627.0853643118081209
    Two-Electron Energy =                 239.1145261530260484
    Total Energy =                       -224.8949906777698118
  Basis Set: (AUG-CC-PVTZ AUX)
    Blend: AUG-CC-PVTZ-RI
    Molecular point group: c1

    Geometry (in Angstrom), charge = 0, multiplicity = 1:

       Center              X                  Y                   Z               Mass
    ------------   -----------------  -----------------  -----------------  -----------------
         C            1.145979290467    -0.194320750128     0.000005238033    12.000000000000
         C            0.551343290467     1.048431249872    -0.000004761967    12.000000000000
         N           -0.800547709533     0.793644249872     0.000003238033    14.003074004430
         C           -0.964748709533    -0.562331750128     0.000002238033    12.000000000000
         N            0.199744290467    -1.194595750128    -0.000005761967    14.003074004430
         H           -1.537675709533     1.487148249872    -0.000003761967     1.007825032230
         H            2.154093690467    -0.412903750128     0.000009038033     1.007825032230
         H            0.949092290467     2.052453249872    -0.000005761967     1.007825032230
         H           -1.940368709533    -1.029896750128     0.000003238033     1.007825032230

  Basis Set: AUG-CC-PVTZ
    Blend: AUG-CC-PVTZ
  Basis Set: (AUG-CC-PVTZ AUX)
    Blend: AUG-CC-PVTZ-JKFIT
	 Reference Energy          =    -224.8949906777698118 [Eh]
	 Singles Energy            =      -0.0000000000000000 [Eh]
	 Same-Spin Energy          =      -0.2437155377292904 [Eh]
	 Opposite-Spin Energy      =      -0.7419745405138268 [Eh]
	 Correlation Energy        =      -0.9856900782431173 [Eh]
	 Total Energy              =    -225.8806807560129357 [Eh]

	 ================> DF-SCS-MP2 Energies <==================
	-----------------------------------------------------------
	 SCS Same-Spin Scale       =       0.3333333333333333 [-]
	 SCS Opposite-Spin Scale   =       1.2000000000000000 [-]
	 SCS Same-Spin Energy      =      -0.0812385125764301 [Eh]
	 SCS Opposite-Spin Energy  =      -0.8903694486165922 [Eh]
	 SCS Correlation Energy    =      -0.9716079611930223 [Eh]
	 SCS Total Energy          =    -225.8665986389628415 [Eh]
	-----------------------------------------------------------

  Dipole Moment: [D]
     X:    -1.7674      Y:     3.4119      Z:     0.0000     Total:     3.8425

*** Psi4 exiting successfully. Buy a developer a beer!
