                               Psi4 1.3.2 release

  ==> Input File <==

--------------------------------------------------------------------------
#psi4
#
memory 32 gb

molecule  {
0 1
  C       -1.1929242    -0.2004328     0.0000309
  C       -0.5541220     1.0203030    -0.0000280
  N        0.7974550     0.7643250     0.0000120
  C        0.9604690    -0.5917710     0.0000050
  N       -0.2047340    -1.2229890    -0.0000280
  H        1.5354100     1.4569660     0.0000450
  H       -2.2072180    -0.4498140     0.0000570
  H       -0.9513210     2.0245130    -0.0000550
  H        1.9355930    -1.0603130     0.0000020
units angstrom
no_reorient  #important for SAPT in psi4, default
symmetry c1  #important for SAPT in psi4, default
}

set PROPERTIES_ORIGIN ["COM"]
properties('MP2/aug-cc-pvtz', properties = ['dipole'])
--------------------------------------------------------------------------

    Molecular point group: c1
  Charge       = 0
  Multiplicity = 1
  Basis Set: AUG-CC-PVTZ
    Blend: AUG-CC-PVTZ
  Basis Set: (AUG-CC-PVTZ AUX)
    Blend: AUG-CC-PVTZ-JKFIT

    Orbital Energies [Eh]
    ---------------------

    Doubly Occupied:

       1A    -15.624970     2A    -15.549895     3A    -11.300226
       4A    -11.267117     5A    -11.246449     6A     -1.333723
       7A     -1.156333     8A     -1.007484     9A     -0.823214
      10A     -0.804754    11A     -0.757299    12A     -0.613343
      13A     -0.600095    14A     -0.595011    15A     -0.573374
      16A     -0.434312    17A     -0.394591    18A     -0.323523

  @DF-RHF Final Energy:  -224.89281804635817

   => Energetics <=

    Nuclear Repulsion Energy =            162.0920264544893143
    One-Electron Energy =                -625.1582587575410344
    Two-Electron Energy =                 238.1734142566935475
    Total Energy =                       -224.8928180463581725
  Basis Set: (AUG-CC-PVTZ AUX)
    Blend: AUG-CC-PVTZ-RI
    Molecular point group: c1

    Geometry (in Angstrom), charge = 0, multiplicity = 1:

       Center              X                  Y                   Z               Mass
    ------------   -----------------  -----------------  -----------------  -----------------
         C           -1.180811733194    -0.175465113987     0.000032073850    12.000000000000
         C           -0.542009533194     1.045270686013    -0.000026826150    12.000000000000
         N            0.809567466806     0.789292686013     0.000013173850    14.003074004430
         C            0.972581466806    -0.566803313987     0.000006173850    12.000000000000
         N           -0.192621533194    -1.198021313987    -0.000026826150    14.003074004430
         H            1.547522466806     1.481933686013     0.000046173850     1.007825032230
         H           -2.195105533194    -0.424846313987     0.000058173850     1.007825032230
         H           -0.939208533194     2.049480686013    -0.000053826150     1.007825032230
         H            1.947705466806    -1.035345313987     0.000003173850     1.007825032230

  Basis Set: AUG-CC-PVTZ
    Blend: AUG-CC-PVTZ
  Basis Set: (AUG-CC-PVTZ AUX)
    Blend: AUG-CC-PVTZ-JKFIT
	 Reference Energy          =    -224.8928180463581725 [Eh]
	 Singles Energy            =      -0.0000000000000000 [Eh]
	 Same-Spin Energy          =      -0.2434518470514162 [Eh]
	 Opposite-Spin Energy      =      -0.7427004746890873 [Eh]
	 Correlation Energy        =      -0.9861523217405035 [Eh]
	 Total Energy              =    -225.8789703680986634 [Eh]

	 ================> DF-SCS-MP2 Energies <==================
	-----------------------------------------------------------
	 SCS Same-Spin Scale       =       0.3333333333333333 [-]
	 SCS Opposite-Spin Scale   =       1.2000000000000000 [-]
	 SCS Same-Spin Energy      =      -0.0811506156838054 [Eh]
	 SCS Opposite-Spin Energy  =      -0.8912405696269047 [Eh]
	 SCS Correlation Energy    =      -0.9723911853107101 [Eh]
	 SCS Total Energy          =    -225.8652092316688709 [Eh]
	-----------------------------------------------------------

  Dipole Moment: [D]
     X:     1.7543      Y:     3.4130      Z:     0.0001     Total:     3.8374

*** Psi4 exiting successfully. Buy a developer a beer!
