                               Psi4 1.3.2 release

  ==> Input File <==

--------------------------------------------------------------------------
#psi4
#
memory 32 gb

molecule  {
0 1
  C       -1.2174562    -0.2903551     0.0000292
  C       -0.5541220     1.0203030    -0.0000280
  N        0.7974550     0.7643250     0.0000120
  C        0.9604690    -0.5917710     0.0000050
  N       -0.2047340    -1.2229890    -0.0000280
  H        1.5354100     1.4569660     0.0000450
  H       -2.2072180    -0.4498140     0.0000570
  H       -0.9513210     2.0245130    -0.0000550
  H        1.9355930    -1.0603130     0.0000020
units angstrom
no_reorient  #important for SAPT in psi4, default
symmetry c1  #important for SAPT in psi4, default
}

set PROPERTIES_ORIGIN ["COM"]
properties('MP2/aug-cc-pvtz', properties = ['dipole'])
--------------------------------------------------------------------------

    Molecular point group: c1
  Charge       = 0
  Multiplicity = 1
  Basis Set: AUG-CC-PVTZ
    Blend: AUG-CC-PVTZ
  Basis Set: (AUG-CC-PVTZ AUX)
    Blend: AUG-CC-PVTZ-JKFIT

    Orbital Energies [Eh]
    ---------------------

    Doubly Occupied:

       1A    -15.632303     2A    -15.550898     3A    -11.297497
       4A    -11.274899     5A    -11.252753     6A     -1.333641
       7A     -1.167184     8A     -0.994152     9A     -0.831902
      10A     -0.807915    11A     -0.756579    12A     -0.617156
      13A     -0.596932    14A     -0.593543    15A     -0.587421
      16A     -0.427544    17A     -0.403676    18A     -0.306062

  @DF-RHF Final Energy:  -224.87897512637980

   => Energetics <=

    Nuclear Repulsion Energy =            161.4825386399380989
    One-Electron Energy =                -623.8589110402185725
    Two-Electron Energy =                 237.4973972739007024
    Total Energy =                       -224.8789751263797996
  Basis Set: (AUG-CC-PVTZ AUX)
    Blend: AUG-CC-PVTZ-RI
    Molecular point group: c1

    Geometry (in Angstrom), charge = 0, multiplicity = 1:

       Center              X                  Y                   Z               Mass
    ------------   -----------------  -----------------  -----------------  -----------------
         C           -1.201016939523    -0.249527506987     0.000030673685    12.000000000000
         C           -0.537682739523     1.061130593013    -0.000026526315    12.000000000000
         N            0.813894260477     0.805152593013     0.000013473685    14.003074004430
         C            0.976908260477    -0.550943406987     0.000006473685    12.000000000000
         N           -0.188294739523    -1.182161406987    -0.000026526315    14.003074004430
         H            1.551849260477     1.497793593013     0.000046473685     1.007825032230
         H           -2.190778739523    -0.408986406987     0.000058473685     1.007825032230
         H           -0.934881739523     2.065340593013    -0.000053526315     1.007825032230
         H            1.952032260477    -1.019485406987     0.000003473685     1.007825032230

  Basis Set: AUG-CC-PVTZ
    Blend: AUG-CC-PVTZ
  Basis Set: (AUG-CC-PVTZ AUX)
    Blend: AUG-CC-PVTZ-JKFIT
	 Reference Energy          =    -224.8789751263797996 [Eh]
	 Singles Energy            =      -0.0000000000000000 [Eh]
	 Same-Spin Energy          =      -0.2451259351733009 [Eh]
	 Opposite-Spin Energy      =      -0.7449192682525667 [Eh]
	 Correlation Energy        =      -0.9900452034258675 [Eh]
	 Total Energy              =    -225.8690203298056645 [Eh]

	 ================> DF-SCS-MP2 Energies <==================
	-----------------------------------------------------------
	 SCS Same-Spin Scale       =       0.3333333333333333 [-]
	 SCS Opposite-Spin Scale   =       1.2000000000000000 [-]
	 SCS Same-Spin Energy      =      -0.0817086450577670 [Eh]
	 SCS Opposite-Spin Energy  =      -0.8939031219030801 [Eh]
	 SCS Correlation Energy    =      -0.9756117669608471 [Eh]
	 SCS Total Energy          =    -225.8545868933406382 [Eh]
	-----------------------------------------------------------

  Dipole Moment: [D]
     X:     1.7460      Y:     3.3638      Z:     0.0001     Total:     3.7899

*** Psi4 exiting successfully. Buy a developer a beer!
