                               Psi4 1.3.2 release

  ==> Input File <==

--------------------------------------------------------------------------
#psi4
#
memory 32 gb

molecule  {
0 1
  C       -1.1281604    -0.2321921     0.0000340
  C       -0.5541220     1.0203030    -0.0000280
  N        0.7974550     0.7643250     0.0000120
  C        0.9604690    -0.5917710     0.0000050
  N       -0.2047340    -1.2229890    -0.0000280
  H        1.5354100     1.4569660     0.0000450
  H       -2.2072180    -0.4498140     0.0000570
  H       -0.9513210     2.0245130    -0.0000550
  H        1.9355930    -1.0603130     0.0000020
units angstrom
no_reorient  #important for SAPT in psi4, default
symmetry c1  #important for SAPT in psi4, default
}

set PROPERTIES_ORIGIN ["COM"]
properties('MP2/aug-cc-pvtz', properties = ['dipole'])
--------------------------------------------------------------------------

    Molecular point group: c1
  Charge       = 0
  Multiplicity = 1
  Basis Set: AUG-CC-PVTZ
    Blend: AUG-CC-PVTZ
  Basis Set: (AUG-CC-PVTZ AUX)
    Blend: AUG-CC-PVTZ-JKFIT

    Orbital Energies [Eh]
    ---------------------

    Doubly Occupied:

       1A    -15.626990     2A    -15.547947     3A    -11.299848
       4A    -11.261912     5A    -11.245764     6A     -1.342658
       7A     -1.171334     8A     -1.004574     9A     -0.832010
      10A     -0.796519    11A     -0.757277    12A     -0.608830
      13A     -0.603862    14A     -0.599789    15A     -0.564683
      16A     -0.441101    17A     -0.404652    18A     -0.318042

  @DF-RHF Final Energy:  -224.89511861898106

   => Energetics <=

    Nuclear Repulsion Energy =            163.2218940289157274
    One-Electron Energy =                -627.3784410937691973
    Two-Electron Energy =                 239.2614284458724399
    Total Energy =                       -224.8951186189810585
  Basis Set: (AUG-CC-PVTZ AUX)
    Blend: AUG-CC-PVTZ-RI
    Molecular point group: c1

    Geometry (in Angstrom), charge = 0, multiplicity = 1:

       Center              X                  Y                   Z               Mass
    ------------   -----------------  -----------------  -----------------  -----------------
         C           -1.127470548552    -0.201622916423     0.000034627092    12.000000000000
         C           -0.553432148552     1.050872183577    -0.000027372908    12.000000000000
         N            0.798144851448     0.794894183577     0.000012627092    14.003074004430
         C            0.961158851448    -0.561201816423     0.000005627092    12.000000000000
         N           -0.204044148552    -1.192419816423    -0.000027372908    14.003074004430
         H            1.536099851448     1.487535183577     0.000045627092     1.007825032230
         H           -2.206528148552    -0.419244816423     0.000057627092     1.007825032230
         H           -0.950631148552     2.055082183577    -0.000054372908     1.007825032230
         H            1.936282851448    -1.029743816423     0.000002627092     1.007825032230

  Basis Set: AUG-CC-PVTZ
    Blend: AUG-CC-PVTZ
  Basis Set: (AUG-CC-PVTZ AUX)
    Blend: AUG-CC-PVTZ-JKFIT
	 Reference Energy          =    -224.8951186189810585 [Eh]
	 Singles Energy            =      -0.0000000000000000 [Eh]
	 Same-Spin Energy          =      -0.2439987115377042 [Eh]
	 Opposite-Spin Energy      =      -0.7420810677162448 [Eh]
	 Correlation Energy        =      -0.9860797792539490 [Eh]
	 Total Energy              =    -225.8811983982350000 [Eh]

	 ================> DF-SCS-MP2 Energies <==================
	-----------------------------------------------------------
	 SCS Same-Spin Scale       =       0.3333333333333333 [-]
	 SCS Opposite-Spin Scale   =       1.2000000000000000 [-]
	 SCS Same-Spin Energy      =      -0.0813329038459014 [Eh]
	 SCS Opposite-Spin Energy  =      -0.8904972812594938 [Eh]
	 SCS Correlation Energy    =      -0.9718301851053952 [Eh]
	 SCS Total Energy          =    -225.8669488040864621 [Eh]
	-----------------------------------------------------------

  Dipole Moment: [D]
     X:     1.7942      Y:     3.3975      Z:     0.0001     Total:     3.8422

*** Psi4 exiting successfully. Buy a developer a beer!
