                               Psi4 1.3.2 release

  ==> Input File <==

--------------------------------------------------------------------------
#psi4
#
memory 32 gb

molecule  {
0 1
  C       -1.0168138    -0.2774567     0.0000387
  C       -0.5541220     1.0203030    -0.0000280
  N        0.7974550     0.7643250     0.0000120
  C        0.9604690    -0.5917710     0.0000050
  N       -0.2047340    -1.2229890    -0.0000280
  H        1.5354100     1.4569660     0.0000450
  H       -2.2072180    -0.4498140     0.0000570
  H       -0.9513210     2.0245130    -0.0000550
  H        1.9355930    -1.0603130     0.0000020
units angstrom
no_reorient  #important for SAPT in psi4, default
symmetry c1  #important for SAPT in psi4, default
}

set PROPERTIES_ORIGIN ["COM"]
properties('MP2/aug-cc-pvtz', properties = ['dipole'])
--------------------------------------------------------------------------

    Molecular point group: c1
  Charge       = 0
  Multiplicity = 1
  Basis Set: AUG-CC-PVTZ
    Blend: AUG-CC-PVTZ
  Basis Set: (AUG-CC-PVTZ AUX)
    Blend: AUG-CC-PVTZ-JKFIT

    Orbital Energies [Eh]
    ---------------------

    Doubly Occupied:

       1A    -15.632113     2A    -15.544788     3A    -11.300743
       4A    -11.255376     5A    -11.246433     6A     -1.365650
       7A     -1.200399     8A     -1.000628     9A     -0.851420
      10A     -0.788809    11A     -0.753457    12A     -0.624475
      13A     -0.612218    14A     -0.603063    15A     -0.540024
      16A     -0.441231    17A     -0.425055    18A     -0.310109

  @DF-RHF Final Energy:  -224.86592328235469

   => Energetics <=

    Nuclear Repulsion Energy =            165.3357575507113211
    One-Electron Energy =                -631.4113820255760174
    Two-Electron Energy =                 241.2097011925100105
    Total Energy =                       -224.8659232823546859
  Basis Set: (AUG-CC-PVTZ AUX)
    Blend: AUG-CC-PVTZ-RI
    Molecular point group: c1

    Geometry (in Angstrom), charge = 0, multiplicity = 1:

       Center              X                  Y                   Z               Mass
    ------------   -----------------  -----------------  -----------------  -----------------
         C           -1.035762533428    -0.238904042397     0.000038498137    12.000000000000
         C           -0.573070733428     1.058855657603    -0.000028201863    12.000000000000
         N            0.778506266572     0.802877657603     0.000011798137    14.003074004430
         C            0.941520266572    -0.553218342397     0.000004798137    12.000000000000
         N           -0.223682733428    -1.184436342397    -0.000028201863    14.003074004430
         H            1.516461266572     1.495518657603     0.000044798137     1.007825032230
         H           -2.226166733428    -0.411261342397     0.000056798137     1.007825032230
         H           -0.970269733428     2.063065657603    -0.000055201863     1.007825032230
         H            1.916644266572    -1.021760342397     0.000001798137     1.007825032230

  Basis Set: AUG-CC-PVTZ
    Blend: AUG-CC-PVTZ
  Basis Set: (AUG-CC-PVTZ AUX)
    Blend: AUG-CC-PVTZ-JKFIT
	 Reference Energy          =    -224.8659232823546859 [Eh]
	 Singles Energy            =      -0.0000000000000000 [Eh]
	 Same-Spin Energy          =      -0.2453065111855914 [Eh]
	 Opposite-Spin Energy      =      -0.7425959112561256 [Eh]
	 Correlation Energy        =      -0.9879024224417170 [Eh]
	 Total Energy              =    -225.8538257047964066 [Eh]

	 ================> DF-SCS-MP2 Energies <==================
	-----------------------------------------------------------
	 SCS Same-Spin Scale       =       0.3333333333333333 [-]
	 SCS Opposite-Spin Scale   =       1.2000000000000000 [-]
	 SCS Same-Spin Energy      =      -0.0817688370618638 [Eh]
	 SCS Opposite-Spin Energy  =      -0.8911150935073506 [Eh]
	 SCS Correlation Energy    =      -0.9728839305692144 [Eh]
	 SCS Total Energy          =    -225.8388072129239106 [Eh]
	-----------------------------------------------------------

  Dipole Moment: [D]
     X:     1.9567      Y:     3.3521      Z:     0.0001     Total:     3.8814

*** Psi4 exiting successfully. Buy a developer a beer!
