                               Psi4 1.4a3.dev225

  ==> Input File <==

--------------------------------------------------------------------------
#psi4
#
memory 32 gb

molecule  {
0 1
  C        1.1497620    -0.2229380     0.0000050
  C        0.5551260     1.0198140    -0.0000050
  N       -0.7967650     0.7650270     0.0000030
  C       -0.9609660    -0.5909490     0.0000020
  N        0.2035270    -1.2232130    -0.0000060
  H       -1.5338930     1.4585310    -0.0000040
  H        2.2067410    -0.4521160     0.0000090
  H        0.9528750     2.0238360    -0.0000060
  H       -1.9546217    -1.0671576     0.0000030
units angstrom
no_reorient  #important for SAPT in psi4, default
symmetry c1  #important for SAPT in psi4, default
}

set PROPERTIES_ORIGIN ["COM"]
properties('MP2/aug-cc-pvtz', properties = ['dipole'])
--------------------------------------------------------------------------

    Molecular point group: c1
  Charge       = 0
  Multiplicity = 1
  Basis Set: AUG-CC-PVTZ
    Blend: AUG-CC-PVTZ
  Basis Set: (AUG-CC-PVTZ AUX)
    Blend: AUG-CC-PVTZ-JKFIT

    Orbital Energies [Eh]
    ---------------------

    Doubly Occupied:

       1A    -15.626345     2A    -15.548743     3A    -11.302101
       4A    -11.263627     5A    -11.246043     6A     -1.339388
       7A     -1.166197     8A     -1.004792     9A     -0.827972
      10A     -0.798833    11A     -0.754913    12A     -0.607655
      13A     -0.602047    14A     -0.598100    15A     -0.567898
      16A     -0.439179    17A     -0.401210    18A     -0.319911

  @DF-RHF Final Energy:  -224.89520991077762

   => Energetics <=

    Nuclear Repulsion Energy =            162.7380350071634041
    One-Electron Energy =                -626.4365780210149524
    Two-Electron Energy =                 238.8033331030739532
    Total Energy =                       -224.8952099107776235
  Basis Set: (AUG-CC-PVTZ AUX)
    Blend: AUG-CC-PVTZ-RI
    Molecular point group: c1

    Geometry (in Angstrom), charge = 0, multiplicity = 1:

       Center              X                  Y                   Z               Mass
    ------------   -----------------  -----------------  -----------------  -----------------
         C            1.145522628173    -0.194035772617     0.000005235070    12.000000000000
         C            0.550886628173     1.048716227383    -0.000004764930    12.000000000000
         N           -0.801004371827     0.793929227383     0.000003235070    14.003074004430
         C           -0.965205371827    -0.562046772617     0.000002235070    12.000000000000
         N            0.199287628173    -1.194310772617    -0.000005764930    14.003074004430
         H           -1.538132371827     1.487433227383    -0.000003764930     1.007825032230
         H            2.202501628173    -0.423213772617     0.000009235070     1.007825032230
         H            0.948635628173     2.052738227383    -0.000005764930     1.007825032230
         H           -1.958861071827    -1.038255372617     0.000003235070     1.007825032230

  Basis Set: AUG-CC-PVTZ
    Blend: AUG-CC-PVTZ
  Basis Set: (AUG-CC-PVTZ AUX)
    Blend: AUG-CC-PVTZ-JKFIT
	 Reference Energy          =    -224.8952099107776235 [Eh]
	 Singles Energy            =      -0.0000000000000000 [Eh]
	 Same-Spin Energy          =      -0.2438265407897040 [Eh]
	 Opposite-Spin Energy      =      -0.7423314487273348 [Eh]
	 Correlation Energy        =      -0.9861579895170388 [Eh]
	 Total Energy              =    -225.8813679002946628 [Eh]

	 ================> DF-SCS-MP2 Energies <==================
	-----------------------------------------------------------
	 SCS Same-Spin Scale       =       0.3333333333333333 [-]
	 SCS Opposite-Spin Scale   =       1.2000000000000000 [-]
	 SCS Same-Spin Energy      =      -0.0812755135965680 [Eh]
	 SCS Opposite-Spin Energy  =      -0.8907977384728017 [Eh]
	 SCS Correlation Energy    =      -0.9720732520693698 [Eh]
	 SCS Total Energy          =    -225.8672831628470021 [Eh]
	-----------------------------------------------------------

  Dipole Moment: [D]
     X:    -1.7726      Y:     3.4029      Z:     0.0000     Total:     3.8369

*** Psi4 exiting successfully. Buy a developer a beer!
