                               Psi4 1.4a3.dev225

  ==> Input File <==

--------------------------------------------------------------------------
#psi4
#
memory 32 gb

molecule  {
0 1
  C        1.1497620    -0.2229380     0.0000050
  C        0.5551260     1.0198140    -0.0000050
  N       -0.7967650     0.7650270     0.0000030
  C       -0.9609660    -0.5909490     0.0000020
  N        0.2035270    -1.2232130    -0.0000060
  H       -1.5703095     1.4927923    -0.0000043
  H        2.2067410    -0.4521160     0.0000090
  H        0.9528750     2.0238360    -0.0000060
  H       -1.9365860    -1.0585140     0.0000030
units angstrom
no_reorient  #important for SAPT in psi4, default
symmetry c1  #important for SAPT in psi4, default
}

set PROPERTIES_ORIGIN ["COM"]
properties('MP2/aug-cc-pvtz', properties = ['dipole'])
--------------------------------------------------------------------------

    Molecular point group: c1
  Charge       = 0
  Multiplicity = 1
  Basis Set: AUG-CC-PVTZ
    Blend: AUG-CC-PVTZ
  Basis Set: (AUG-CC-PVTZ AUX)
    Blend: AUG-CC-PVTZ-JKFIT

    Orbital Energies [Eh]
    ---------------------

    Doubly Occupied:

       1A    -15.630337     2A    -15.548261     3A    -11.299498
       4A    -11.263274     5A    -11.245560     6A     -1.337040
       7A     -1.161658     8A     -1.004529     9A     -0.818352
      10A     -0.798451    11A     -0.754019    12A     -0.604456
      13A     -0.602059    14A     -0.597225    15A     -0.568592
      16A     -0.438633    17A     -0.400249    18A     -0.319427

  @DF-RHF Final Energy:  -224.89192783054807

   => Energetics <=

    Nuclear Repulsion Energy =            162.5627865599795427
    One-Electron Energy =                -626.1261908851624867
    Two-Electron Energy =                 238.6714764946348737
    Total Energy =                       -224.8919278305480702
  Basis Set: (AUG-CC-PVTZ AUX)
    Blend: AUG-CC-PVTZ-RI
    Molecular point group: c1

    Geometry (in Angstrom), charge = 0, multiplicity = 1:

       Center              X                  Y                   Z               Mass
    ------------   -----------------  -----------------  -----------------  -----------------
         C            1.145794899266    -0.194671314269     0.000005239514    12.000000000000
         C            0.551158899266     1.048080685731    -0.000004760486    12.000000000000
         N           -0.800732100734     0.793293685731     0.000003239514    14.003074004430
         C           -0.964933100734    -0.562682314269     0.000002239514    12.000000000000
         N            0.199559899266    -1.194946314269    -0.000005760486    14.003074004430
         H           -1.574276600734     1.521058985731    -0.000004060486     1.007825032230
         H            2.202773899266    -0.423849314269     0.000009239514     1.007825032230
         H            0.948907899266     2.052102685731    -0.000005760486     1.007825032230
         H           -1.940553100734    -1.030247314269     0.000003239514     1.007825032230

  Basis Set: AUG-CC-PVTZ
    Blend: AUG-CC-PVTZ
  Basis Set: (AUG-CC-PVTZ AUX)
    Blend: AUG-CC-PVTZ-JKFIT
	 Reference Energy          =    -224.8919278305480702 [Eh]
	 Singles Energy            =      -0.0000000000000000 [Eh]
	 Same-Spin Energy          =      -0.2442071033903004 [Eh]
	 Opposite-Spin Energy      =      -0.7431583846078171 [Eh]
	 Correlation Energy        =      -0.9873654879981175 [Eh]
	 Total Energy              =    -225.8792933185461891 [Eh]

	 ================> DF-SCS-MP2 Energies <==================
	-----------------------------------------------------------
	 SCS Same-Spin Scale       =       0.3333333333333333 [-]
	 SCS Opposite-Spin Scale   =       1.2000000000000000 [-]
	 SCS Same-Spin Energy      =      -0.0814023677967668 [Eh]
	 SCS Opposite-Spin Energy  =      -0.8917900615293806 [Eh]
	 SCS Correlation Energy    =      -0.9731924293261474 [Eh]
	 SCS Total Energy          =    -225.8651202598742316 [Eh]
	-----------------------------------------------------------

  Dipole Moment: [D]
     X:    -1.8153      Y:     3.4445      Z:     0.0000     Total:     3.8936

*** Psi4 exiting successfully. Buy a developer a beer!
