                               Psi4 1.3.2 release

  ==> Input File <==

--------------------------------------------------------------------------
#psi4
#
memory 32 gb

molecule  {
0 1
  C       -1.1499320    -0.2219830     0.0000330
  C       -0.5199609     1.1601790    -0.0000257
  N        0.7974550     0.7643250     0.0000120
  C        0.9604690    -0.5917710     0.0000050
  N       -0.2047340    -1.2229890    -0.0000280
  H        1.5354100     1.4569660     0.0000450
  H       -2.2072180    -0.4498140     0.0000570
  H       -0.9513210     2.0245130    -0.0000550
  H        1.9355930    -1.0603130     0.0000020
units angstrom
no_reorient  #important for SAPT in psi4, default
symmetry c1  #important for SAPT in psi4, default
}

set PROPERTIES_ORIGIN ["COM"]
properties('MP2/aug-cc-pvtz', properties = ['dipole'])
--------------------------------------------------------------------------

    Molecular point group: c1
  Charge       = 0
  Multiplicity = 1
  Basis Set: AUG-CC-PVTZ
    Blend: AUG-CC-PVTZ
  Basis Set: (AUG-CC-PVTZ AUX)
    Blend: AUG-CC-PVTZ-JKFIT

    Orbital Energies [Eh]
    ---------------------

    Doubly Occupied:

       1A    -15.636645     2A    -15.556409     3A    -11.301227
       4A    -11.270084     5A    -11.263794     6A     -1.334248
       7A     -1.172055     8A     -0.993942     9A     -0.833312
      10A     -0.803219    11A     -0.767799    12A     -0.645154
      13A     -0.594177    14A     -0.584611    15A     -0.557455
      16A     -0.440921    17A     -0.406232    18A     -0.300687

  @DF-RHF Final Energy:  -224.85966808022459

   => Energetics <=

    Nuclear Repulsion Energy =            160.9929422079784445
    One-Electron Energy =                -622.7812788060820139
    Two-Electron Energy =                 236.9286685178789753
    Total Energy =                       -224.8596680802245942
  Basis Set: (AUG-CC-PVTZ AUX)
    Blend: AUG-CC-PVTZ-RI
    Molecular point group: c1

    Geometry (in Angstrom), charge = 0, multiplicity = 1:

       Center              X                  Y                   Z               Mass
    ------------   -----------------  -----------------  -----------------  -----------------
         C           -1.151427327509    -0.217884844501     0.000033397807    12.000000000000
         C           -0.521456227509     1.164277155499    -0.000025302193    12.000000000000
         N            0.795959672491     0.768423155499     0.000012397807    14.003074004430
         C            0.958973672491    -0.587672844501     0.000005397807    12.000000000000
         N           -0.206229327509    -1.218890844501    -0.000027602193    14.003074004430
         H            1.533914672491     1.461064155499     0.000045397807     1.007825032230
         H           -2.208713327509    -0.445715844501     0.000057397807     1.007825032230
         H           -0.952816327509     2.028611155499    -0.000054602193     1.007825032230
         H            1.934097672491    -1.056214844501     0.000002397807     1.007825032230

  Basis Set: AUG-CC-PVTZ
    Blend: AUG-CC-PVTZ
  Basis Set: (AUG-CC-PVTZ AUX)
    Blend: AUG-CC-PVTZ-JKFIT
	 Reference Energy          =    -224.8596680802245942 [Eh]
	 Singles Energy            =      -0.0000000000000000 [Eh]
	 Same-Spin Energy          =      -0.2463749648170261 [Eh]
	 Opposite-Spin Energy      =      -0.7473849723236201 [Eh]
	 Correlation Energy        =      -0.9937599371406463 [Eh]
	 Total Energy              =    -225.8534280173652462 [Eh]

	 ================> DF-SCS-MP2 Energies <==================
	-----------------------------------------------------------
	 SCS Same-Spin Scale       =       0.3333333333333333 [-]
	 SCS Opposite-Spin Scale   =       1.2000000000000000 [-]
	 SCS Same-Spin Energy      =      -0.0821249882723420 [Eh]
	 SCS Opposite-Spin Energy  =      -0.8968619667883441 [Eh]
	 SCS Correlation Energy    =      -0.9789869550606861 [Eh]
	 SCS Total Energy          =    -225.8386550352852851 [Eh]
	-----------------------------------------------------------

  Dipole Moment: [D]
     X:     1.8496      Y:     3.3411      Z:     0.0001     Total:     3.8189

*** Psi4 exiting successfully. Buy a developer a beer!
