                               Psi4 1.3.2 release

  ==> Input File <==

--------------------------------------------------------------------------
#psi4
#
memory 32 gb

molecule  {
0 1
  C       -1.1499320    -0.2219830     0.0000330
  C       -0.5686857     0.9253982    -0.0000293
  N        0.7974550     0.7643250     0.0000120
  C        0.9604690    -0.5917710     0.0000050
  N       -0.2047340    -1.2229890    -0.0000280
  H        1.5354100     1.4569660     0.0000450
  H       -2.2072180    -0.4498140     0.0000570
  H       -0.9513210     2.0245130    -0.0000550
  H        1.9355930    -1.0603130     0.0000020
units angstrom
no_reorient  #important for SAPT in psi4, default
symmetry c1  #important for SAPT in psi4, default
}

set PROPERTIES_ORIGIN ["COM"]
properties('MP2/aug-cc-pvtz', properties = ['dipole'])
--------------------------------------------------------------------------

    Molecular point group: c1
  Charge       = 0
  Multiplicity = 1
  Basis Set: AUG-CC-PVTZ
    Blend: AUG-CC-PVTZ
  Basis Set: (AUG-CC-PVTZ AUX)
    Blend: AUG-CC-PVTZ-JKFIT

    Orbital Energies [Eh]
    ---------------------

    Doubly Occupied:

       1A    -15.620898     2A    -15.544542     3A    -11.299834
       4A    -11.259303     5A    -11.232481     6A     -1.345326
       7A     -1.164227     8A     -1.018372     9A     -0.830251
      10A     -0.798767    11A     -0.749222    12A     -0.627725
      13A     -0.603116    14A     -0.578151    15A     -0.562862
      16A     -0.436112    17A     -0.400066    18A     -0.334440

  @DF-RHF Final Energy:  -224.88456155185494

   => Energetics <=

    Nuclear Repulsion Energy =            164.2877480267615340
    One-Electron Energy =                -629.5332274223758304
    Two-Electron Energy =                 240.3609178437593812
    Total Energy =                       -224.8845615518549437
  Basis Set: (AUG-CC-PVTZ AUX)
    Blend: AUG-CC-PVTZ-RI
    Molecular point group: c1

    Geometry (in Angstrom), charge = 0, multiplicity = 1:

       Center              X                  Y                   Z               Mass
    ------------   -----------------  -----------------  -----------------  -----------------
         C           -1.142833566044    -0.176475742938     0.000034032751    12.000000000000
         C           -0.561587266044     0.970905457062    -0.000028267249    12.000000000000
         N            0.804553433956     0.809832257062     0.000013032751    14.003074004430
         C            0.967567433956    -0.546263742938     0.000006032751    12.000000000000
         N           -0.197635566044    -1.177481742938    -0.000026967249    14.003074004430
         H            1.542508433956     1.502473257062     0.000046032751     1.007825032230
         H           -2.200119566044    -0.404306742938     0.000058032751     1.007825032230
         H           -0.944222566044     2.070020257062    -0.000053967249     1.007825032230
         H            1.942691433956    -1.014805742938     0.000003032751     1.007825032230

  Basis Set: AUG-CC-PVTZ
    Blend: AUG-CC-PVTZ
  Basis Set: (AUG-CC-PVTZ AUX)
    Blend: AUG-CC-PVTZ-JKFIT
	 Reference Energy          =    -224.8845615518549437 [Eh]
	 Singles Energy            =      -0.0000000000000000 [Eh]
	 Same-Spin Energy          =      -0.2428260090582017 [Eh]
	 Opposite-Spin Energy      =      -0.7406449042660086 [Eh]
	 Correlation Energy        =      -0.9834709133242103 [Eh]
	 Total Energy              =    -225.8680324651791409 [Eh]

	 ================> DF-SCS-MP2 Energies <==================
	-----------------------------------------------------------
	 SCS Same-Spin Scale       =       0.3333333333333333 [-]
	 SCS Opposite-Spin Scale   =       1.2000000000000000 [-]
	 SCS Same-Spin Energy      =      -0.0809420030194005 [Eh]
	 SCS Opposite-Spin Energy  =      -0.8887738851192103 [Eh]
	 SCS Correlation Energy    =      -0.9697158881386109 [Eh]
	 SCS Total Energy          =    -225.8542774399935524 [Eh]
	-----------------------------------------------------------

  Dipole Moment: [D]
     X:     1.7419      Y:     3.3634      Z:     0.0001     Total:     3.7877

*** Psi4 exiting successfully. Buy a developer a beer!
