                               Psi4 1.3.2 release

  ==> Input File <==

--------------------------------------------------------------------------
#psi4
#
memory 32 gb

molecule  {
0 1
  C       -1.1499320    -0.2219830     0.0000330
  C       -0.5541220     1.0203030    -0.0000280
  N        0.7974550     0.7643250     0.0000120
  C        0.9604690    -0.5917710     0.0000050
  N       -0.2047340    -1.2229890    -0.0000280
  H        1.5354100     1.4569660     0.0000450
  H       -2.2072180    -0.4498140     0.0000570
  H       -0.9145402     1.9315228    -0.0000525
  H        1.9355930    -1.0603130     0.0000020
units angstrom
no_reorient  #important for SAPT in psi4, default
symmetry c1  #important for SAPT in psi4, default
}

set PROPERTIES_ORIGIN ["COM"]
properties('MP2/aug-cc-pvtz', properties = ['dipole'])
--------------------------------------------------------------------------

    Molecular point group: c1
  Charge       = 0
  Multiplicity = 1
  Basis Set: AUG-CC-PVTZ
    Blend: AUG-CC-PVTZ
  Basis Set: (AUG-CC-PVTZ AUX)
    Blend: AUG-CC-PVTZ-JKFIT

    Orbital Energies [Eh]
    ---------------------

    Doubly Occupied:

       1A    -15.625617     2A    -15.548130     3A    -11.299673
       4A    -11.252197     5A    -11.245545     6A     -1.338953
       7A     -1.166030     8A     -1.010013     9A     -0.830724
      10A     -0.804259    11A     -0.767595    12A     -0.619493
      13A     -0.607610    14A     -0.597566    15A     -0.568860
      16A     -0.439139    17A     -0.400732    18A     -0.319762

  @DF-RHF Final Energy:  -224.88960325374609

   => Energetics <=

    Nuclear Repulsion Energy =            163.3372612919686162
    One-Electron Energy =                -627.5699328648893243
    Two-Electron Energy =                 239.3430683191746198
    Total Energy =                       -224.8896032537460883
  Basis Set: (AUG-CC-PVTZ AUX)
    Blend: AUG-CC-PVTZ-RI
    Molecular point group: c1

    Geometry (in Angstrom), charge = 0, multiplicity = 1:

       Center              X                  Y                   Z               Mass
    ------------   -----------------  -----------------  -----------------  -----------------
         C           -1.145947042765    -0.191836985567     0.000033766434    12.000000000000
         C           -0.550137042765     1.050449014433    -0.000027233566    12.000000000000
         N            0.801439957235     0.794471014433     0.000012766434    14.003074004430
         C            0.964453957235    -0.561624985567     0.000005766434    12.000000000000
         N           -0.200749042765    -1.192842985567    -0.000027233566    14.003074004430
         H            1.539394957235     1.487112014433     0.000045766434     1.007825032230
         H           -2.203233042765    -0.419667985567     0.000057766434     1.007825032230
         H           -0.910555242765     1.961668814433    -0.000051733566     1.007825032230
         H            1.939577957235    -1.030166985567     0.000002766434     1.007825032230

  Basis Set: AUG-CC-PVTZ
    Blend: AUG-CC-PVTZ
  Basis Set: (AUG-CC-PVTZ AUX)
    Blend: AUG-CC-PVTZ-JKFIT
	 Reference Energy          =    -224.8896032537460883 [Eh]
	 Singles Energy            =      -0.0000000000000000 [Eh]
	 Same-Spin Energy          =      -0.2436398378206677 [Eh]
	 Opposite-Spin Energy      =      -0.7417834092511236 [Eh]
	 Correlation Energy        =      -0.9854232470717913 [Eh]
	 Total Energy              =    -225.8750265008178815 [Eh]

	 ================> DF-SCS-MP2 Energies <==================
	-----------------------------------------------------------
	 SCS Same-Spin Scale       =       0.3333333333333333 [-]
	 SCS Opposite-Spin Scale   =       1.2000000000000000 [-]
	 SCS Same-Spin Energy      =      -0.0812132792735559 [Eh]
	 SCS Opposite-Spin Energy  =      -0.8901400911013483 [Eh]
	 SCS Correlation Energy    =      -0.9713533703749042 [Eh]
	 SCS Total Energy          =    -225.8609566241210018 [Eh]
	-----------------------------------------------------------

  Dipole Moment: [D]
     X:     1.7795      Y:     3.3983      Z:     0.0001     Total:     3.8360

*** Psi4 exiting successfully. Buy a developer a beer!
