                               Psi4 1.3.2 release

  ==> Input File <==

--------------------------------------------------------------------------
#psi4
#
memory 32 gb

molecule  {
0 1
  N        1.0430420     0.8835120     0.3262100
  C       -2.6935940    -0.1236090    -0.2650160
  C       -0.4170680    -1.0145740    -0.0079460
  C       -1.3683020    -0.3105490    -1.0112920
  C       -2.2166740     0.1783740     1.1559530
  C       -1.0996000    -0.8433070     1.3811970
  C       -3.6002280     0.9375310    -0.8724950
  C        0.9620280    -0.4146880    -0.0398380
  C        2.1249987    -1.2188363    -0.1860817
  C        3.3396130    -0.5322390    -0.4347340
  C        2.2533150     1.4653640     0.3147880
  C        3.4262710     0.8062240    -0.0568370
  H       -3.2284890    -1.0854330    -0.2500270
  H       -0.3333030    -2.0805640    -0.2540920
  H       -0.9618110     0.6780590    -1.2570810
  H       -1.4754410    -0.8694270    -1.9482280
  H       -3.0167220     0.1138590     1.9027270
  H       -1.8007770     1.1928100     1.1867420
  H       -0.3855780    -0.5294870     2.1482020
  H       -1.5277920    -1.8013410     1.6997400
  H       -3.8772320     0.6843320    -1.9011880
  H       -4.5228040     1.0497910    -0.2936460
  H       -3.0892320     1.9062640    -0.8879070
  H        1.9842510    -2.1936970    -0.7089060
  H        4.2276210    -1.0857940    -0.7310670
  H        2.2780980     2.5111560     0.6184940
  H        4.3773590     1.3311980    -0.0481150
units angstrom
no_reorient  #important for SAPT in psi4, default
symmetry c1  #important for SAPT in psi4, default
}

set PROPERTIES_ORIGIN ["COM"]
properties('MP2/aug-cc-pvtz', properties = ['dipole'])
--------------------------------------------------------------------------

    Molecular point group: c1
  Charge       = 0
  Multiplicity = 1
  Basis Set: AUG-CC-PVTZ
    Blend: AUG-CC-PVTZ
  Basis Set: (AUG-CC-PVTZ AUX)
    Blend: AUG-CC-PVTZ-JKFIT

    Orbital Energies [Eh]
    ---------------------

    Doubly Occupied:

       1A    -15.557573     2A    -11.280939     3A    -11.277671
       4A    -11.262835     5A    -11.239873     6A    -11.235324
       7A    -11.226639     8A    -11.215003     9A    -11.212273
      10A    -11.210028    11A    -11.205510    12A    -11.204190
      13A     -1.251989    14A     -1.128069    15A     -1.079215
      16A     -1.045383    17A     -0.990665    18A     -0.955132
      19A     -0.893766    20A     -0.853571    21A     -0.834851
      22A     -0.764646    23A     -0.755807    24A     -0.694834
      25A     -0.664491    26A     -0.640131    27A     -0.636967
      28A     -0.603175    29A     -0.585273    30A     -0.578773
      31A     -0.572544    32A     -0.552670    33A     -0.532345
      34A     -0.527400    35A     -0.510853    36A     -0.473167
      37A     -0.469867    38A     -0.461057    39A     -0.453319
      40A     -0.446604    41A     -0.439900    42A     -0.409488
      43A     -0.375655    44A     -0.331478

  @DF-RHF Final Energy:  -479.87811524339202

   => Energetics <=

    Nuclear Repulsion Energy =            685.0642950906648139
    One-Electron Energy =               -2008.6029374264512626
    Two-Electron Energy =                 843.6605270923943181
    Total Energy =                       -479.8781152433920170
  Basis Set: (AUG-CC-PVTZ AUX)
    Blend: AUG-CC-PVTZ-RI
    Molecular point group: c1

    Geometry (in Angstrom), charge = 0, multiplicity = 1:

       Center              X                  Y                   Z               Mass
    ------------   -----------------  -----------------  -----------------  -----------------
         N            0.970461330413     0.887555538124     0.304050787407    14.003074004430
         C           -2.766174669587    -0.119565461876    -0.287175212593    12.000000000000
         C           -0.489648669587    -1.010530461876    -0.030105212593    12.000000000000
         C           -1.440882669587    -0.306505461876    -1.033451212593    12.000000000000
         C           -2.289254669587     0.182417538124     1.133793787407    12.000000000000
         C           -1.172180669587    -0.839263461876     1.359037787407    12.000000000000
         C           -3.672808669587     0.941574538124    -0.894654212593    12.000000000000
         C            0.889447330413    -0.410644461876    -0.061997212593    12.000000000000
         C            2.052418030413    -1.214792761876    -0.208240912593    12.000000000000
         C            3.267032330413    -0.528195461876    -0.456893212593    12.000000000000
         C            2.180734330413     1.469407538124     0.292628787407    12.000000000000
         C            3.353690330413     0.810267538124    -0.078996212593    12.000000000000
         H           -3.301069669587    -1.081389461876    -0.272186212593     1.007825032230
         H           -0.405883669587    -2.076520461876    -0.276251212593     1.007825032230
         H           -1.034391669587     0.682102538124    -1.279240212593     1.007825032230
         H           -1.548021669587    -0.865383461876    -1.970387212593     1.007825032230
         H           -3.089302669587     0.117902538124     1.880567787407     1.007825032230
         H           -1.873357669587     1.196853538124     1.164582787407     1.007825032230
         H           -0.458158669587    -0.525443461876     2.126042787407     1.007825032230
         H           -1.600372669587    -1.797297461876     1.677580787407     1.007825032230
         H           -3.949812669587     0.688375538124    -1.923347212593     1.007825032230
         H           -4.595384669587     1.053834538124    -0.315805212593     1.007825032230
         H           -3.161812669587     1.910307538124    -0.910066212593     1.007825032230
         H            1.911670330413    -2.189653461876    -0.731065212593     1.007825032230
         H            4.155040330413    -1.081750461876    -0.753226212593     1.007825032230
         H            2.205517330413     2.515199538124     0.596334787407     1.007825032230
         H            4.304778330413     1.335241538124    -0.070274212593     1.007825032230

  Basis Set: AUG-CC-PVTZ
    Blend: AUG-CC-PVTZ
  Basis Set: (AUG-CC-PVTZ AUX)
    Blend: AUG-CC-PVTZ-JKFIT
	 Reference Energy          =    -479.8781152433920170 [Eh]
	 Singles Energy            =      -0.0000000000000000 [Eh]
	 Same-Spin Energy          =      -0.5333420095660684 [Eh]
	 Opposite-Spin Energy      =      -1.7475506530441443 [Eh]
	 Correlation Energy        =      -2.2808926626102126 [Eh]
	 Total Energy              =    -482.1590079060022163 [Eh]

	 ================> DF-SCS-MP2 Energies <==================
	-----------------------------------------------------------
	 SCS Same-Spin Scale       =       0.3333333333333333 [-]
	 SCS Opposite-Spin Scale   =       1.2000000000000000 [-]
	 SCS Same-Spin Energy      =      -0.1777806698553561 [Eh]
	 SCS Opposite-Spin Energy  =      -2.0970607836529731 [Eh]
	 SCS Correlation Energy    =      -2.2748414535083290 [Eh]
	 SCS Total Energy          =    -482.1529566969003326 [Eh]
	-----------------------------------------------------------

  Dipole Moment: [D]
     X:     1.2857      Y:    -0.9336      Z:    -0.5412     Total:     1.6785

*** Psi4 exiting successfully. Buy a developer a beer!
