                               Psi4 1.3.2 release

  ==> Input File <==

--------------------------------------------------------------------------
#psi4
#
memory 32 gb

molecule  {
0 1
  N        1.0430420     0.8835120     0.3262100
  C       -2.6935940    -0.1236090    -0.2650160
  C       -0.4170680    -1.0145740    -0.0079460
  C       -1.3683020    -0.3105490    -1.0112920
  C       -2.2166740     0.1783740     1.1559530
  C       -1.0996000    -0.8433070     1.3811970
  C       -3.6002280     0.9375310    -0.8724950
  C        0.9620280    -0.4146880    -0.0398380
  C        2.1107316    -1.1911330    -0.2811026
  C        3.3396130    -0.5322390    -0.4347340
  C        2.2533150     1.4653640     0.3147880
  C        3.4262710     0.8062240    -0.0568370
  H       -3.2284890    -1.0854330    -0.2500270
  H       -0.3333030    -2.0805640    -0.2540920
  H       -0.9618110     0.6780590    -1.2570810
  H       -1.4754410    -0.8694270    -1.9482280
  H       -3.0167220     0.1138590     1.9027270
  H       -1.8007770     1.1928100     1.1867420
  H       -0.3855780    -0.5294870     2.1482020
  H       -1.5277920    -1.8013410     1.6997400
  H       -3.8772320     0.6843320    -1.9011880
  H       -4.5228040     1.0497910    -0.2936460
  H       -3.0892320     1.9062640    -0.8879070
  H        1.9842510    -2.1936970    -0.7089060
  H        4.2276210    -1.0857940    -0.7310670
  H        2.2780980     2.5111560     0.6184940
  H        4.3773590     1.3311980    -0.0481150
units angstrom
no_reorient  #important for SAPT in psi4, default
symmetry c1  #important for SAPT in psi4, default
}

set PROPERTIES_ORIGIN ["COM"]
properties('MP2/aug-cc-pvtz', properties = ['dipole'])
--------------------------------------------------------------------------

    Molecular point group: c1
  Charge       = 0
  Multiplicity = 1
  Basis Set: AUG-CC-PVTZ
    Blend: AUG-CC-PVTZ
  Basis Set: (AUG-CC-PVTZ AUX)
    Blend: AUG-CC-PVTZ-JKFIT

    Orbital Energies [Eh]
    ---------------------

    Doubly Occupied:

       1A    -15.557832     2A    -11.277387     3A    -11.275544
       4A    -11.259759     5A    -11.236872     6A    -11.235662
       7A    -11.226309     8A    -11.214737     9A    -11.211784
      10A    -11.209744    11A    -11.205322    12A    -11.203901
      13A     -1.251897    14A     -1.127728    15A     -1.080850
      16A     -1.046106    17A     -0.990981    18A     -0.954970
      19A     -0.893783    20A     -0.854575    21A     -0.835975
      22A     -0.764581    23A     -0.755628    24A     -0.695911
      25A     -0.666632    26A     -0.640375    27A     -0.639292
      28A     -0.605789    29A     -0.585083    30A     -0.578476
      31A     -0.573481    32A     -0.552322    33A     -0.534495
      34A     -0.528345    35A     -0.511498    36A     -0.473081
      37A     -0.469547    38A     -0.461011    39A     -0.452955
      40A     -0.446715    41A     -0.439687    42A     -0.409843
      43A     -0.376463    44A     -0.331862

  @DF-RHF Final Energy:  -479.89002335450965

   => Energetics <=

    Nuclear Repulsion Energy =            685.5512651974397613
    One-Electron Energy =               -2009.5929906932701670
    Two-Electron Energy =                 844.1517021413206976
    Total Energy =                       -479.8900233545097080
  Basis Set: (AUG-CC-PVTZ AUX)
    Blend: AUG-CC-PVTZ-RI
    Molecular point group: c1

    Geometry (in Angstrom), charge = 0, multiplicity = 1:

       Center              X                  Y                   Z               Mass
    ------------   -----------------  -----------------  -----------------  -----------------
         N            0.971523921788     0.885492239510     0.311127795966    14.003074004430
         C           -2.765112078212    -0.121628760490    -0.280098204034    12.000000000000
         C           -0.488586078212    -1.012593760490    -0.023028204034    12.000000000000
         C           -1.439820078212    -0.308568760490    -1.026374204034    12.000000000000
         C           -2.288192078212     0.180354239510     1.140870795966    12.000000000000
         C           -1.171118078212    -0.841326760490     1.366114795966    12.000000000000
         C           -3.671746078212     0.939511239510    -0.887577204034    12.000000000000
         C            0.890509921788    -0.412707760490    -0.054920204034    12.000000000000
         C            2.039213521788    -1.189152760490    -0.296184804034    12.000000000000
         C            3.268094921788    -0.530258760490    -0.449816204034    12.000000000000
         C            2.181796921788     1.467344239510     0.299705795966    12.000000000000
         C            3.354752921788     0.808204239510    -0.071919204034    12.000000000000
         H           -3.300007078212    -1.083452760490    -0.265109204034     1.007825032230
         H           -0.404821078212    -2.078583760490    -0.269174204034     1.007825032230
         H           -1.033329078212     0.680039239510    -1.272163204034     1.007825032230
         H           -1.546959078212    -0.867446760490    -1.963310204034     1.007825032230
         H           -3.088240078212     0.115839239510     1.887644795966     1.007825032230
         H           -1.872295078212     1.194790239510     1.171659795966     1.007825032230
         H           -0.457096078212    -0.527506760490     2.133119795966     1.007825032230
         H           -1.599310078212    -1.799360760490     1.684657795966     1.007825032230
         H           -3.948750078212     0.686312239510    -1.916270204034     1.007825032230
         H           -4.594322078212     1.051771239510    -0.308728204034     1.007825032230
         H           -3.160750078212     1.908244239510    -0.902989204034     1.007825032230
         H            1.912732921788    -2.191716760490    -0.723988204034     1.007825032230
         H            4.156102921788    -1.083813760490    -0.746149204034     1.007825032230
         H            2.206579921788     2.513136239510     0.603411795966     1.007825032230
         H            4.305840921788     1.333178239510    -0.063197204034     1.007825032230

  Basis Set: AUG-CC-PVTZ
    Blend: AUG-CC-PVTZ
  Basis Set: (AUG-CC-PVTZ AUX)
    Blend: AUG-CC-PVTZ-JKFIT
	 Reference Energy          =    -479.8900233545096512 [Eh]
	 Singles Energy            =      -0.0000000000000000 [Eh]
	 Same-Spin Energy          =      -0.5329853342169972 [Eh]
	 Opposite-Spin Energy      =      -1.7461611039762750 [Eh]
	 Correlation Energy        =      -2.2791464381932722 [Eh]
	 Total Energy              =    -482.1691697927029168 [Eh]

	 ================> DF-SCS-MP2 Energies <==================
	-----------------------------------------------------------
	 SCS Same-Spin Scale       =       0.3333333333333333 [-]
	 SCS Opposite-Spin Scale   =       1.2000000000000000 [-]
	 SCS Same-Spin Energy      =      -0.1776617780723324 [Eh]
	 SCS Opposite-Spin Energy  =      -2.0953933247715297 [Eh]
	 SCS Correlation Energy    =      -2.2730551028438621 [Eh]
	 SCS Total Energy          =    -482.1630784573534925 [Eh]
	-----------------------------------------------------------

  Dipole Moment: [D]
     X:     1.3128      Y:    -1.0153      Z:    -0.5288     Total:     1.7418

*** Psi4 exiting successfully. Buy a developer a beer!
