                               Psi4 1.3.2 release

  ==> Input File <==

--------------------------------------------------------------------------
#psi4
#
memory 32 gb

molecule  {
0 1
  N        1.0430420     0.8835120     0.3262100
  C       -2.6935940    -0.1236090    -0.2650160
  C       -0.4170680    -1.0145740    -0.0079460
  C       -1.3683020    -0.3105490    -1.0112920
  C       -2.2166740     0.1783740     1.1559530
  C       -1.0996000    -0.8433070     1.3811970
  C       -3.6002280     0.9375310    -0.8724950
  C        0.9620280    -0.4146880    -0.0398380
  C        2.0964645    -1.1634297    -0.3761235
  C        3.3396130    -0.5322390    -0.4347340
  C        2.2533150     1.4653640     0.3147880
  C        3.4262710     0.8062240    -0.0568370
  H       -3.2284890    -1.0854330    -0.2500270
  H       -0.3333030    -2.0805640    -0.2540920
  H       -0.9618110     0.6780590    -1.2570810
  H       -1.4754410    -0.8694270    -1.9482280
  H       -3.0167220     0.1138590     1.9027270
  H       -1.8007770     1.1928100     1.1867420
  H       -0.3855780    -0.5294870     2.1482020
  H       -1.5277920    -1.8013410     1.6997400
  H       -3.8772320     0.6843320    -1.9011880
  H       -4.5228040     1.0497910    -0.2936460
  H       -3.0892320     1.9062640    -0.8879070
  H        1.9842510    -2.1936970    -0.7089060
  H        4.2276210    -1.0857940    -0.7310670
  H        2.2780980     2.5111560     0.6184940
  H        4.3773590     1.3311980    -0.0481150
units angstrom
no_reorient  #important for SAPT in psi4, default
symmetry c1  #important for SAPT in psi4, default
}

set PROPERTIES_ORIGIN ["COM"]
properties('MP2/aug-cc-pvtz', properties = ['dipole'])
--------------------------------------------------------------------------

    Molecular point group: c1
  Charge       = 0
  Multiplicity = 1
  Basis Set: AUG-CC-PVTZ
    Blend: AUG-CC-PVTZ
  Basis Set: (AUG-CC-PVTZ AUX)
    Blend: AUG-CC-PVTZ-JKFIT

    Orbital Energies [Eh]
    ---------------------

    Doubly Occupied:

       1A    -15.557993     2A    -11.275559     3A    -11.274492
       4A    -11.258156     5A    -11.235861     6A    -11.235307
       7A    -11.226152     8A    -11.214611     9A    -11.211476
      10A    -11.209669    11A    -11.205243    12A    -11.203740
      13A     -1.251875    14A     -1.127563    15A     -1.081736
      16A     -1.046442    17A     -0.991166    18A     -0.954839
      19A     -0.893787    20A     -0.855127    21A     -0.836620
      22A     -0.764480    23A     -0.755585    24A     -0.696668
      25A     -0.667889    26A     -0.640580    27A     -0.640234
      28A     -0.607449    29A     -0.584986    30A     -0.577899
      31A     -0.573980    32A     -0.551960    33A     -0.537012
      34A     -0.527695    35A     -0.511768    36A     -0.473108
      37A     -0.469172    38A     -0.461012    39A     -0.452750
      40A     -0.446901    41A     -0.439570    42A     -0.409996
      43A     -0.376925    44A     -0.332091

  @DF-RHF Final Energy:  -479.89588526526046

   => Energetics <=

    Nuclear Repulsion Energy =            685.8170655068180395
    One-Electron Energy =               -2010.1316532001160340
    Two-Electron Energy =                 844.4187024280375908
    Total Energy =                       -479.8958852652605174
  Basis Set: (AUG-CC-PVTZ AUX)
    Blend: AUG-CC-PVTZ-RI
    Molecular point group: c1

    Geometry (in Angstrom), charge = 0, multiplicity = 1:

       Center              X                  Y                   Z               Mass
    ------------   -----------------  -----------------  -----------------  -----------------
         N            0.972586513164     0.883428940897     0.318204804525    14.003074004430
         C           -2.764049486836    -0.123692059103    -0.273021195475    12.000000000000
         C           -0.487523486836    -1.014657059103    -0.015951195475    12.000000000000
         C           -1.438757486836    -0.310632059103    -1.019297195475    12.000000000000
         C           -2.287129486836     0.178290940897     1.147947804525    12.000000000000
         C           -1.170055486836    -0.843390059103     1.373191804525    12.000000000000
         C           -3.670683486836     0.937447940897    -0.880500195475    12.000000000000
         C            0.891572513164    -0.414771059103    -0.047843195475    12.000000000000
         C            2.026009013164    -1.163512759103    -0.384128695475    12.000000000000
         C            3.269157513164    -0.532322059103    -0.442739195475    12.000000000000
         C            2.182859513164     1.465280940897     0.306782804525    12.000000000000
         C            3.355815513164     0.806140940897    -0.064842195475    12.000000000000
         H           -3.298944486836    -1.085516059103    -0.258032195475     1.007825032230
         H           -0.403758486836    -2.080647059103    -0.262097195475     1.007825032230
         H           -1.032266486836     0.677975940897    -1.265086195475     1.007825032230
         H           -1.545896486836    -0.869510059103    -1.956233195475     1.007825032230
         H           -3.087177486836     0.113775940897     1.894721804525     1.007825032230
         H           -1.871232486836     1.192726940897     1.178736804525     1.007825032230
         H           -0.456033486836    -0.529570059103     2.140196804525     1.007825032230
         H           -1.598247486836    -1.801424059103     1.691734804525     1.007825032230
         H           -3.947687486836     0.684248940897    -1.909193195475     1.007825032230
         H           -4.593259486836     1.049707940897    -0.301651195475     1.007825032230
         H           -3.159687486836     1.906180940897    -0.895912195475     1.007825032230
         H            1.913795513164    -2.193780059103    -0.716911195475     1.007825032230
         H            4.157165513164    -1.085877059103    -0.739072195475     1.007825032230
         H            2.207642513164     2.511072940897     0.610488804525     1.007825032230
         H            4.306903513164     1.331114940897    -0.056120195475     1.007825032230

  Basis Set: AUG-CC-PVTZ
    Blend: AUG-CC-PVTZ
  Basis Set: (AUG-CC-PVTZ AUX)
    Blend: AUG-CC-PVTZ-JKFIT
	 Reference Energy          =    -479.8958852652604605 [Eh]
	 Singles Energy            =      -0.0000000000000000 [Eh]
	 Same-Spin Energy          =      -0.5328072547837472 [Eh]
	 Opposite-Spin Energy      =      -1.7455882958489792 [Eh]
	 Correlation Energy        =      -2.2783955506327267 [Eh]
	 Total Energy              =    -482.1742808158932121 [Eh]

	 ================> DF-SCS-MP2 Energies <==================
	-----------------------------------------------------------
	 SCS Same-Spin Scale       =       0.3333333333333333 [-]
	 SCS Opposite-Spin Scale   =       1.2000000000000000 [-]
	 SCS Same-Spin Energy      =      -0.1776024182612491 [Eh]
	 SCS Opposite-Spin Energy  =      -2.0947059550187750 [Eh]
	 SCS Correlation Energy    =      -2.2723083732800240 [Eh]
	 SCS Total Energy          =    -482.1681936385404583 [Eh]
	-----------------------------------------------------------

  Dipole Moment: [D]
     X:     1.3278      Y:    -1.0612      Z:    -0.5087     Total:     1.7742

*** Psi4 exiting successfully. Buy a developer a beer!
