                               Psi4 1.3.2 release

  ==> Input File <==

--------------------------------------------------------------------------
#psi4
#
memory 32 gb

molecule  {
0 1
  N        1.0430420     0.8835120     0.3262100
  C       -2.6935940    -0.1236090    -0.2650160
  C       -0.4170680    -1.0145740    -0.0079460
  C       -1.3683020    -0.3105490    -1.0112920
  C       -2.2166740     0.1783740     1.1559530
  C       -1.0996000    -0.8433070     1.3811970
  C       -3.6002280     0.9375310    -0.8724950
  C        0.9620280    -0.4146880    -0.0398380
  C        2.1178652    -1.2049847    -0.2335922
  C        3.3396130    -0.5322390    -0.4347340
  C        2.2533150     1.4653640     0.3147880
  C        3.4262710     0.8062240    -0.0568370
  H       -3.2284890    -1.0854330    -0.2500270
  H       -0.3333030    -2.0805640    -0.2540920
  H       -0.9618110     0.6780590    -1.2570810
  H       -1.4754410    -0.8694270    -1.9482280
  H       -3.0167220     0.1138590     1.9027270
  H       -1.8007770     1.1928100     1.1867420
  H       -0.3855780    -0.5294870     2.1482020
  H       -1.5277920    -1.8013410     1.6997400
  H       -3.8772320     0.6843320    -1.9011880
  H       -4.5228040     1.0497910    -0.2936460
  H       -3.0892320     1.9062640    -0.8879070
  H        1.9842510    -2.1936970    -0.7089060
  H        4.2276210    -1.0857940    -0.7310670
  H        2.2780980     2.5111560     0.6184940
  H        4.3773590     1.3311980    -0.0481150
units angstrom
no_reorient  #important for SAPT in psi4, default
symmetry c1  #important for SAPT in psi4, default
}

set PROPERTIES_ORIGIN ["COM"]
properties('MP2/aug-cc-pvtz', properties = ['dipole'])
--------------------------------------------------------------------------

    Molecular point group: c1
  Charge       = 0
  Multiplicity = 1
  Basis Set: AUG-CC-PVTZ
    Blend: AUG-CC-PVTZ
  Basis Set: (AUG-CC-PVTZ AUX)
    Blend: AUG-CC-PVTZ-JKFIT

    Orbital Energies [Eh]
    ---------------------

    Doubly Occupied:

       1A    -15.557708     2A    -11.278959     3A    -11.276471
       4A    -11.261124     5A    -11.238206     6A    -11.235505
       7A    -11.226453     8A    -11.214853     9A    -11.212006
      10A    -11.209859    11A    -11.205403    12A    -11.204029
      13A     -1.251930    14A     -1.127877    15A     -1.080114
      16A     -1.045796    17A     -0.990842    18A     -0.955048
      19A     -0.893775    20A     -0.854124    21A     -0.835464
      22A     -0.764614    23A     -0.755700    24A     -0.695378
      25A     -0.665649    26A     -0.640293    27A     -0.638238
      28A     -0.604614    29A     -0.585169    30A     -0.578657
      31A     -0.573071    32A     -0.552499    33A     -0.533252
      34A     -0.528179    35A     -0.511248    36A     -0.473114
      37A     -0.469713    38A     -0.461031    39A     -0.453117
      40A     -0.446651    41A     -0.439782    42A     -0.409694
      43A     -0.376093    44A     -0.331682

  @DF-RHF Final Energy:  -479.88484070306367

   => Energetics <=

    Nuclear Repulsion Energy =            685.3345465899656119
    One-Electron Energy =               -2009.1528060907951385
    Two-Electron Energy =                 843.9334187977658530
    Total Energy =                       -479.8848407030636736
  Basis Set: (AUG-CC-PVTZ AUX)
    Blend: AUG-CC-PVTZ-RI
    Molecular point group: c1

    Geometry (in Angstrom), charge = 0, multiplicity = 1:

       Center              X                  Y                   Z               Mass
    ------------   -----------------  -----------------  -----------------  -----------------
         N            0.970992622377     0.886523892541     0.307589295411    14.003074004430
         C           -2.765643377623    -0.120597107459    -0.283636704589    12.000000000000
         C           -0.489117377623    -1.011562107459    -0.026566704589    12.000000000000
         C           -1.440351377623    -0.307537107459    -1.029912704589    12.000000000000
         C           -2.288723377623     0.181385892541     1.137332295411    12.000000000000
         C           -1.171649377623    -0.840295107459     1.362576295411    12.000000000000
         C           -3.672277377623     0.940542892541    -0.891115704589    12.000000000000
         C            0.889978622377    -0.411676107459    -0.058458704589    12.000000000000
         C            2.045815822377    -1.201972807459    -0.252212904589    12.000000000000
         C            3.267563622377    -0.529227107459    -0.453354704589    12.000000000000
         C            2.181265622377     1.468375892541     0.296167295411    12.000000000000
         C            3.354221622377     0.809235892541    -0.075457704589    12.000000000000
         H           -3.300538377623    -1.082421107459    -0.268647704589     1.007825032230
         H           -0.405352377623    -2.077552107459    -0.272712704589     1.007825032230
         H           -1.033860377623     0.681070892541    -1.275701704589     1.007825032230
         H           -1.547490377623    -0.866415107459    -1.966848704589     1.007825032230
         H           -3.088771377623     0.116870892541     1.884106295411     1.007825032230
         H           -1.872826377623     1.195821892541     1.168121295411     1.007825032230
         H           -0.457627377623    -0.526475107459     2.129581295411     1.007825032230
         H           -1.599841377623    -1.798329107459     1.681119295411     1.007825032230
         H           -3.949281377623     0.687343892541    -1.919808704589     1.007825032230
         H           -4.594853377623     1.052802892541    -0.312266704589     1.007825032230
         H           -3.161281377623     1.909275892541    -0.906527704589     1.007825032230
         H            1.912201622377    -2.190685107459    -0.727526704589     1.007825032230
         H            4.155571622377    -1.082782107459    -0.749687704589     1.007825032230
         H            2.206048622377     2.514167892541     0.599873295411     1.007825032230
         H            4.305309622377     1.334209892541    -0.066735704589     1.007825032230

  Basis Set: AUG-CC-PVTZ
    Blend: AUG-CC-PVTZ
  Basis Set: (AUG-CC-PVTZ AUX)
    Blend: AUG-CC-PVTZ-JKFIT
	 Reference Energy          =    -479.8848407030636736 [Eh]
	 Singles Energy            =      -0.0000000000000000 [Eh]
	 Same-Spin Energy          =      -0.5331436559209715 [Eh]
	 Opposite-Spin Energy      =      -1.7467596497181022 [Eh]
	 Correlation Energy        =      -2.2799033056390736 [Eh]
	 Total Energy              =    -482.1647440087027690 [Eh]

	 ================> DF-SCS-MP2 Energies <==================
	-----------------------------------------------------------
	 SCS Same-Spin Scale       =       0.3333333333333333 [-]
	 SCS Opposite-Spin Scale   =       1.2000000000000000 [-]
	 SCS Same-Spin Energy      =      -0.1777145519736572 [Eh]
	 SCS Opposite-Spin Energy  =      -2.0961115796617227 [Eh]
	 SCS Correlation Energy    =      -2.2738261316353796 [Eh]
	 SCS Total Energy          =    -482.1586668346990336 [Eh]
	-----------------------------------------------------------

  Dipole Moment: [D]
     X:     1.3007      Y:    -0.9789      Z:    -0.5358     Total:     1.7138

*** Psi4 exiting successfully. Buy a developer a beer!
