                               Psi4 1.3.2 release

  ==> Input File <==

--------------------------------------------------------------------------
#psi4
#
memory 32 gb

molecule  {
0 1
  N        1.0430420     0.8835120     0.3262100
  C       -2.6935940    -0.1236090    -0.2650160
  C       -0.4170680    -1.0145740    -0.0079460
  C       -1.3683020    -0.3105490    -1.0112920
  C       -2.2166740     0.1783740     1.1559530
  C       -1.0996000    -0.8433070     1.3811970
  C       -3.6002280     0.9375310    -0.8724950
  C        0.9620280    -0.4146880    -0.0398380
  C        2.1035981    -1.1772813    -0.3286131
  C        3.3396130    -0.5322390    -0.4347340
  C        2.2533150     1.4653640     0.3147880
  C        3.4262710     0.8062240    -0.0568370
  H       -3.2284890    -1.0854330    -0.2500270
  H       -0.3333030    -2.0805640    -0.2540920
  H       -0.9618110     0.6780590    -1.2570810
  H       -1.4754410    -0.8694270    -1.9482280
  H       -3.0167220     0.1138590     1.9027270
  H       -1.8007770     1.1928100     1.1867420
  H       -0.3855780    -0.5294870     2.1482020
  H       -1.5277920    -1.8013410     1.6997400
  H       -3.8772320     0.6843320    -1.9011880
  H       -4.5228040     1.0497910    -0.2936460
  H       -3.0892320     1.9062640    -0.8879070
  H        1.9842510    -2.1936970    -0.7089060
  H        4.2276210    -1.0857940    -0.7310670
  H        2.2780980     2.5111560     0.6184940
  H        4.3773590     1.3311980    -0.0481150
units angstrom
no_reorient  #important for SAPT in psi4, default
symmetry c1  #important for SAPT in psi4, default
}

set PROPERTIES_ORIGIN ["COM"]
properties('MP2/aug-cc-pvtz', properties = ['dipole'])
--------------------------------------------------------------------------

    Molecular point group: c1
  Charge       = 0
  Multiplicity = 1
  Basis Set: AUG-CC-PVTZ
    Blend: AUG-CC-PVTZ
  Basis Set: (AUG-CC-PVTZ AUX)
    Blend: AUG-CC-PVTZ-JKFIT

    Orbital Energies [Eh]
    ---------------------

    Doubly Occupied:

       1A    -15.557931     2A    -11.276248     3A    -11.274886
       4A    -11.258764     5A    -11.235902     6A    -11.235780
       7A    -11.226209     8A    -11.214657     9A    -11.211607
      10A    -11.209681    11A    -11.205269    12A    -11.203804
      13A     -1.251881    14A     -1.127624    15A     -1.081396
      16A     -1.046319    17A     -0.991088    18A     -0.954900
      19A     -0.893788    20A     -0.854914    21A     -0.836365
      22A     -0.764538    23A     -0.755590    24A     -0.696362
      25A     -0.667391    26A     -0.640400    27A     -0.640043
      28A     -0.606725    29A     -0.585022    30A     -0.578224
      31A     -0.573783    32A     -0.552142    33A     -0.535801
      34A     -0.528137    35A     -0.511660    36A     -0.473078
      37A     -0.469368    38A     -0.461003    39A     -0.452832
      40A     -0.446798    41A     -0.439616    42A     -0.409943
      43A     -0.376746    44A     -0.332002

  @DF-RHF Final Energy:  -479.89369548317086

   => Energetics <=

    Nuclear Repulsion Energy =            685.7125686292795308
    One-Electron Energy =               -2009.9200989238299826
    Two-Electron Energy =                 844.3138348113795928
    Total Energy =                       -479.8936954831708590
  Basis Set: (AUG-CC-PVTZ AUX)
    Blend: AUG-CC-PVTZ-RI
    Molecular point group: c1

    Geometry (in Angstrom), charge = 0, multiplicity = 1:

       Center              X                  Y                   Z               Mass
    ------------   -----------------  -----------------  -----------------  -----------------
         N            0.972055213752     0.884460586480     0.314666303969    14.003074004430
         C           -2.764580786248    -0.122660413520    -0.276559696031    12.000000000000
         C           -0.488054786248    -1.013625413520    -0.019489696031    12.000000000000
         C           -1.439288786248    -0.309600413520    -1.022835696031    12.000000000000
         C           -2.287660786248     0.179322586480     1.144409303969    12.000000000000
         C           -1.170586786248    -0.842358413520     1.369653303969    12.000000000000
         C           -3.671214786248     0.938479586480    -0.884038696031    12.000000000000
         C            0.891041213752    -0.413739413520    -0.051381696031    12.000000000000
         C            2.032611313752    -1.176332713520    -0.340156796031    12.000000000000
         C            3.268626213752    -0.531290413520    -0.446277696031    12.000000000000
         C            2.182328213752     1.466312586480     0.303244303969    12.000000000000
         C            3.355284213752     0.807172586480    -0.068380696031    12.000000000000
         H           -3.299475786248    -1.084484413520    -0.261570696031     1.007825032230
         H           -0.404289786248    -2.079615413520    -0.265635696031     1.007825032230
         H           -1.032797786248     0.679007586480    -1.268624696031     1.007825032230
         H           -1.546427786248    -0.868478413520    -1.959771696031     1.007825032230
         H           -3.087708786248     0.114807586480     1.891183303969     1.007825032230
         H           -1.871763786248     1.193758586480     1.175198303969     1.007825032230
         H           -0.456564786248    -0.528538413520     2.136658303969     1.007825032230
         H           -1.598778786248    -1.800392413520     1.688196303969     1.007825032230
         H           -3.948218786248     0.685280586480    -1.912731696031     1.007825032230
         H           -4.593790786248     1.050739586480    -0.305189696031     1.007825032230
         H           -3.160218786248     1.907212586480    -0.899450696031     1.007825032230
         H            1.913264213752    -2.192748413520    -0.720449696031     1.007825032230
         H            4.156634213752    -1.084845413520    -0.742610696031     1.007825032230
         H            2.207111213752     2.512104586480     0.606950303969     1.007825032230
         H            4.306372213752     1.332146586480    -0.059658696031     1.007825032230

  Basis Set: AUG-CC-PVTZ
    Blend: AUG-CC-PVTZ
  Basis Set: (AUG-CC-PVTZ AUX)
    Blend: AUG-CC-PVTZ-JKFIT
	 Reference Energy          =    -479.8936954831708590 [Eh]
	 Singles Energy            =      -0.0000000000000000 [Eh]
	 Same-Spin Energy          =      -0.5328722250826596 [Eh]
	 Opposite-Spin Energy      =      -1.7457725153813954 [Eh]
	 Correlation Energy        =      -2.2786447404640553 [Eh]
	 Total Energy              =    -482.1723402236349330 [Eh]

	 ================> DF-SCS-MP2 Energies <==================
	-----------------------------------------------------------
	 SCS Same-Spin Scale       =       0.3333333333333333 [-]
	 SCS Opposite-Spin Scale   =       1.2000000000000000 [-]
	 SCS Same-Spin Energy      =      -0.1776240750275532 [Eh]
	 SCS Opposite-Spin Energy  =      -2.0949270184576743 [Eh]
	 SCS Correlation Energy    =      -2.2725510934852275 [Eh]
	 SCS Total Energy          =    -482.1662465766560786 [Eh]
	-----------------------------------------------------------

  Dipole Moment: [D]
     X:     1.3218      Y:    -1.0428      Z:    -0.5198     Total:     1.7620

*** Psi4 exiting successfully. Buy a developer a beer!
