                               Psi4 1.4a3.dev225

  ==> Input File <==

--------------------------------------------------------------------------
#psi4
#
memory 32 gb

molecule  {
0 1
  O       -3.2622200    -0.3059070     0.0064780
  C        1.5611130    -0.3149950    -0.0153890
  C        0.3099490    -0.9407980    -0.0100380
  C       -0.8691990    -0.1880560    -0.0012000
  C        1.5993970     1.0858760    -0.0071180
  C       -0.8168460     1.2117110     0.0065060
  C        0.4232600     1.8430520     0.0014160
  C        2.8326670    -1.1225680     0.0134080
  C       -2.1766900    -0.8792890    -0.0024000
  H        0.2498950    -2.0299870    -0.0199420
  H        2.5636680     1.5920400    -0.0152260
  H       -1.7472230     1.7736450     0.0105140
  H        2.6826800    -2.1080670    -0.4359240
  H        3.6322070    -0.6166190    -0.5349020
  H        3.1628086    -1.2668111     0.9946100
  H        0.4815700     2.9289630     0.0030200
  H       -2.1255450    -1.9886100    -0.0120270
units angstrom
no_reorient  #important for SAPT in psi4, default
symmetry c1  #important for SAPT in psi4, default
}

set PROPERTIES_ORIGIN ["COM"]
properties('MP2/aug-cc-pvtz', properties = ['dipole'])
--------------------------------------------------------------------------

    Molecular point group: c1
  Charge       = 0
  Multiplicity = 1
  Basis Set: AUG-CC-PVTZ
    Blend: AUG-CC-PVTZ
  Basis Set: (AUG-CC-PVTZ AUX)
    Blend: AUG-CC-PVTZ-JKFIT

    Orbital Energies [Eh]
    ---------------------

    Doubly Occupied:

       1A    -20.554038     2A    -11.336579     3A    -11.258915
       4A    -11.256689     5A    -11.253797     6A    -11.252590
       7A    -11.250338     8A    -11.249122     9A    -11.231798
      10A     -1.378708    11A     -1.172851    12A     -1.066732
      13A     -1.042934    14A     -0.952194    15A     -0.891800
      16A     -0.834865    17A     -0.772919    18A     -0.709282
      19A     -0.678852    20A     -0.650052    21A     -0.619038
      22A     -0.608939    23A     -0.599521    24A     -0.583263
      25A     -0.552472    26A     -0.545073    27A     -0.519966
      28A     -0.502679    29A     -0.489832    30A     -0.428328
      31A     -0.353438    32A     -0.339872

  @DF-RHF Final Energy:  -382.59670775372206

   => Energetics <=

    Nuclear Repulsion Energy =            396.4493134447909028
    One-Electron Energy =               -1304.2170937810228679
    Two-Electron Energy =                 525.1710725825098507
    Total Energy =                       -382.5967077537220575
  Basis Set: (AUG-CC-PVTZ AUX)
    Blend: AUG-CC-PVTZ-RI
    Molecular point group: c1

    Geometry (in Angstrom), charge = 0, multiplicity = 1:

       Center              X                  Y                   Z               Mass
    ------------   -----------------  -----------------  -----------------  -----------------
         O           -3.188543524869    -0.320211561728     0.007178657772    15.994914619570
         C            1.634789475131    -0.329299561728    -0.014688342228    12.000000000000
         C            0.383625475131    -0.955102561728    -0.009337342228    12.000000000000
         C           -0.795522524869    -0.202360561728    -0.000499342228    12.000000000000
         C            1.673073475131     1.071571438272    -0.006417342228    12.000000000000
         C           -0.743169524869     1.197406438272     0.007206657772    12.000000000000
         C            0.496936475131     1.828747438272     0.002116657772    12.000000000000
         C            2.906343475131    -1.136872561728     0.014108657772    12.000000000000
         C           -2.103013524869    -0.893593561728    -0.001699342228    12.000000000000
         H            0.323571475131    -2.044291561728    -0.019241342228     1.007825032230
         H            2.637344475131     1.577735438272    -0.014525342228     1.007825032230
         H           -1.673546524869     1.759340438272     0.011214657772     1.007825032230
         H            2.756356475131    -2.122371561728    -0.435223342228     1.007825032230
         H            3.705883475131    -0.630923561728    -0.534201342228     1.007825032230
         H            3.236485075131    -1.281115661728     0.995310657772     1.007825032230
         H            0.555246475131     2.914658438272     0.003720657772     1.007825032230
         H           -2.051868524869    -2.002914561728    -0.011326342228     1.007825032230

  Basis Set: AUG-CC-PVTZ
    Blend: AUG-CC-PVTZ
  Basis Set: (AUG-CC-PVTZ AUX)
    Blend: AUG-CC-PVTZ-JKFIT
	 Reference Energy          =    -382.5967077537220575 [Eh]
	 Singles Energy            =      -0.0000000000000000 [Eh]
	 Same-Spin Energy          =      -0.4081418910878473 [Eh]
	 Opposite-Spin Energy      =      -1.2861410271810758 [Eh]
	 Correlation Energy        =      -1.6942829182689232 [Eh]
	 Total Energy              =    -384.2909906719909827 [Eh]

	 ================> DF-SCS-MP2 Energies <==================
	-----------------------------------------------------------
	 SCS Same-Spin Scale       =       0.3333333333333333 [-]
	 SCS Opposite-Spin Scale   =       1.2000000000000000 [-]
	 SCS Same-Spin Energy      =      -0.1360472970292824 [Eh]
	 SCS Opposite-Spin Energy  =      -1.5433692326172910 [Eh]
	 SCS Correlation Energy    =      -1.6794165296465735 [Eh]
	 SCS Total Energy          =    -384.2761242833686310 [Eh]
	-----------------------------------------------------------

  Dipole Moment: [D]
     X:     3.6996      Y:    -0.5010      Z:     0.0362     Total:     3.7335

*** Psi4 exiting successfully. Buy a developer a beer!
