                               Psi4 1.4a3.dev225

  ==> Input File <==

--------------------------------------------------------------------------
#psi4
#
memory 32 gb

molecule  {
0 1
  O       -3.2622200    -0.3059070     0.0064780
  C        1.5611130    -0.3149950    -0.0153890
  C        0.3099490    -0.9407980    -0.0100380
  C       -0.8691990    -0.1880560    -0.0012000
  C        1.5993970     1.0858760    -0.0071180
  C       -0.8168460     1.2117110     0.0065060
  C        0.4232600     1.8430520     0.0014160
  C        2.8326670    -1.1225680     0.0134080
  C       -2.1943741    -0.8699482    -0.0022554
  H        0.2498950    -2.0299870    -0.0199420
  H        2.5636680     1.5920400    -0.0152260
  H       -1.7472230     1.7736450     0.0105140
  H        2.6826800    -2.1080670    -0.4359240
  H        3.6322070    -0.6166190    -0.5349020
  H        3.1786010    -1.2737110     1.0415460
  H        0.4815700     2.9289630     0.0030200
  H       -2.1255450    -1.9886100    -0.0120270
units angstrom
no_reorient  #important for SAPT in psi4, default
symmetry c1  #important for SAPT in psi4, default
}

set PROPERTIES_ORIGIN ["COM"]
properties('MP2/aug-cc-pvtz', properties = ['dipole'])
--------------------------------------------------------------------------

    Molecular point group: c1
  Charge       = 0
  Multiplicity = 1
  Basis Set: AUG-CC-PVTZ
    Blend: AUG-CC-PVTZ
  Basis Set: (AUG-CC-PVTZ AUX)
    Blend: AUG-CC-PVTZ-JKFIT

    Orbital Energies [Eh]
    ---------------------

    Doubly Occupied:

       1A    -20.556027     2A    -11.336203     3A    -11.258650
       4A    -11.255981     5A    -11.252891     6A    -11.252266
       7A    -11.249582     8A    -11.248361     9A    -11.237348
      10A     -1.393176    11A     -1.171854    12A     -1.064645
      13A     -1.041223    14A     -0.947949    15A     -0.888749
      16A     -0.833389    17A     -0.771058    18A     -0.708730
      19A     -0.679279    20A     -0.650430    21A     -0.624396
      22A     -0.608828    23A     -0.590269    24A     -0.582852
      25A     -0.552319    26A     -0.549753    27A     -0.520303
      28A     -0.502176    29A     -0.491827    30A     -0.425984
      31A     -0.353035    32A     -0.339104

  @DF-RHF Final Energy:  -382.59930471276510

   => Energetics <=

    Nuclear Repulsion Energy =            396.3172918706869154
    One-Electron Energy =               -1303.9559186460649016
    Two-Electron Energy =                 525.0393220626129960
    Total Energy =                       -382.5993047127650470
  Basis Set: (AUG-CC-PVTZ AUX)
    Blend: AUG-CC-PVTZ-RI
    Molecular point group: c1

    Geometry (in Angstrom), charge = 0, multiplicity = 1:

       Center              X                  Y                   Z               Mass
    ------------   -----------------  -----------------  -----------------  -----------------
         O           -3.186908531639    -0.321087272908     0.006770199578    15.994914619570
         C            1.636424468361    -0.330175272908    -0.015096800422    12.000000000000
         C            0.385260468361    -0.955978272908    -0.009745800422    12.000000000000
         C           -0.793887531639    -0.203236272908    -0.000907800422    12.000000000000
         C            1.674708468361     1.070695727092    -0.006825800422    12.000000000000
         C           -0.741534531639     1.196530727092     0.006798199578    12.000000000000
         C            0.498571468361     1.827871727092     0.001708199578    12.000000000000
         C            2.907978468361    -1.137748272908     0.013700199578    12.000000000000
         C           -2.119062631639    -0.885128472908    -0.001963200422    12.000000000000
         H            0.325206468361    -2.045167272908    -0.019649800422     1.007825032230
         H            2.638979468361     1.576859727092    -0.014933800422     1.007825032230
         H           -1.671911531639     1.758464727092     0.010806199578     1.007825032230
         H            2.757991468361    -2.123247272908    -0.435631800422     1.007825032230
         H            3.707518468361    -0.631799272908    -0.534609800422     1.007825032230
         H            3.253912468361    -1.288891272908     1.041838199578     1.007825032230
         H            0.556881468361     2.913782727092     0.003312199578     1.007825032230
         H           -2.050233531639    -2.003790272908    -0.011734800422     1.007825032230

  Basis Set: AUG-CC-PVTZ
    Blend: AUG-CC-PVTZ
  Basis Set: (AUG-CC-PVTZ AUX)
    Blend: AUG-CC-PVTZ-JKFIT
	 Reference Energy          =    -382.5993047127651039 [Eh]
	 Singles Energy            =      -0.0000000000000000 [Eh]
	 Same-Spin Energy          =      -0.4075848163114268 [Eh]
	 Opposite-Spin Energy      =      -1.2851501267194110 [Eh]
	 Correlation Energy        =      -1.6927349430308378 [Eh]
	 Total Energy              =    -384.2920396557959180 [Eh]

	 ================> DF-SCS-MP2 Energies <==================
	-----------------------------------------------------------
	 SCS Same-Spin Scale       =       0.3333333333333333 [-]
	 SCS Opposite-Spin Scale   =       1.2000000000000000 [-]
	 SCS Same-Spin Energy      =      -0.1358616054371423 [Eh]
	 SCS Opposite-Spin Energy  =      -1.5421801520632932 [Eh]
	 SCS Correlation Energy    =      -1.6780417575004354 [Eh]
	 SCS Total Energy          =    -384.2773464702655133 [Eh]
	-----------------------------------------------------------

  Dipole Moment: [D]
     X:     3.5653      Y:    -0.4732      Z:     0.0234     Total:     3.5966

*** Psi4 exiting successfully. Buy a developer a beer!
