                               Psi4 1.3.2 release

  ==> Input File <==

--------------------------------------------------------------------------
#psi4
#
memory 32 gb

molecule  {
0 1
  O       -3.3162269    -0.4225316     0.0059283
  C        1.5611120    -0.3149990    -0.0153800
  C        0.3099430    -0.9407630    -0.0100630
  C       -0.8692280    -0.1880260    -0.0014190
  C        1.5994260     1.0858870    -0.0069900
  C       -0.8168260     1.2117300     0.0064260
  C        0.4233030     1.8430470     0.0013400
  C        2.8326460    -1.1226230     0.0134670
  C       -2.1766910    -0.8792860    -0.0025100
  H        0.2498670    -2.0299540    -0.0200910
  H        2.5637200     1.5920050    -0.0150810
  H       -1.7471690     1.7737230     0.0102860
  H        2.6825510    -2.1081700    -0.4357140
  H        3.6321630    -0.6167660    -0.5349600
  H        3.1786260    -1.2736230     1.0416080
  H        0.4815460     2.9289630     0.0030700
  H       -2.1255320    -1.9885980    -0.0123860
units angstrom
no_reorient  #important for SAPT in psi4, default
symmetry c1  #important for SAPT in psi4, default
}

set PROPERTIES_ORIGIN ["COM"]
properties('MP2/aug-cc-pvtz', properties = ['dipole'])
--------------------------------------------------------------------------

    Molecular point group: c1
  Charge       = 0
  Multiplicity = 1
  Basis Set: AUG-CC-PVTZ
    Blend: AUG-CC-PVTZ
  Basis Set: (AUG-CC-PVTZ AUX)
    Blend: AUG-CC-PVTZ-JKFIT

    Orbital Energies [Eh]
    ---------------------

    Doubly Occupied:

       1A    -20.553377     2A    -11.335172     3A    -11.261371
       4A    -11.259549     5A    -11.256724     6A    -11.256434
       7A    -11.253482     8A    -11.251635     9A    -11.239211
      10A     -1.377069    11A     -1.175581    12A     -1.068472
      13A     -1.045213    14A     -0.950575    15A     -0.892536
      16A     -0.836030    17A     -0.772442    18A     -0.709878
      19A     -0.679227    20A     -0.652910    21A     -0.617551
      22A     -0.610721    23A     -0.592180    24A     -0.585643
      25A     -0.554613    26A     -0.543773    27A     -0.522171
      28A     -0.505127    29A     -0.490751    30A     -0.424477
      31A     -0.355984    32A     -0.342249

  @DF-RHF Final Energy:  -382.59550831312077

   => Energetics <=

    Nuclear Repulsion Energy =            395.2097847948313074
    One-Electron Energy =               -1301.6663228463414725
    Two-Electron Energy =                 523.8610297383893339
    Total Energy =                       -382.5955083131208312
  Basis Set: (AUG-CC-PVTZ AUX)
    Blend: AUG-CC-PVTZ-RI
    Molecular point group: c1

    Geometry (in Angstrom), charge = 0, multiplicity = 1:

       Center              X                  Y                   Z               Mass
    ------------   -----------------  -----------------  -----------------  -----------------
         O           -3.235490530175    -0.421243460243     0.006342317553    15.994914619570
         C            1.641848369825    -0.313710860243    -0.014965982447    12.000000000000
         C            0.390679369825    -0.939474860243    -0.009648982447    12.000000000000
         C           -0.788491630175    -0.186737860243    -0.001004982447    12.000000000000
         C            1.680162369825     1.087175139757    -0.006575982447    12.000000000000
         C           -0.736089630175     1.213018139757     0.006840017553    12.000000000000
         C            0.504039369825     1.844335139757     0.001754017553    12.000000000000
         C            2.913382369825    -1.121334860243     0.013881017553    12.000000000000
         C           -2.095954630175    -0.877997860243    -0.002095982447    12.000000000000
         H            0.330603369825    -2.028665860243    -0.019676982447     1.007825032230
         H            2.644456369825     1.593293139757    -0.014666982447     1.007825032230
         H           -1.666432630175     1.775011139757     0.010700017553     1.007825032230
         H            2.763287369825    -2.106881860243    -0.435299982447     1.007825032230
         H            3.712899369825    -0.615477860243    -0.534545982447     1.007825032230
         H            3.259362369825    -1.272334860243     1.042022017553     1.007825032230
         H            0.562282369825     2.930251139757     0.003484017553     1.007825032230
         H           -2.044795630175    -1.987309860243    -0.011971982447     1.007825032230

  Basis Set: AUG-CC-PVTZ
    Blend: AUG-CC-PVTZ
  Basis Set: (AUG-CC-PVTZ AUX)
    Blend: AUG-CC-PVTZ-JKFIT
	 Reference Energy          =    -382.5955083131207743 [Eh]
	 Singles Energy            =      -0.0000000000000000 [Eh]
	 Same-Spin Energy          =      -0.4080180699760828 [Eh]
	 Opposite-Spin Energy      =      -1.2864663626855752 [Eh]
	 Correlation Energy        =      -1.6944844326616582 [Eh]
	 Total Energy              =    -384.2899927457824560 [Eh]

	 ================> DF-SCS-MP2 Energies <==================
	-----------------------------------------------------------
	 SCS Same-Spin Scale       =       0.3333333333333333 [-]
	 SCS Opposite-Spin Scale   =       1.2000000000000000 [-]
	 SCS Same-Spin Energy      =      -0.1360060233253609 [Eh]
	 SCS Opposite-Spin Energy  =      -1.5437596352226903 [Eh]
	 SCS Correlation Energy    =      -1.6797656585480514 [Eh]
	 SCS Total Energy          =    -384.2752739716688097 [Eh]
	-----------------------------------------------------------

  Dipole Moment: [D]
     X:     3.9192      Y:    -0.2320      Z:     0.0237     Total:     3.9261

*** Psi4 exiting successfully. Buy a developer a beer!
