                               Psi4 1.3.2 release

  ==> Input File <==

--------------------------------------------------------------------------
#psi4
#
memory 32 gb

molecule  {
0 1
  O       -3.2622350    -0.3059220     0.0067540
  C        1.5611120    -0.3149990    -0.0153800
  C        0.3566371    -1.0264859    -0.0076735
  C       -0.8692280    -0.1880260    -0.0014190
  C        1.5994260     1.0858870    -0.0069900
  C       -0.8168260     1.2117300     0.0064260
  C        0.4233030     1.8430470     0.0013400
  C        2.8326460    -1.1226230     0.0134670
  C       -2.1766910    -0.8792860    -0.0025100
  H        0.2498670    -2.0299540    -0.0200910
  H        2.5637200     1.5920050    -0.0150810
  H       -1.7471690     1.7737230     0.0102860
  H        2.6825510    -2.1081700    -0.4357140
  H        3.6321630    -0.6167660    -0.5349600
  H        3.1786260    -1.2736230     1.0416080
  H        0.4815460     2.9289630     0.0030700
  H       -2.1255320    -1.9885980    -0.0123860
units angstrom
no_reorient  #important for SAPT in psi4, default
symmetry c1  #important for SAPT in psi4, default
}

set PROPERTIES_ORIGIN ["COM"]
properties('MP2/aug-cc-pvtz', properties = ['dipole'])
--------------------------------------------------------------------------

    Molecular point group: c1
  Charge       = 0
  Multiplicity = 1
  Basis Set: AUG-CC-PVTZ
    Blend: AUG-CC-PVTZ
  Basis Set: (AUG-CC-PVTZ AUX)
    Blend: AUG-CC-PVTZ-JKFIT

    Orbital Energies [Eh]
    ---------------------

    Doubly Occupied:

       1A    -20.552221     2A    -11.334983     3A    -11.261086
       4A    -11.260654     5A    -11.258217     6A    -11.255705
       7A    -11.252919     8A    -11.251461     9A    -11.235285
      10A     -1.377123    11A     -1.166387    12A     -1.065279
      13A     -1.039509    14A     -0.946689    15A     -0.893698
      16A     -0.840552    17A     -0.763979    18A     -0.713334
      19A     -0.682379    20A     -0.652179    21A     -0.621586
      22A     -0.610779    23A     -0.589436    24A     -0.585558
      25A     -0.552523    26A     -0.540793    27A     -0.525805
      28A     -0.495605    29A     -0.485979    30A     -0.426030
      31A     -0.346875    32A     -0.341942

  @DF-RHF Final Energy:  -382.58406141060863

   => Energetics <=

    Nuclear Repulsion Energy =            394.9048911142601241
    One-Electron Energy =               -1301.1248022907939230
    Two-Electron Energy =                 523.6358497659250588
    Total Energy =                       -382.5840614106086832
  Basis Set: (AUG-CC-PVTZ AUX)
    Blend: AUG-CC-PVTZ-RI
    Molecular point group: c1

    Geometry (in Angstrom), charge = 0, multiplicity = 1:

       Center              X                  Y                   Z               Mass
    ------------   -----------------  -----------------  -----------------  -----------------
         O           -3.193358987539    -0.311601235810     0.006819176408    15.994914619570
         C            1.629988012461    -0.320678235810    -0.015314823592    12.000000000000
         C            0.425513112461    -1.032165135810    -0.007608323592    12.000000000000
         C           -0.800351987539    -0.193705235810    -0.001353823592    12.000000000000
         C            1.668302012461     1.080207764190    -0.006924823592    12.000000000000
         C           -0.747949987539     1.206050764190     0.006491176408    12.000000000000
         C            0.492179012461     1.837367764190     0.001405176408    12.000000000000
         C            2.901522012461    -1.128302235810     0.013532176408    12.000000000000
         C           -2.107814987539    -0.884965235810    -0.002444823592    12.000000000000
         H            0.318743012461    -2.035633235810    -0.020025823592     1.007825032230
         H            2.632596012461     1.586325764190    -0.015015823592     1.007825032230
         H           -1.678292987539     1.768043764190     0.010351176408     1.007825032230
         H            2.751427012461    -2.113849235810    -0.435648823592     1.007825032230
         H            3.701039012461    -0.622445235810    -0.534894823592     1.007825032230
         H            3.247502012461    -1.279302235810     1.041673176408     1.007825032230
         H            0.550422012461     2.923283764190     0.003135176408     1.007825032230
         H           -2.056655987539    -1.994277235810    -0.012320823592     1.007825032230

  Basis Set: AUG-CC-PVTZ
    Blend: AUG-CC-PVTZ
  Basis Set: (AUG-CC-PVTZ AUX)
    Blend: AUG-CC-PVTZ-JKFIT
	 Reference Energy          =    -382.5840614106086264 [Eh]
	 Singles Energy            =      -0.0000000000000000 [Eh]
	 Same-Spin Energy          =      -0.4083436639477646 [Eh]
	 Opposite-Spin Energy      =      -1.2875002046817252 [Eh]
	 Correlation Energy        =      -1.6958438686294897 [Eh]
	 Total Energy              =    -384.2799052792381076 [Eh]

	 ================> DF-SCS-MP2 Energies <==================
	-----------------------------------------------------------
	 SCS Same-Spin Scale       =       0.3333333333333333 [-]
	 SCS Opposite-Spin Scale   =       1.2000000000000000 [-]
	 SCS Same-Spin Energy      =      -0.1361145546492548 [Eh]
	 SCS Opposite-Spin Energy  =      -1.5450002456180703 [Eh]
	 SCS Correlation Energy    =      -1.6811148002673251 [Eh]
	 SCS Total Energy          =    -384.2651762108759499 [Eh]
	-----------------------------------------------------------

  Dipole Moment: [D]
     X:     3.6887      Y:    -0.4531      Z:     0.0198     Total:     3.7164

*** Psi4 exiting successfully. Buy a developer a beer!
