                               Psi4 1.3.2 release

  ==> Input File <==

--------------------------------------------------------------------------
#psi4
#
memory 32 gb

molecule  {
0 1
  O       -3.2622350    -0.3059220     0.0067540
  C        1.5611120    -0.3149990    -0.0153800
  C        0.3099430    -0.9407630    -0.0100630
  C       -0.8814909    -0.1653140    -0.0011744
  C        1.5994260     1.0858870    -0.0069900
  C       -0.8168260     1.2117300     0.0064260
  C        0.4233030     1.8430470     0.0013400
  C        2.8326460    -1.1226230     0.0134670
  C       -2.1766910    -0.8792860    -0.0025100
  H        0.2498670    -2.0299540    -0.0200910
  H        2.5637200     1.5920050    -0.0150810
  H       -1.7471690     1.7737230     0.0102860
  H        2.6825510    -2.1081700    -0.4357140
  H        3.6321630    -0.6167660    -0.5349600
  H        3.1786260    -1.2736230     1.0416080
  H        0.4815460     2.9289630     0.0030700
  H       -2.1255320    -1.9885980    -0.0123860
units angstrom
no_reorient  #important for SAPT in psi4, default
symmetry c1  #important for SAPT in psi4, default
}

set PROPERTIES_ORIGIN ["COM"]
properties('MP2/aug-cc-pvtz', properties = ['dipole'])
--------------------------------------------------------------------------

    Molecular point group: c1
  Charge       = 0
  Multiplicity = 1
  Basis Set: AUG-CC-PVTZ
    Blend: AUG-CC-PVTZ
  Basis Set: (AUG-CC-PVTZ AUX)
    Blend: AUG-CC-PVTZ-JKFIT

    Orbital Energies [Eh]
    ---------------------

    Doubly Occupied:

       1A    -20.553599     2A    -11.336448     3A    -11.259260
       4A    -11.257859     5A    -11.253942     6A    -11.252453
       7A    -11.250191     8A    -11.247678     9A    -11.237713
      10A     -1.378782    11A     -1.172492    12A     -1.067545
      13A     -1.040336    14A     -0.948924    15A     -0.891182
      16A     -0.836585    17A     -0.770166    18A     -0.709572
      19A     -0.678098    20A     -0.651604    21A     -0.618032
      22A     -0.609067    23A     -0.590524    24A     -0.583622
      25A     -0.553489    26A     -0.544436    27A     -0.519864
      28A     -0.501787    29A     -0.489044    30A     -0.428766
      31A     -0.350510    32A     -0.342133

  @DF-RHF Final Energy:  -382.59687629852658

   => Energetics <=

    Nuclear Repulsion Energy =            396.2397411039282815
    One-Electron Energy =               -1303.8218250482314033
    Two-Electron Energy =                 524.9852076457765406
    Total Energy =                       -382.5968762985265812
  Basis Set: (AUG-CC-PVTZ AUX)
    Blend: AUG-CC-PVTZ-RI
    Molecular point group: c1

    Geometry (in Angstrom), charge = 0, multiplicity = 1:

       Center              X                  Y                   Z               Mass
    ------------   -----------------  -----------------  -----------------  -----------------
         O           -3.187466111939    -0.322439531116     0.007033563654    15.994914619570
         C            1.635880888061    -0.331516531116    -0.015100436346    12.000000000000
         C            0.384711888061    -0.957280531116    -0.009783436346    12.000000000000
         C           -0.806722011939    -0.181831531116    -0.000894836346    12.000000000000
         C            1.674194888061     1.069369468884    -0.006710436346    12.000000000000
         C           -0.742057111939     1.195212468884     0.006705563654    12.000000000000
         C            0.498071888061     1.826529468884     0.001619563654    12.000000000000
         C            2.907414888061    -1.139140531116     0.013746563654    12.000000000000
         C           -2.101922111939    -0.895803531116    -0.002230436346    12.000000000000
         H            0.324635888061    -2.046471531116    -0.019811436346     1.007825032230
         H            2.638488888061     1.575487468884    -0.014801436346     1.007825032230
         H           -1.672400111939     1.757205468884     0.010565563654     1.007825032230
         H            2.757319888061    -2.124687531116    -0.435434436346     1.007825032230
         H            3.706931888061    -0.633283531116    -0.534680436346     1.007825032230
         H            3.253394888061    -1.290140531116     1.041887563654     1.007825032230
         H            0.556314888061     2.912445468884     0.003349563654     1.007825032230
         H           -2.050763111939    -2.005115531116    -0.012106436346     1.007825032230

  Basis Set: AUG-CC-PVTZ
    Blend: AUG-CC-PVTZ
  Basis Set: (AUG-CC-PVTZ AUX)
    Blend: AUG-CC-PVTZ-JKFIT
	 Reference Energy          =    -382.5968762985265812 [Eh]
	 Singles Energy            =      -0.0000000000000000 [Eh]
	 Same-Spin Energy          =      -0.4081338519462793 [Eh]
	 Opposite-Spin Energy      =      -1.2864116297399493 [Eh]
	 Correlation Energy        =      -1.6945454816862284 [Eh]
	 Total Energy              =    -384.2914217802128292 [Eh]

	 ================> DF-SCS-MP2 Energies <==================
	-----------------------------------------------------------
	 SCS Same-Spin Scale       =       0.3333333333333333 [-]
	 SCS Opposite-Spin Scale   =       1.2000000000000000 [-]
	 SCS Same-Spin Energy      =      -0.1360446173154264 [Eh]
	 SCS Opposite-Spin Energy  =      -1.5436939556879390 [Eh]
	 SCS Correlation Energy    =      -1.6797385730033654 [Eh]
	 SCS Total Energy          =    -384.2766148715299437 [Eh]
	-----------------------------------------------------------

  Dipole Moment: [D]
     X:     3.6726      Y:    -0.5067      Z:     0.0222     Total:     3.7075

*** Psi4 exiting successfully. Buy a developer a beer!
