                               Psi4 1.3.2 release

  ==> Input File <==

--------------------------------------------------------------------------
#psi4
#
memory 32 gb

molecule  {
0 1
  O       -3.2622350    -0.3059220     0.0067540
  C        1.5611120    -0.3149990    -0.0153800
  C        0.2992137    -0.9188393    -0.0106649
  C       -0.8692280    -0.1880260    -0.0014190
  C        1.5994260     1.0858870    -0.0069900
  C       -0.8168260     1.2117300     0.0064260
  C        0.4233030     1.8430470     0.0013400
  C        2.8326460    -1.1226230     0.0134670
  C       -2.1766910    -0.8792860    -0.0025100
  H        0.2498670    -2.0299540    -0.0200910
  H        2.5637200     1.5920050    -0.0150810
  H       -1.7471690     1.7737230     0.0102860
  H        2.6825510    -2.1081700    -0.4357140
  H        3.6321630    -0.6167660    -0.5349600
  H        3.1786260    -1.2736230     1.0416080
  H        0.4815460     2.9289630     0.0030700
  H       -2.1255320    -1.9885980    -0.0123860
units angstrom
no_reorient  #important for SAPT in psi4, default
symmetry c1  #important for SAPT in psi4, default
}

set PROPERTIES_ORIGIN ["COM"]
properties('MP2/aug-cc-pvtz', properties = ['dipole'])
--------------------------------------------------------------------------

    Molecular point group: c1
  Charge       = 0
  Multiplicity = 1
  Basis Set: AUG-CC-PVTZ
    Blend: AUG-CC-PVTZ
  Basis Set: (AUG-CC-PVTZ AUX)
    Blend: AUG-CC-PVTZ-JKFIT

    Orbital Energies [Eh]
    ---------------------

    Doubly Occupied:

       1A    -20.554724     2A    -11.337185     3A    -11.258958
       4A    -11.256591     5A    -11.253622     6A    -11.250881
       7A    -11.249812     8A    -11.248685     9A    -11.238517
      10A     -1.379304    11A     -1.174967    12A     -1.066524
      13A     -1.043533    14A     -0.949062    15A     -0.891619
      16A     -0.833292    17A     -0.775033    18A     -0.708511
      19A     -0.678861    20A     -0.649250    21A     -0.620229
      22A     -0.606879    23A     -0.591160    24A     -0.582628
      25A     -0.553069    26A     -0.545512    27A     -0.519720
      28A     -0.501982    29A     -0.490139    30A     -0.428990
      31A     -0.355576    32A     -0.338934

  @DF-RHF Final Energy:  -382.59714236153479

   => Energetics <=

    Nuclear Repulsion Energy =            396.5759221541820239
    One-Electron Energy =               -1304.4786347598565044
    Two-Electron Energy =                 525.3055702441396306
    Total Energy =                       -382.5971423615347931
  Basis Set: (AUG-CC-PVTZ AUX)
    Blend: AUG-CC-PVTZ-RI
    Molecular point group: c1

    Geometry (in Angstrom), charge = 0, multiplicity = 1:

       Center              X                  Y                   Z               Mass
    ------------   -----------------  -----------------  -----------------  -----------------
         O           -3.187619398470    -0.322360738881     0.007118173102    15.994914619570
         C            1.635727601530    -0.331437738881    -0.015015826898    12.000000000000
         C            0.373829301530    -0.935278038881    -0.010300726898    12.000000000000
         C           -0.794612398470    -0.204464738881    -0.001054826898    12.000000000000
         C            1.674041601530     1.069448261119    -0.006625826898    12.000000000000
         C           -0.742210398470     1.195291261119     0.006790173102    12.000000000000
         C            0.497918601530     1.826608261119     0.001704173102    12.000000000000
         C            2.907261601530    -1.139061738881     0.013831173102    12.000000000000
         C           -2.102075398470    -0.895724738881    -0.002145826898    12.000000000000
         H            0.324482601530    -2.046392738881    -0.019726826898     1.007825032230
         H            2.638335601530     1.575566261119    -0.014716826898     1.007825032230
         H           -1.672553398470     1.757284261119     0.010650173102     1.007825032230
         H            2.757166601530    -2.124608738881    -0.435349826898     1.007825032230
         H            3.706778601530    -0.633204738881    -0.534595826898     1.007825032230
         H            3.253241601530    -1.290061738881     1.041972173102     1.007825032230
         H            0.556161601530     2.912524261119     0.003434173102     1.007825032230
         H           -2.050916398470    -2.005036738881    -0.012021826898     1.007825032230

  Basis Set: AUG-CC-PVTZ
    Blend: AUG-CC-PVTZ
  Basis Set: (AUG-CC-PVTZ AUX)
    Blend: AUG-CC-PVTZ-JKFIT
	 Reference Energy          =    -382.5971423615347931 [Eh]
	 Singles Energy            =      -0.0000000000000000 [Eh]
	 Same-Spin Energy          =      -0.4081314684347217 [Eh]
	 Opposite-Spin Energy      =      -1.2863616756735796 [Eh]
	 Correlation Energy        =      -1.6944931441083013 [Eh]
	 Total Energy              =    -384.2916355056431144 [Eh]

	 ================> DF-SCS-MP2 Energies <==================
	-----------------------------------------------------------
	 SCS Same-Spin Scale       =       0.3333333333333333 [-]
	 SCS Opposite-Spin Scale   =       1.2000000000000000 [-]
	 SCS Same-Spin Energy      =      -0.1360438228115739 [Eh]
	 SCS Opposite-Spin Energy  =      -1.5436340108082955 [Eh]
	 SCS Correlation Energy    =      -1.6796778336198694 [Eh]
	 SCS Total Energy          =    -384.2768201951546416 [Eh]
	-----------------------------------------------------------

  Dipole Moment: [D]
     X:     3.6812      Y:    -0.4968      Z:     0.0227     Total:     3.7147

*** Psi4 exiting successfully. Buy a developer a beer!
