                               Psi4 1.3.2 release

  ==> Input File <==

--------------------------------------------------------------------------
#psi4
#
memory 32 gb

molecule  {
0 1
  O       -3.2622350    -0.3059220     0.0067540
  C        1.5611120    -0.3149990    -0.0153800
  C        0.3595816    -0.8566752    -0.0096169
  C       -0.8692280    -0.1880260    -0.0014190
  C        1.5994260     1.0858870    -0.0069900
  C       -0.8168260     1.2117300     0.0064260
  C        0.4233030     1.8430470     0.0013400
  C        2.8326460    -1.1226230     0.0134670
  C       -2.1766910    -0.8792860    -0.0025100
  H        0.2498670    -2.0299540    -0.0200910
  H        2.5637200     1.5920050    -0.0150810
  H       -1.7471690     1.7737230     0.0102860
  H        2.6825510    -2.1081700    -0.4357140
  H        3.6321630    -0.6167660    -0.5349600
  H        3.1786260    -1.2736230     1.0416080
  H        0.4815460     2.9289630     0.0030700
  H       -2.1255320    -1.9885980    -0.0123860
units angstrom
no_reorient  #important for SAPT in psi4, default
symmetry c1  #important for SAPT in psi4, default
}

set PROPERTIES_ORIGIN ["COM"]
properties('MP2/aug-cc-pvtz', properties = ['dipole'])
--------------------------------------------------------------------------

    Molecular point group: c1
  Charge       = 0
  Multiplicity = 1
  Basis Set: AUG-CC-PVTZ
    Blend: AUG-CC-PVTZ
  Basis Set: (AUG-CC-PVTZ AUX)
    Blend: AUG-CC-PVTZ-JKFIT

    Orbital Energies [Eh]
    ---------------------

    Doubly Occupied:

       1A    -20.555348     2A    -11.339116     3A    -11.256478
       4A    -11.254662     5A    -11.252484     6A    -11.250934
       7A    -11.248509     8A    -11.248239     9A    -11.238509
      10A     -1.379898    11A     -1.182796    12A     -1.071187
      13A     -1.040469    14A     -0.952134    15A     -0.896942
      16A     -0.828457    17A     -0.781020    18A     -0.707726
      19A     -0.681094    20A     -0.646060    21A     -0.621921
      22A     -0.599285    23A     -0.593520    24A     -0.585891
      25A     -0.549490    26A     -0.545836    27A     -0.527213
      28A     -0.494099    29A     -0.486734    30A     -0.430785
      31A     -0.355948    32A     -0.344614

  @DF-RHF Final Energy:  -382.58575667985320

   => Energetics <=

    Nuclear Repulsion Energy =            397.5276391958303179
    One-Electron Energy =               -1306.3319914694752697
    Two-Electron Energy =                 526.2185955937918607
    Total Energy =                       -382.5857566798531479
  Basis Set: (AUG-CC-PVTZ AUX)
    Blend: AUG-CC-PVTZ-RI
    Molecular point group: c1

    Geometry (in Angstrom), charge = 0, multiplicity = 1:

       Center              X                  Y                   Z               Mass
    ------------   -----------------  -----------------  -----------------  -----------------
         O           -3.193653296480    -0.328574170841     0.007013423307    15.994914619570
         C            1.629693703520    -0.337651170841    -0.015120576693    12.000000000000
         C            0.428163303520    -0.879327370841    -0.009357476693    12.000000000000
         C           -0.800646296480    -0.210678170841    -0.001159576693    12.000000000000
         C            1.668007703520     1.063234829159    -0.006730576693    12.000000000000
         C           -0.748244296480     1.189077829159     0.006685423307    12.000000000000
         C            0.491884703520     1.820394829159     0.001599423307    12.000000000000
         C            2.901227703520    -1.145275170841     0.013726423307    12.000000000000
         C           -2.108109296480    -0.901938170841    -0.002250576693    12.000000000000
         H            0.318448703520    -2.052606170841    -0.019831576693     1.007825032230
         H            2.632301703520     1.569352829159    -0.014821576693     1.007825032230
         H           -1.678587296480     1.751070829159     0.010545423307     1.007825032230
         H            2.751132703520    -2.130822170841    -0.435454576693     1.007825032230
         H            3.700744703520    -0.639418170841    -0.534700576693     1.007825032230
         H            3.247207703520    -1.296275170841     1.041867423307     1.007825032230
         H            0.550127703520     2.906310829159     0.003329423307     1.007825032230
         H           -2.056950296480    -2.011250170841    -0.012126576693     1.007825032230

  Basis Set: AUG-CC-PVTZ
    Blend: AUG-CC-PVTZ
  Basis Set: (AUG-CC-PVTZ AUX)
    Blend: AUG-CC-PVTZ-JKFIT
	 Reference Energy          =    -382.5857566798532048 [Eh]
	 Singles Energy            =      -0.0000000000000000 [Eh]
	 Same-Spin Energy          =      -0.4083904650492228 [Eh]
	 Opposite-Spin Energy      =      -1.2867645765341154 [Eh]
	 Correlation Energy        =      -1.6951550415833381 [Eh]
	 Total Energy              =    -384.2809117214365529 [Eh]

	 ================> DF-SCS-MP2 Energies <==================
	-----------------------------------------------------------
	 SCS Same-Spin Scale       =       0.3333333333333333 [-]
	 SCS Opposite-Spin Scale   =       1.2000000000000000 [-]
	 SCS Same-Spin Energy      =      -0.1361301550164076 [Eh]
	 SCS Opposite-Spin Energy  =      -1.5441174918409384 [Eh]
	 SCS Correlation Energy    =      -1.6802476468573460 [Eh]
	 SCS Total Energy          =    -384.2660043267105721 [Eh]
	-----------------------------------------------------------

  Dipole Moment: [D]
     X:     3.6430      Y:    -0.4131      Z:     0.0211     Total:     3.6664

*** Psi4 exiting successfully. Buy a developer a beer!
