                               Psi4 1.4a3.dev225

  ==> Input File <==

--------------------------------------------------------------------------
#psi4
#
memory 32 gb

molecule  {
0 1
  O       -3.2622200    -0.3059070     0.0064780
  C        1.5611130    -0.3149950    -0.0153890
  C        0.3099490    -0.9407980    -0.0100380
  C       -0.8691990    -0.1880560    -0.0012000
  C        1.5993970     1.0858760    -0.0071180
  C       -0.8168460     1.2117110     0.0065060
  C        0.4232600     1.8430520     0.0014160
  C        2.8326670    -1.1225680     0.0134080
  C       -2.1590059    -0.8886298    -0.0025446
  H        0.2498950    -2.0299870    -0.0199420
  H        2.5636680     1.5920400    -0.0152260
  H       -1.7472230     1.7736450     0.0105140
  H        2.6826800    -2.1080670    -0.4359240
  H        3.6322070    -0.6166190    -0.5349020
  H        3.1786010    -1.2737110     1.0415460
  H        0.4815700     2.9289630     0.0030200
  H       -2.1255450    -1.9886100    -0.0120270
units angstrom
no_reorient  #important for SAPT in psi4, default
symmetry c1  #important for SAPT in psi4, default
}

set PROPERTIES_ORIGIN ["COM"]
properties('MP2/aug-cc-pvtz', properties = ['dipole'])
--------------------------------------------------------------------------

    Molecular point group: c1
  Charge       = 0
  Multiplicity = 1
  Basis Set: AUG-CC-PVTZ
    Blend: AUG-CC-PVTZ
  Basis Set: (AUG-CC-PVTZ AUX)
    Blend: AUG-CC-PVTZ-JKFIT

    Orbital Energies [Eh]
    ---------------------

    Doubly Occupied:

       1A    -20.552233     2A    -11.337119     3A    -11.259816
       4A    -11.257828     5A    -11.255109     6A    -11.253175
       7A    -11.251460     8A    -11.250121     9A    -11.238363
      10A     -1.364974    11A     -1.173994    12A     -1.066984
      13A     -1.044710    14A     -0.949217    15A     -0.894866
      16A     -0.835863    17A     -0.773616    18A     -0.709664
      19A     -0.679077    20A     -0.650499    21A     -0.613337
      22A     -0.609305    23A     -0.591273    24A     -0.584149
      25A     -0.553563    26A     -0.540242    27A     -0.519941
      28A     -0.503333    29A     -0.485897    30A     -0.430322
      31A     -0.354052    32A     -0.340104

  @DF-RHF Final Energy:  -382.59476764447436

   => Energetics <=

    Nuclear Repulsion Energy =            396.1488975112200137
    One-Electron Energy =               -1303.6389161455856538
    Two-Electron Energy =                 524.8952509898913377
    Total Energy =                       -382.5947676444743593
  Basis Set: (AUG-CC-PVTZ AUX)
    Blend: AUG-CC-PVTZ-RI
    Molecular point group: c1

    Geometry (in Angstrom), charge = 0, multiplicity = 1:

       Center              X                  Y                   Z               Mass
    ------------   -----------------  -----------------  -----------------  -----------------
         O           -3.190443657287    -0.319220007871     0.006799105724    15.994914619570
         C            1.632889342713    -0.328308007871    -0.015067894276    12.000000000000
         C            0.381725342713    -0.954111007871    -0.009716894276    12.000000000000
         C           -0.797422657287    -0.201369007871    -0.000878894276    12.000000000000
         C            1.671173342713     1.072562992129    -0.006796894276    12.000000000000
         C           -0.745069657287     1.198397992129     0.006827105724    12.000000000000
         C            0.495036342713     1.829738992129     0.001737105724    12.000000000000
         C            2.904443342713    -1.135881007871     0.013729105724    12.000000000000
         C           -2.087229557287    -0.901942807871    -0.002223494276    12.000000000000
         H            0.321671342713    -2.043300007871    -0.019620894276     1.007825032230
         H            2.635444342713     1.578726992129    -0.014904894276     1.007825032230
         H           -1.675446657287     1.760331992129     0.010835105724     1.007825032230
         H            2.754456342713    -2.121380007871    -0.435602894276     1.007825032230
         H            3.703983342713    -0.629932007871    -0.534580894276     1.007825032230
         H            3.250377342713    -1.287024007871     1.041867105724     1.007825032230
         H            0.553346342713     2.915649992129     0.003341105724     1.007825032230
         H           -2.053768657287    -2.001923007871    -0.011705894276     1.007825032230

  Basis Set: AUG-CC-PVTZ
    Blend: AUG-CC-PVTZ
  Basis Set: (AUG-CC-PVTZ AUX)
    Blend: AUG-CC-PVTZ-JKFIT
	 Reference Energy          =    -382.5947676444743593 [Eh]
	 Singles Energy            =      -0.0000000000000000 [Eh]
	 Same-Spin Energy          =      -0.4087023060358846 [Eh]
	 Opposite-Spin Energy      =      -1.2877034844551138 [Eh]
	 Correlation Energy        =      -1.6964057904909984 [Eh]
	 Total Energy              =    -384.2911734349653443 [Eh]

	 ================> DF-SCS-MP2 Energies <==================
	-----------------------------------------------------------
	 SCS Same-Spin Scale       =       0.3333333333333333 [-]
	 SCS Opposite-Spin Scale   =       1.2000000000000000 [-]
	 SCS Same-Spin Energy      =      -0.1362341020119615 [Eh]
	 SCS Opposite-Spin Energy  =      -1.5452441813461366 [Eh]
	 SCS Correlation Energy    =      -1.6814782833580981 [Eh]
	 SCS Total Energy          =    -384.2762459278324627 [Eh]
	-----------------------------------------------------------

  Dipole Moment: [D]
     X:     3.7966      Y:    -0.5094      Z:     0.0223     Total:     3.8306

*** Psi4 exiting successfully. Buy a developer a beer!
