                               Psi4 1.3.2 release

  ==> Input File <==

--------------------------------------------------------------------------
#psi4
#
memory 32 gb

molecule  {
0 1
  O       -3.2195910    -0.2315960     0.0072486
  C        1.5611120    -0.3149990    -0.0153800
  C        0.3099430    -0.9407630    -0.0100630
  C       -0.8692280    -0.1880260    -0.0014190
  C        1.5994260     1.0858870    -0.0069900
  C       -0.8168260     1.2117300     0.0064260
  C        0.4233030     1.8430470     0.0013400
  C        2.8326460    -1.1226230     0.0134670
  C       -2.1766910    -0.8792860    -0.0025100
  H        0.2498670    -2.0299540    -0.0200910
  H        2.5637200     1.5920050    -0.0150810
  H       -1.7471690     1.7737230     0.0102860
  H        2.6825510    -2.1081700    -0.4357140
  H        3.6321630    -0.6167660    -0.5349600
  H        3.1786260    -1.2736230     1.0416080
  H        0.4815460     2.9289630     0.0030700
  H       -2.1255320    -1.9885980    -0.0123860
units angstrom
no_reorient  #important for SAPT in psi4, default
symmetry c1  #important for SAPT in psi4, default
}

set PROPERTIES_ORIGIN ["COM"]
properties('MP2/aug-cc-pvtz', properties = ['dipole'])
--------------------------------------------------------------------------

    Molecular point group: c1
  Charge       = 0
  Multiplicity = 1
  Basis Set: AUG-CC-PVTZ
    Blend: AUG-CC-PVTZ
  Basis Set: (AUG-CC-PVTZ AUX)
    Blend: AUG-CC-PVTZ-JKFIT

    Orbital Energies [Eh]
    ---------------------

    Doubly Occupied:

       1A    -20.554497     2A    -11.337801     3A    -11.257641
       4A    -11.254910     5A    -11.252175     6A    -11.250012
       7A    -11.248543     8A    -11.247208     9A    -11.236836
      10A     -1.380420    11A     -1.170951    12A     -1.063806
      13A     -1.041287    14A     -0.947105    15A     -0.891362
      16A     -0.833617    17A     -0.772086    18A     -0.708651
      19A     -0.679074    20A     -0.648085    21A     -0.620314
      22A     -0.607617    23A     -0.589704    24A     -0.581913
      25A     -0.551723    26A     -0.545110    27A     -0.518427
      28A     -0.501015    29A     -0.487943    30A     -0.429769
      31A     -0.351800    32A     -0.337643

  @DF-RHF Final Energy:  -382.59618384461936

   => Energetics <=

    Nuclear Repulsion Energy =            397.0041082171772473
    One-Electron Energy =               -1305.4024957010433354
    Two-Electron Energy =                 525.8022036392467271
    Total Energy =                       -382.5961838446194179
  Basis Set: (AUG-CC-PVTZ AUX)
    Blend: AUG-CC-PVTZ-RI
    Molecular point group: c1

    Geometry (in Angstrom), charge = 0, multiplicity = 1:

       Center              X                  Y                   Z               Mass
    ------------   -----------------  -----------------  -----------------  -----------------
         O           -3.151729150952    -0.255745656643     0.007486717812    15.994914619570
         C            1.628973849048    -0.339148656643    -0.015141882188    12.000000000000
         C            0.377804849048    -0.964912656643    -0.009824882188    12.000000000000
         C           -0.801366150952    -0.212175656643    -0.001180882188    12.000000000000
         C            1.667287849048     1.061737343357    -0.006751882188    12.000000000000
         C           -0.748964150952     1.187580343357     0.006664117812    12.000000000000
         C            0.491164849048     1.818897343357     0.001578117812    12.000000000000
         C            2.900507849048    -1.146772656643     0.013705117812    12.000000000000
         C           -2.108829150952    -0.903435656643    -0.002271882188    12.000000000000
         H            0.317728849048    -2.054103656643    -0.019852882188     1.007825032230
         H            2.631581849048     1.567855343357    -0.014842882188     1.007825032230
         H           -1.679307150952     1.749573343357     0.010524117812     1.007825032230
         H            2.750412849048    -2.132319656643    -0.435475882188     1.007825032230
         H            3.700024849048    -0.640915656643    -0.534721882188     1.007825032230
         H            3.246487849048    -1.297772656643     1.041846117812     1.007825032230
         H            0.549407849048     2.904813343357     0.003308117812     1.007825032230
         H           -2.057670150952    -2.012747656643    -0.012147882188     1.007825032230

  Basis Set: AUG-CC-PVTZ
    Blend: AUG-CC-PVTZ
  Basis Set: (AUG-CC-PVTZ AUX)
    Blend: AUG-CC-PVTZ-JKFIT
	 Reference Energy          =    -382.5961838446193610 [Eh]
	 Singles Energy            =      -0.0000000000000000 [Eh]
	 Same-Spin Energy          =      -0.4083009300219419 [Eh]
	 Opposite-Spin Energy      =      -1.2865442422268574 [Eh]
	 Correlation Energy        =      -1.6948451722487992 [Eh]
	 Total Energy              =    -384.2910290168681513 [Eh]

	 ================> DF-SCS-MP2 Energies <==================
	-----------------------------------------------------------
	 SCS Same-Spin Scale       =       0.3333333333333333 [-]
	 SCS Opposite-Spin Scale   =       1.2000000000000000 [-]
	 SCS Same-Spin Energy      =      -0.1361003100073140 [Eh]
	 SCS Opposite-Spin Energy  =      -1.5438530906722288 [Eh]
	 SCS Correlation Energy    =      -1.6799534006795427 [Eh]
	 SCS Total Energy          =    -384.2761372452989121 [Eh]
	-----------------------------------------------------------

  Dipole Moment: [D]
     X:     3.5040      Y:    -0.6618      Z:     0.0213     Total:     3.5660

*** Psi4 exiting successfully. Buy a developer a beer!
