                               Psi4 1.3.2 release

  ==> Input File <==

--------------------------------------------------------------------------
#psi4
#
memory 32 gb

molecule  {
0 1
  O       -3.2622350    -0.3059220     0.0067540
  C        1.5611120    -0.3149990    -0.0153800
  C        0.3099430    -0.9407630    -0.0100630
  C       -0.8692280    -0.1880260    -0.0014190
  C        1.5994260     1.0858870    -0.0069900
  C       -0.8168260     1.2117300     0.0064260
  C        0.4233030     1.8430470     0.0013400
  C        2.7482492    -1.0690178     0.0115523
  C       -2.1766910    -0.8792860    -0.0025100
  H        0.2498670    -2.0299540    -0.0200910
  H        2.5637200     1.5920050    -0.0150810
  H       -1.7471690     1.7737230     0.0102860
  H        2.6825510    -2.1081700    -0.4357140
  H        3.6321630    -0.6167660    -0.5349600
  H        3.1786260    -1.2736230     1.0416080
  H        0.4815460     2.9289630     0.0030700
  H       -2.1255320    -1.9885980    -0.0123860
units angstrom
no_reorient  #important for SAPT in psi4, default
symmetry c1  #important for SAPT in psi4, default
}

set PROPERTIES_ORIGIN ["COM"]
properties('MP2/aug-cc-pvtz', properties = ['dipole'])
--------------------------------------------------------------------------

    Molecular point group: c1
  Charge       = 0
  Multiplicity = 1
  Basis Set: AUG-CC-PVTZ
    Blend: AUG-CC-PVTZ
  Basis Set: (AUG-CC-PVTZ AUX)
    Blend: AUG-CC-PVTZ-JKFIT

    Orbital Energies [Eh]
    ---------------------

    Doubly Occupied:

       1A    -20.554496     2A    -11.337001     3A    -11.257451
       4A    -11.254737     5A    -11.253516     6A    -11.253103
       7A    -11.250912     8A    -11.249675     9A    -11.242056
      10A     -1.379131    11A     -1.177456    12A     -1.077790
      13A     -1.044233    14A     -0.946019    15A     -0.892816
      16A     -0.834771    17A     -0.773240    18A     -0.710355
      19A     -0.680719    20A     -0.654500    21A     -0.620096
      22A     -0.613243    23A     -0.597692    24A     -0.583472
      25A     -0.542050    26A     -0.539926    27A     -0.518879
      28A     -0.505677    29A     -0.485098    30A     -0.428806
      31A     -0.354122    32A     -0.336619

  @DF-RHF Final Energy:  -382.58523769087680

   => Energetics <=

    Nuclear Repulsion Energy =            397.9330395598994983
    One-Electron Energy =               -1307.1372405904453444
    Two-Electron Energy =                 526.6189633396689942
    Total Energy =                       -382.5852376908768520
  Basis Set: (AUG-CC-PVTZ AUX)
    Blend: AUG-CC-PVTZ-RI
    Molecular point group: c1

    Geometry (in Angstrom), charge = 0, multiplicity = 1:

       Center              X                  Y                   Z               Mass
    ------------   -----------------  -----------------  -----------------  -----------------
         O           -3.180256177593    -0.325527371144     0.007249390211    15.994914619570
         C            1.643090822407    -0.334604371144    -0.014884609789    12.000000000000
         C            0.391921822407    -0.960368371144    -0.009567609789    12.000000000000
         C           -0.787249177593    -0.207631371144    -0.000923609789    12.000000000000
         C            1.681404822407     1.066281628856    -0.006494609789    12.000000000000
         C           -0.734847177593     1.192124628856     0.006921390211    12.000000000000
         C            0.505281822407     1.823441628856     0.001835390211    12.000000000000
         C            2.830228022407    -1.088623171144     0.012047690211    12.000000000000
         C           -2.094712177593    -0.898891371144    -0.002014609789    12.000000000000
         H            0.331845822407    -2.049559371144    -0.019595609789     1.007825032230
         H            2.645698822407     1.572399628856    -0.014585609789     1.007825032230
         H           -1.665190177593     1.754117628856     0.010781390211     1.007825032230
         H            2.764529822407    -2.127775371144    -0.435218609789     1.007825032230
         H            3.714141822407    -0.636371371144    -0.534464609789     1.007825032230
         H            3.260604822407    -1.293228371144     1.042103390211     1.007825032230
         H            0.563524822407     2.909357628856     0.003565390211     1.007825032230
         H           -2.043553177593    -2.008203371144    -0.011890609789     1.007825032230

  Basis Set: AUG-CC-PVTZ
    Blend: AUG-CC-PVTZ
  Basis Set: (AUG-CC-PVTZ AUX)
    Blend: AUG-CC-PVTZ-JKFIT
	 Reference Energy          =    -382.5852376908767951 [Eh]
	 Singles Energy            =      -0.0000000000000000 [Eh]
	 Same-Spin Energy          =      -0.4093991912801161 [Eh]
	 Opposite-Spin Energy      =      -1.2878939311528996 [Eh]
	 Correlation Energy        =      -1.6972931224330159 [Eh]
	 Total Energy              =    -384.2825308133097906 [Eh]

	 ================> DF-SCS-MP2 Energies <==================
	-----------------------------------------------------------
	 SCS Same-Spin Scale       =       0.3333333333333333 [-]
	 SCS Opposite-Spin Scale   =       1.2000000000000000 [-]
	 SCS Same-Spin Energy      =      -0.1364663970933720 [Eh]
	 SCS Opposite-Spin Energy  =      -1.5454727173834795 [Eh]
	 SCS Correlation Energy    =      -1.6819391144768514 [Eh]
	 SCS Total Energy          =    -384.2671768053536425 [Eh]
	-----------------------------------------------------------

  Dipole Moment: [D]
     X:     3.6860      Y:    -0.4973      Z:     0.0274     Total:     3.7195

*** Psi4 exiting successfully. Buy a developer a beer!
