                               Psi4 1.3.2 release

  ==> Input File <==

--------------------------------------------------------------------------
#psi4
#
memory 32 gb

molecule  {
0 1
  O       -3.2622350    -0.3059220     0.0067540
  C        1.5611120    -0.3149990    -0.0153800
  C        0.2545596    -1.0211836    -0.0104670
  C       -0.8692280    -0.1880260    -0.0014190
  C        1.5994260     1.0858870    -0.0069900
  C       -0.8168260     1.2117300     0.0064260
  C        0.4233030     1.8430470     0.0013400
  C        2.8326460    -1.1226230     0.0134670
  C       -2.1766910    -0.8792860    -0.0025100
  H        0.2498670    -2.0299540    -0.0200910
  H        2.5637200     1.5920050    -0.0150810
  H       -1.7471690     1.7737230     0.0102860
  H        2.6825510    -2.1081700    -0.4357140
  H        3.6321630    -0.6167660    -0.5349600
  H        3.1786260    -1.2736230     1.0416080
  H        0.4815460     2.9289630     0.0030700
  H       -2.1255320    -1.9885980    -0.0123860
units angstrom
no_reorient  #important for SAPT in psi4, default
symmetry c1  #important for SAPT in psi4, default
}

set PROPERTIES_ORIGIN ["COM"]
properties('MP2/aug-cc-pvtz', properties = ['dipole'])
--------------------------------------------------------------------------

    Molecular point group: c1
  Charge       = 0
  Multiplicity = 1
  Basis Set: AUG-CC-PVTZ
    Blend: AUG-CC-PVTZ
  Basis Set: (AUG-CC-PVTZ AUX)
    Blend: AUG-CC-PVTZ-JKFIT

    Orbital Energies [Eh]
    ---------------------

    Doubly Occupied:

       1A    -20.552743     2A    -11.334247     3A    -11.268959
       4A    -11.260186     5A    -11.255547     6A    -11.252629
       7A    -11.251460     8A    -11.248508     9A    -11.237695
      10A     -1.377604    11A     -1.165752    12A     -1.062825
      13A     -1.045178    14A     -0.947081    15A     -0.887302
      16A     -0.841562    17A     -0.765422    18A     -0.715371
      19A     -0.675744    20A     -0.657694    21A     -0.617323
      22A     -0.616259    23A     -0.588916    24A     -0.581868
      25A     -0.555669    26A     -0.543408    27A     -0.516327
      28A     -0.504695    29A     -0.485350    30A     -0.425485
      31A     -0.355721    32A     -0.332445

  @DF-RHF Final Energy:  -382.58453260947408

   => Energetics <=

    Nuclear Repulsion Energy =            395.0558867543919632
    One-Electron Energy =               -1301.4268901436159922
    Two-Electron Energy =                 523.7864707797499477
    Total Energy =                       -382.5845326094740813
  Basis Set: (AUG-CC-PVTZ AUX)
    Blend: AUG-CC-PVTZ-RI
    Molecular point group: c1

    Geometry (in Angstrom), charge = 0, multiplicity = 1:

       Center              X                  Y                   Z               Mass
    ------------   -----------------  -----------------  -----------------  -----------------
         O           -3.183156127674    -0.312131211797     0.007098392582    15.994914619570
         C            1.640190872326    -0.321208211797    -0.015035607418    12.000000000000
         C            0.333638472326    -1.027392811797    -0.010122607418    12.000000000000
         C           -0.790149127674    -0.194235211797    -0.001074607418    12.000000000000
         C            1.678504872326     1.079677788203    -0.006645607418    12.000000000000
         C           -0.737747127674     1.205520788203     0.006770392582    12.000000000000
         C            0.502381872326     1.836837788203     0.001684392582    12.000000000000
         C            2.911724872326    -1.128832211797     0.013811392582    12.000000000000
         C           -2.097612127674    -0.885495211797    -0.002165607418    12.000000000000
         H            0.328945872326    -2.036163211797    -0.019746607418     1.007825032230
         H            2.642798872326     1.585795788203    -0.014736607418     1.007825032230
         H           -1.668090127674     1.767513788203     0.010630392582     1.007825032230
         H            2.761629872326    -2.114379211797    -0.435369607418     1.007825032230
         H            3.711241872326    -0.622975211797    -0.534615607418     1.007825032230
         H            3.257704872326    -1.279832211797     1.041952392582     1.007825032230
         H            0.560624872326     2.922753788203     0.003414392582     1.007825032230
         H           -2.046453127674    -1.994807211797    -0.012041607418     1.007825032230

  Basis Set: AUG-CC-PVTZ
    Blend: AUG-CC-PVTZ
  Basis Set: (AUG-CC-PVTZ AUX)
    Blend: AUG-CC-PVTZ-JKFIT
	 Reference Energy          =    -382.5845326094740813 [Eh]
	 Singles Energy            =      -0.0000000000000000 [Eh]
	 Same-Spin Energy          =      -0.4080956454297104 [Eh]
	 Opposite-Spin Energy      =      -1.2872987409049035 [Eh]
	 Correlation Energy        =      -1.6953943863346139 [Eh]
	 Total Energy              =    -384.2799269958086938 [Eh]

	 ================> DF-SCS-MP2 Energies <==================
	-----------------------------------------------------------
	 SCS Same-Spin Scale       =       0.3333333333333333 [-]
	 SCS Opposite-Spin Scale   =       1.2000000000000000 [-]
	 SCS Same-Spin Energy      =      -0.1360318818099035 [Eh]
	 SCS Opposite-Spin Energy  =      -1.5447584890858841 [Eh]
	 SCS Correlation Energy    =      -1.6807903708957876 [Eh]
	 SCS Total Energy          =    -384.2653229803698878 [Eh]
	-----------------------------------------------------------

  Dipole Moment: [D]
     X:     3.7241      Y:    -0.5215      Z:     0.0239     Total:     3.7605

*** Psi4 exiting successfully. Buy a developer a beer!
