                               Psi4 1.3.2 release

  ==> Input File <==

--------------------------------------------------------------------------
#psi4
#
memory 32 gb

molecule  {
0 1
  O       -3.2622350    -0.3059220     0.0067540
  C        1.5611120    -0.3149990    -0.0153800
  C        0.3354962    -0.8991523    -0.0098451
  C       -0.8692280    -0.1880260    -0.0014190
  C        1.5994260     1.0858870    -0.0069900
  C       -0.8168260     1.2117300     0.0064260
  C        0.4233030     1.8430470     0.0013400
  C        2.8326460    -1.1226230     0.0134670
  C       -2.1766910    -0.8792860    -0.0025100
  H        0.2498670    -2.0299540    -0.0200910
  H        2.5637200     1.5920050    -0.0150810
  H       -1.7471690     1.7737230     0.0102860
  H        2.6825510    -2.1081700    -0.4357140
  H        3.6321630    -0.6167660    -0.5349600
  H        3.1786260    -1.2736230     1.0416080
  H        0.4815460     2.9289630     0.0030700
  H       -2.1255320    -1.9885980    -0.0123860
units angstrom
no_reorient  #important for SAPT in psi4, default
symmetry c1  #important for SAPT in psi4, default
}

set PROPERTIES_ORIGIN ["COM"]
properties('MP2/aug-cc-pvtz', properties = ['dipole'])
--------------------------------------------------------------------------

    Molecular point group: c1
  Charge       = 0
  Multiplicity = 1
  Basis Set: AUG-CC-PVTZ
    Blend: AUG-CC-PVTZ
  Basis Set: (AUG-CC-PVTZ AUX)
    Blend: AUG-CC-PVTZ-JKFIT

    Orbital Energies [Eh]
    ---------------------

    Doubly Occupied:

       1A    -20.554755     2A    -11.337898     3A    -11.255988
       4A    -11.255284     5A    -11.253402     6A    -11.252072
       7A    -11.250852     8A    -11.248806     9A    -11.238109
      10A     -1.379354    11A     -1.177492    12A     -1.068220
      13A     -1.041718    14A     -0.950094    15A     -0.894436
      16A     -0.831386    17A     -0.776492    18A     -0.707887
      19A     -0.680246    20A     -0.647705    21A     -0.620576
      22A     -0.603831    23A     -0.592002    24A     -0.584735
      25A     -0.551190    26A     -0.545084    27A     -0.523864
      28A     -0.496047    29A     -0.491483    30A     -0.429673
      31A     -0.353858    32A     -0.342725

  @DF-RHF Final Energy:  -382.59488489340316

   => Energetics <=

    Nuclear Repulsion Energy =            396.8621599960137019
    One-Electron Energy =               -1305.0395622368782824
    Two-Electron Energy =                 525.5825173474614758
    Total Energy =                       -382.5948848934031048
  Basis Set: (AUG-CC-PVTZ AUX)
    Blend: AUG-CC-PVTZ-RI
    Molecular point group: c1

    Geometry (in Angstrom), charge = 0, multiplicity = 1:

       Center              X                  Y                   Z               Mass
    ------------   -----------------  -----------------  -----------------  -----------------
         O           -3.191245910317    -0.324328495753     0.007036232375    15.994914619570
         C            1.632101089683    -0.333405495753    -0.015097767625    12.000000000000
         C            0.406485289683    -0.917558795753    -0.009562867625    12.000000000000
         C           -0.798238910317    -0.206432495753    -0.001136767625    12.000000000000
         C            1.670415089683     1.067480504247    -0.006707767625    12.000000000000
         C           -0.745836910317     1.193323504247     0.006708232375    12.000000000000
         C            0.494292089683     1.824640504247     0.001622232375    12.000000000000
         C            2.903635089683    -1.141029495753     0.013749232375    12.000000000000
         C           -2.105701910317    -0.897692495753    -0.002227767625    12.000000000000
         H            0.320856089683    -2.048360495753    -0.019808767625     1.007825032230
         H            2.634709089683     1.573598504247    -0.014798767625     1.007825032230
         H           -1.676179910317     1.755316504247     0.010568232375     1.007825032230
         H            2.753540089683    -2.126576495753    -0.435431767625     1.007825032230
         H            3.703152089683    -0.635172495753    -0.534677767625     1.007825032230
         H            3.249615089683    -1.292029495753     1.041890232375     1.007825032230
         H            0.552535089683     2.910556504247     0.003352232375     1.007825032230
         H           -2.054542910317    -2.007004495753    -0.012103767625     1.007825032230

  Basis Set: AUG-CC-PVTZ
    Blend: AUG-CC-PVTZ
  Basis Set: (AUG-CC-PVTZ AUX)
    Blend: AUG-CC-PVTZ-JKFIT
	 Reference Energy          =    -382.5948848934031616 [Eh]
	 Singles Energy            =      -0.0000000000000000 [Eh]
	 Same-Spin Energy          =      -0.4082296195870054 [Eh]
	 Opposite-Spin Energy      =      -1.2864336980273019 [Eh]
	 Correlation Energy        =      -1.6946633176143073 [Eh]
	 Total Energy              =    -384.2895482110174612 [Eh]

	 ================> DF-SCS-MP2 Energies <==================
	-----------------------------------------------------------
	 SCS Same-Spin Scale       =       0.3333333333333333 [-]
	 SCS Opposite-Spin Scale   =       1.2000000000000000 [-]
	 SCS Same-Spin Energy      =      -0.1360765398623351 [Eh]
	 SCS Opposite-Spin Energy  =      -1.5437204376327622 [Eh]
	 SCS Correlation Energy    =      -1.6797969774950974 [Eh]
	 SCS Total Energy          =    -384.2746818708982346 [Eh]
	-----------------------------------------------------------

  Dipole Moment: [D]
     X:     3.6632      Y:    -0.4606      Z:     0.0215     Total:     3.6921

*** Psi4 exiting successfully. Buy a developer a beer!
