                               Psi4 1.3.2 release

  ==> Input File <==

--------------------------------------------------------------------------
#psi4
#
memory 32 gb

molecule  {
0 1
  O       -3.2622350    -0.3059220     0.0067540
  C        1.5611120    -0.3149990    -0.0153800
  C        0.3099430    -0.9407630    -0.0100630
  C       -0.8692280    -0.1880260    -0.0014190
  C        1.5994260     1.0858870    -0.0069900
  C       -0.8168260     1.2117300     0.0064260
  C        0.4233030     1.8430470     0.0013400
  C        2.8326460    -1.1226230     0.0134670
  C       -2.0882698    -0.9259884    -0.0032646
  H        0.2498670    -2.0299540    -0.0200910
  H        2.5637200     1.5920050    -0.0150810
  H       -1.7471690     1.7737230     0.0102860
  H        2.6825510    -2.1081700    -0.4357140
  H        3.6321630    -0.6167660    -0.5349600
  H        3.1786260    -1.2736230     1.0416080
  H        0.4815460     2.9289630     0.0030700
  H       -2.1255320    -1.9885980    -0.0123860
units angstrom
no_reorient  #important for SAPT in psi4, default
symmetry c1  #important for SAPT in psi4, default
}

set PROPERTIES_ORIGIN ["COM"]
properties('MP2/aug-cc-pvtz', properties = ['dipole'])
--------------------------------------------------------------------------

    Molecular point group: c1
  Charge       = 0
  Multiplicity = 1
  Basis Set: AUG-CC-PVTZ
    Blend: AUG-CC-PVTZ
  Basis Set: (AUG-CC-PVTZ AUX)
    Blend: AUG-CC-PVTZ-JKFIT

    Orbital Energies [Eh]
    ---------------------

    Doubly Occupied:

       1A    -20.544242     2A    -11.338479     3A    -11.262595
       4A    -11.261453     5A    -11.259842     6A    -11.256485
       7A    -11.254096     8A    -11.253325     9A    -11.240442
      10A     -1.315082    11A     -1.178254    12A     -1.072204
      13A     -1.051550    14A     -0.951867    15A     -0.906161
      16A     -0.840817    17A     -0.779297    18A     -0.713103
      19A     -0.681713    20A     -0.654852    21A     -0.612141
      22A     -0.593615    23A     -0.587507    24A     -0.586540
      25A     -0.555988    26A     -0.532398    27A     -0.519647
      28A     -0.504794    29A     -0.468845    30A     -0.432513
      31A     -0.355409    32A     -0.341729

  @DF-RHF Final Energy:  -382.57216061971286

   => Energetics <=

    Nuclear Repulsion Energy =            395.9325413009556200
    One-Electron Energy =               -1303.1954326230677452
    Two-Electron Energy =                 524.6907307023992644
    Total Energy =                       -382.5721606197129177
  Basis Set: (AUG-CC-PVTZ AUX)
    Blend: AUG-CC-PVTZ-RI
    Molecular point group: c1

    Geometry (in Angstrom), charge = 0, multiplicity = 1:

       Center              X                  Y                   Z               Mass
    ------------   -----------------  -----------------  -----------------  -----------------
         O           -3.197529698556    -0.315501416490     0.007133435786    15.994914619570
         C            1.625817301444    -0.324578416490    -0.015000564214    12.000000000000
         C            0.374648301444    -0.950342416490    -0.009683564214    12.000000000000
         C           -0.804522698556    -0.197605416490    -0.001039564214    12.000000000000
         C            1.664131301444     1.076307583510    -0.006610564214    12.000000000000
         C           -0.752120698556     1.202150583510     0.006805435786    12.000000000000
         C            0.488008301444     1.833467583510     0.001719435786    12.000000000000
         C            2.897351301444    -1.132202416490     0.013846435786    12.000000000000
         C           -2.023564498556    -0.935567816490    -0.002885164214    12.000000000000
         H            0.314572301444    -2.039533416490    -0.019711564214     1.007825032230
         H            2.628425301444     1.582425583510    -0.014701564214     1.007825032230
         H           -1.682463698556     1.764143583510     0.010665435786     1.007825032230
         H            2.747256301444    -2.117749416490    -0.435334564214     1.007825032230
         H            3.696868301444    -0.626345416490    -0.534580564214     1.007825032230
         H            3.243331301444    -1.283202416490     1.041987435786     1.007825032230
         H            0.546251301444     2.919383583510     0.003449435786     1.007825032230
         H           -2.060826698556    -1.998177416490    -0.012006564214     1.007825032230

  Basis Set: AUG-CC-PVTZ
    Blend: AUG-CC-PVTZ
  Basis Set: (AUG-CC-PVTZ AUX)
    Blend: AUG-CC-PVTZ-JKFIT
	 Reference Energy          =    -382.5721606197128608 [Eh]
	 Singles Energy            =      -0.0000000000000000 [Eh]
	 Same-Spin Energy          =      -0.4113211622589974 [Eh]
	 Opposite-Spin Energy      =      -1.2934680272068686 [Eh]
	 Correlation Energy        =      -1.7047891894658660 [Eh]
	 Total Energy              =    -384.2769498091787455 [Eh]

	 ================> DF-SCS-MP2 Energies <==================
	-----------------------------------------------------------
	 SCS Same-Spin Scale       =       0.3333333333333333 [-]
	 SCS Opposite-Spin Scale   =       1.2000000000000000 [-]
	 SCS Same-Spin Energy      =      -0.1371070540863324 [Eh]
	 SCS Opposite-Spin Energy  =      -1.5521616326482424 [Eh]
	 SCS Correlation Energy    =      -1.6892686867345748 [Eh]
	 SCS Total Energy          =    -384.2614293064474396 [Eh]
	-----------------------------------------------------------

  Dipole Moment: [D]
     X:     4.1769      Y:    -0.5404      Z:     0.0200     Total:     4.2118

*** Psi4 exiting successfully. Buy a developer a beer!
