                               Psi4 1.3.2 release

  ==> Input File <==

--------------------------------------------------------------------------
#psi4
#
memory 32 gb

molecule  {
0 1
  O       -3.2622350    -0.3059220     0.0067540
  C        1.5611120    -0.3149990    -0.0153800
  C        0.2888687    -0.8967316    -0.0112682
  C       -0.8692280    -0.1880260    -0.0014190
  C        1.5994260     1.0858870    -0.0069900
  C       -0.8168260     1.2117300     0.0064260
  C        0.4233030     1.8430470     0.0013400
  C        2.8326460    -1.1226230     0.0134670
  C       -2.1766910    -0.8792860    -0.0025100
  H        0.2498670    -2.0299540    -0.0200910
  H        2.5637200     1.5920050    -0.0150810
  H       -1.7471690     1.7737230     0.0102860
  H        2.6825510    -2.1081700    -0.4357140
  H        3.6321630    -0.6167660    -0.5349600
  H        3.1786260    -1.2736230     1.0416080
  H        0.4815460     2.9289630     0.0030700
  H       -2.1255320    -1.9885980    -0.0123860
units angstrom
no_reorient  #important for SAPT in psi4, default
symmetry c1  #important for SAPT in psi4, default
}

set PROPERTIES_ORIGIN ["COM"]
properties('MP2/aug-cc-pvtz', properties = ['dipole'])
--------------------------------------------------------------------------

    Molecular point group: c1
  Charge       = 0
  Multiplicity = 1
  Basis Set: AUG-CC-PVTZ
    Blend: AUG-CC-PVTZ
  Basis Set: (AUG-CC-PVTZ AUX)
    Blend: AUG-CC-PVTZ-JKFIT

    Orbital Energies [Eh]
    ---------------------

    Doubly Occupied:

       1A    -20.555368     2A    -11.337731     3A    -11.258768
       4A    -11.256319     5A    -11.253286     6A    -11.249943
       7A    -11.248426     8A    -11.247933     9A    -11.239180
      10A     -1.379855    11A     -1.177193    12A     -1.067521
      13A     -1.043936    14A     -0.949542    15A     -0.891481
      16A     -0.832050    17A     -0.777922    18A     -0.708060
      19A     -0.678927    20A     -0.648257    21A     -0.621405
      22A     -0.604840    23A     -0.591588    24A     -0.581621
      25A     -0.553153    26A     -0.546666    27A     -0.519997
      28A     -0.499874    29A     -0.491177    30A     -0.429527
      31A     -0.357644    32A     -0.338281

  @DF-RHF Final Energy:  -382.59499605340676

   => Energetics <=

    Nuclear Repulsion Energy =            396.9316544207941888
    One-Electron Energy =               -1305.1783569185920442
    Two-Electron Energy =                 525.6517064443911522
    Total Energy =                       -382.5949960534067031
  Basis Set: (AUG-CC-PVTZ AUX)
    Blend: AUG-CC-PVTZ-RI
    Molecular point group: c1

    Geometry (in Angstrom), charge = 0, multiplicity = 1:

       Center              X                  Y                   Z               Mass
    ------------   -----------------  -----------------  -----------------  -----------------
         O           -3.186585394059    -0.324570449787     0.007178474200    15.994914619570
         C            1.636761605941    -0.333647449787    -0.014955525800    12.000000000000
         C            0.364518305941    -0.915380049787    -0.010843725800    12.000000000000
         C           -0.793578394059    -0.206674449787    -0.000994525800    12.000000000000
         C            1.675075605941     1.067238550213    -0.006565525800    12.000000000000
         C           -0.741176394059     1.193081550213     0.006850474200    12.000000000000
         C            0.498952605941     1.824398550213     0.001764474200    12.000000000000
         C            2.908295605941    -1.141271449787     0.013891474200    12.000000000000
         C           -2.101041394059    -0.897934449787    -0.002085525800    12.000000000000
         H            0.325516605941    -2.048602449787    -0.019666525800     1.007825032230
         H            2.639369605941     1.573356550213    -0.014656525800     1.007825032230
         H           -1.671519394059     1.755074550213     0.010710474200     1.007825032230
         H            2.758200605941    -2.126818449787    -0.435289525800     1.007825032230
         H            3.707812605941    -0.635414449787    -0.534535525800     1.007825032230
         H            3.254275605941    -1.292271449787     1.042032474200     1.007825032230
         H            0.557195605941     2.910314550213     0.003494474200     1.007825032230
         H           -2.049882394059    -2.007246449787    -0.011961525800     1.007825032230

  Basis Set: AUG-CC-PVTZ
    Blend: AUG-CC-PVTZ
  Basis Set: (AUG-CC-PVTZ AUX)
    Blend: AUG-CC-PVTZ-JKFIT
	 Reference Energy          =    -382.5949960534067600 [Eh]
	 Singles Energy            =      -0.0000000000000000 [Eh]
	 Same-Spin Energy          =      -0.4081594725926825 [Eh]
	 Opposite-Spin Energy      =      -1.2864161764336708 [Eh]
	 Correlation Energy        =      -1.6945756490263533 [Eh]
	 Total Energy              =    -384.2895717024331361 [Eh]

	 ================> DF-SCS-MP2 Energies <==================
	-----------------------------------------------------------
	 SCS Same-Spin Scale       =       0.3333333333333333 [-]
	 SCS Opposite-Spin Scale   =       1.2000000000000000 [-]
	 SCS Same-Spin Energy      =      -0.1360531575308941 [Eh]
	 SCS Opposite-Spin Energy  =      -1.5436994117204048 [Eh]
	 SCS Correlation Energy    =      -1.6797525692512989 [Eh]
	 SCS Total Energy          =    -384.2747486226580804 [Eh]
	-----------------------------------------------------------

  Dipole Moment: [D]
     X:     3.6773      Y:    -0.4973      Z:     0.0234     Total:     3.7108

*** Psi4 exiting successfully. Buy a developer a beer!
