                               Psi4 1.4a3.dev225

  ==> Input File <==

--------------------------------------------------------------------------
#psi4
#
memory 32 gb

molecule  {
0 1
  O       -3.2622200    -0.3059070     0.0064780
  C        1.5611130    -0.3149950    -0.0153890
  C        0.3099490    -0.9407980    -0.0100380
  C       -0.8691990    -0.1880560    -0.0012000
  C        1.5993970     1.0858760    -0.0071180
  C       -0.8168460     1.2117110     0.0065060
  C        0.4232600     1.8430520     0.0014160
  C        2.8326670    -1.1225680     0.0134080
  C       -2.1590088    -0.8699415    -0.0023838
  H        0.2498950    -2.0299870    -0.0199420
  H        2.5636680     1.5920400    -0.0152260
  H       -1.7472230     1.7736450     0.0105140
  H        2.6826800    -2.1080670    -0.4359240
  H        3.6322070    -0.6166190    -0.5349020
  H        3.1786010    -1.2737110     1.0415460
  H        0.4815700     2.9289630     0.0030200
  H       -2.1255450    -1.9886100    -0.0120270
units angstrom
no_reorient  #important for SAPT in psi4, default
symmetry c1  #important for SAPT in psi4, default
}

set PROPERTIES_ORIGIN ["COM"]
properties('MP2/aug-cc-pvtz', properties = ['dipole'])
--------------------------------------------------------------------------

    Molecular point group: c1
  Charge       = 0
  Multiplicity = 1
  Basis Set: AUG-CC-PVTZ
    Blend: AUG-CC-PVTZ
  Basis Set: (AUG-CC-PVTZ AUX)
    Blend: AUG-CC-PVTZ-JKFIT

    Orbital Energies [Eh]
    ---------------------

    Doubly Occupied:

       1A    -20.551975     2A    -11.336387     3A    -11.260195
       4A    -11.258420     5A    -11.255660     6A    -11.252729
       7A    -11.251599     8A    -11.250334     9A    -11.238578
      10A     -1.370134    11A     -1.174616    12A     -1.067993
      13A     -1.045191    14A     -0.949655    15A     -0.894746
      16A     -0.835621    17A     -0.771235    18A     -0.709568
      19A     -0.679422    20A     -0.651032    21A     -0.614633
      22A     -0.609243    23A     -0.591558    24A     -0.584516
      25A     -0.553639    26A     -0.542789    27A     -0.520492
      28A     -0.503737    29A     -0.487271    30A     -0.428517
      31A     -0.354556    32A     -0.340576

  @DF-RHF Final Energy:  -382.59567584630508

   => Energetics <=

    Nuclear Repulsion Energy =            396.4056915958163358
    One-Electron Energy =               -1304.1294973283611398
    Two-Electron Energy =                 525.1281298862397762
    Total Energy =                       -382.5956758463050846
  Basis Set: (AUG-CC-PVTZ AUX)
    Blend: AUG-CC-PVTZ-RI
    Molecular point group: c1

    Geometry (in Angstrom), charge = 0, multiplicity = 1:

       Center              X                  Y                   Z               Mass
    ------------   -----------------  -----------------  -----------------  -----------------
         O           -3.190443367425    -0.321087942587     0.006783033427    15.994914619570
         C            1.632889632575    -0.330175942587    -0.015083966573    12.000000000000
         C            0.381725632575    -0.955978942587    -0.009732966573    12.000000000000
         C           -0.797422367425    -0.203236942587    -0.000894966573    12.000000000000
         C            1.671173632575     1.070695057413    -0.006812966573    12.000000000000
         C           -0.745069367425     1.196530057413     0.006811033427    12.000000000000
         C            0.495036632575     1.827871057413     0.001721033427    12.000000000000
         C            2.904443632575    -1.137748942587     0.013713033427    12.000000000000
         C           -2.087232167425    -0.885122442587    -0.002078766573    12.000000000000
         H            0.321671632575    -2.045167942587    -0.019636966573     1.007825032230
         H            2.635444632575     1.576859057413    -0.014920966573     1.007825032230
         H           -1.675446367425     1.758464057413     0.010819033427     1.007825032230
         H            2.754456632575    -2.123247942587    -0.435618966573     1.007825032230
         H            3.703983632575    -0.631799942587    -0.534596966573     1.007825032230
         H            3.250377632575    -1.288891942587     1.041851033427     1.007825032230
         H            0.553346632575     2.913782057413     0.003325033427     1.007825032230
         H           -2.053768367425    -2.003790942587    -0.011721966573     1.007825032230

  Basis Set: AUG-CC-PVTZ
    Blend: AUG-CC-PVTZ
  Basis Set: (AUG-CC-PVTZ AUX)
    Blend: AUG-CC-PVTZ-JKFIT
	 Reference Energy          =    -382.5956758463050846 [Eh]
	 Singles Energy            =      -0.0000000000000000 [Eh]
	 Same-Spin Energy          =      -0.4086059788662545 [Eh]
	 Opposite-Spin Energy      =      -1.2872969582549985 [Eh]
	 Correlation Energy        =      -1.6959029371212528 [Eh]
	 Total Energy              =    -384.2915787834263597 [Eh]

	 ================> DF-SCS-MP2 Energies <==================
	-----------------------------------------------------------
	 SCS Same-Spin Scale       =       0.3333333333333333 [-]
	 SCS Opposite-Spin Scale   =       1.2000000000000000 [-]
	 SCS Same-Spin Energy      =      -0.1362019929554182 [Eh]
	 SCS Opposite-Spin Energy  =      -1.5447563499059982 [Eh]
	 SCS Correlation Energy    =      -1.6809583428614163 [Eh]
	 SCS Total Energy          =    -384.2766341891664865 [Eh]
	-----------------------------------------------------------

  Dipole Moment: [D]
     X:     3.8280      Y:    -0.4372      Z:     0.0228     Total:     3.8529

*** Psi4 exiting successfully. Buy a developer a beer!
