                               Psi4 1.3.2 release

  ==> Input File <==

--------------------------------------------------------------------------
#psi4
#
memory 32 gb

molecule  {
0 1
  O       -3.2622350    -0.3059220     0.0067540
  C        1.5611120    -0.3149990    -0.0153800
  C        0.3099430    -0.9407630    -0.0100630
  C       -0.8692280    -0.1880260    -0.0014190
  C        1.5994260     1.0858870    -0.0069900
  C       -0.8168260     1.2117300     0.0064260
  C        0.4233030     1.8430470     0.0013400
  C        2.8326460    -1.1226230     0.0134670
  C       -2.1766910    -0.8792860    -0.0025100
  H        0.2498670    -2.0299540    -0.0200910
  H        2.5637200     1.5920050    -0.0150810
  H       -1.7471690     1.7737230     0.0102860
  H        2.6825510    -2.1081700    -0.4357140
  H        3.6321630    -0.6167660    -0.5349600
  H        3.2102151    -1.2874098     1.1354805
  H        0.4815460     2.9289630     0.0030700
  H       -2.1255320    -1.9885980    -0.0123860
units angstrom
no_reorient  #important for SAPT in psi4, default
symmetry c1  #important for SAPT in psi4, default
}

set PROPERTIES_ORIGIN ["COM"]
properties('MP2/aug-cc-pvtz', properties = ['dipole'])
--------------------------------------------------------------------------

    Molecular point group: c1
  Charge       = 0
  Multiplicity = 1
  Basis Set: AUG-CC-PVTZ
    Blend: AUG-CC-PVTZ
  Basis Set: (AUG-CC-PVTZ AUX)
    Blend: AUG-CC-PVTZ-JKFIT

    Orbital Energies [Eh]
    ---------------------

    Doubly Occupied:

       1A    -20.554385     2A    -11.336947     3A    -11.259985
       4A    -11.257496     5A    -11.254542     6A    -11.253107
       7A    -11.250944     8A    -11.249680     9A    -11.249433
      10A     -1.379046    11A     -1.173257    12A     -1.064707
      13A     -1.043216    14A     -0.943087    15A     -0.892045
      16A     -0.834413    17A     -0.771514    18A     -0.709058
      19A     -0.679451    20A     -0.650598    21A     -0.619603
      22A     -0.609377    23A     -0.584570    24A     -0.574507
      25A     -0.554131    26A     -0.542155    27A     -0.520474
      28A     -0.503049    29A     -0.487225    30A     -0.428704
      31A     -0.353938    32A     -0.339132

  @DF-RHF Final Energy:  -382.59128965885623

   => Energetics <=

    Nuclear Repulsion Energy =            395.8214472051738539
    One-Electron Energy =               -1302.9779224544813587
    Two-Electron Energy =                 524.5651855904512786
    Total Energy =                       -382.5912896588562262
  Basis Set: (AUG-CC-PVTZ AUX)
    Blend: AUG-CC-PVTZ-RI
    Molecular point group: c1

    Geometry (in Angstrom), charge = 0, multiplicity = 1:

       Center              X                  Y                   Z               Mass
    ------------   -----------------  -----------------  -----------------  -----------------
         O           -3.188956989757    -0.320053685612     0.006269997497    15.994914619570
         C            1.634390010243    -0.329130685612    -0.015864002503    12.000000000000
         C            0.383221010243    -0.954894685612    -0.010547002503    12.000000000000
         C           -0.795949989757    -0.202157685612    -0.001903002503    12.000000000000
         C            1.672704010243     1.071755314388    -0.007474002503    12.000000000000
         C           -0.743547989757     1.197598314388     0.005941997497    12.000000000000
         C            0.496581010243     1.828915314388     0.000855997497    12.000000000000
         C            2.905924010243    -1.136754685612     0.012982997497    12.000000000000
         C           -2.103412989757    -0.893417685612    -0.002994002503    12.000000000000
         H            0.323145010243    -2.044085685612    -0.020575002503     1.007825032230
         H            2.636998010243     1.577873314388    -0.015565002503     1.007825032230
         H           -1.673890989757     1.759591314388     0.009801997497     1.007825032230
         H            2.755829010243    -2.122301685612    -0.436198002503     1.007825032230
         H            3.705441010243    -0.630897685612    -0.535444002503     1.007825032230
         H            3.283493110243    -1.301541485612     1.134996497497     1.007825032230
         H            0.554824010243     2.914831314388     0.002585997497     1.007825032230
         H           -2.052253989757    -2.002729685612    -0.012870002503     1.007825032230

  Basis Set: AUG-CC-PVTZ
    Blend: AUG-CC-PVTZ
  Basis Set: (AUG-CC-PVTZ AUX)
    Blend: AUG-CC-PVTZ-JKFIT
	 Reference Energy          =    -382.5912896588562262 [Eh]
	 Singles Energy            =      -0.0000000000000000 [Eh]
	 Same-Spin Energy          =      -0.4081079510838064 [Eh]
	 Opposite-Spin Energy      =      -1.2870576817084927 [Eh]
	 Correlation Energy        =      -1.6951656327922990 [Eh]
	 Total Energy              =    -384.2864552916485081 [Eh]

	 ================> DF-SCS-MP2 Energies <==================
	-----------------------------------------------------------
	 SCS Same-Spin Scale       =       0.3333333333333333 [-]
	 SCS Opposite-Spin Scale   =       1.2000000000000000 [-]
	 SCS Same-Spin Energy      =      -0.1360359836946021 [Eh]
	 SCS Opposite-Spin Energy  =      -1.5444692180501911 [Eh]
	 SCS Correlation Energy    =      -1.6805052017447932 [Eh]
	 SCS Total Energy          =    -384.2717948606010054 [Eh]
	-----------------------------------------------------------

  Dipole Moment: [D]
     X:     3.6415      Y:    -0.4716      Z:    -0.0145     Total:     3.6719

*** Psi4 exiting successfully. Buy a developer a beer!
