                               Psi4 1.3.2 release

  ==> Input File <==

--------------------------------------------------------------------------
#psi4
#
memory 32 gb

molecule  {
0 1
  O       -3.2622350    -0.3059220     0.0067540
  C        1.5611120    -0.3149990    -0.0153800
  C        0.3099430    -0.9407630    -0.0100630
  C       -0.8692280    -0.1880260    -0.0014190
  C        1.5994260     1.0858870    -0.0069900
  C       -0.8168260     1.2117300     0.0064260
  C        0.4233030     1.8430470     0.0013400
  C        2.8326460    -1.1226230     0.0134670
  C       -1.9998817    -0.7858063    -0.0023625
  H        0.2498670    -2.0299540    -0.0200910
  H        2.5637200     1.5920050    -0.0150810
  H       -1.7471690     1.7737230     0.0102860
  H        2.6825510    -2.1081700    -0.4357140
  H        3.6321630    -0.6167660    -0.5349600
  H        3.1786260    -1.2736230     1.0416080
  H        0.4815460     2.9289630     0.0030700
  H       -2.1255320    -1.9885980    -0.0123860
units angstrom
no_reorient  #important for SAPT in psi4, default
symmetry c1  #important for SAPT in psi4, default
}

set PROPERTIES_ORIGIN ["COM"]
properties('MP2/aug-cc-pvtz', properties = ['dipole'])
--------------------------------------------------------------------------

    Molecular point group: c1
  Charge       = 0
  Multiplicity = 1
  Basis Set: AUG-CC-PVTZ
    Blend: AUG-CC-PVTZ
  Basis Set: (AUG-CC-PVTZ AUX)
    Blend: AUG-CC-PVTZ-JKFIT

    Orbital Energies [Eh]
    ---------------------

    Doubly Occupied:

       1A    -20.526468     2A    -11.328753     3A    -11.275382
       4A    -11.274712     5A    -11.268649     6A    -11.268441
       7A    -11.259698     8A    -11.245948     9A    -11.242948
      10A     -1.293440    11A     -1.191951    12A     -1.096737
      13A     -1.063312    14A     -0.960825    15A     -0.925024
      16A     -0.847075    17A     -0.765667    18A     -0.712264
      19A     -0.689379    20A     -0.655318    21A     -0.616549
      22A     -0.600111    23A     -0.595096    24A     -0.573555
      25A     -0.549675    26A     -0.546532    27A     -0.528434
      28A     -0.508003    29A     -0.463346    30A     -0.409017
      31A     -0.360999    32A     -0.348032

  @DF-RHF Final Energy:  -382.52614232147852

   => Energetics <=

    Nuclear Repulsion Energy =            398.3611413727479658
    One-Electron Energy =               -1307.7918872156049019
    Two-Electron Energy =                 526.9046035213783625
    Total Energy =                       -382.5261423214785736
  Basis Set: (AUG-CC-PVTZ AUX)
    Blend: AUG-CC-PVTZ-RI
    Molecular point group: c1

    Geometry (in Angstrom), charge = 0, multiplicity = 1:

       Center              X                  Y                   Z               Mass
    ------------   -----------------  -----------------  -----------------  -----------------
         O           -3.206364274227    -0.329512910912     0.007043269003    15.994914619570
         C            1.616982725773    -0.338589910912    -0.015090730997    12.000000000000
         C            0.365813725773    -0.964353910912    -0.009773730997    12.000000000000
         C           -0.813357274227    -0.211616910912    -0.001129730997    12.000000000000
         C            1.655296725773     1.062296089088    -0.006700730997    12.000000000000
         C           -0.760955274227     1.188139089088     0.006715269003    12.000000000000
         C            0.479173725773     1.819456089088     0.001629269003    12.000000000000
         C            2.888516725773    -1.146213910912     0.013756269003    12.000000000000
         C           -1.944010974227    -0.809397210912    -0.002073230997    12.000000000000
         H            0.305737725773    -2.053544910912    -0.019801730997     1.007825032230
         H            2.619590725773     1.568414089088    -0.014791730997     1.007825032230
         H           -1.691298274227     1.750132089088     0.010575269003     1.007825032230
         H            2.738421725773    -2.131760910912    -0.435424730997     1.007825032230
         H            3.688033725773    -0.640356910912    -0.534670730997     1.007825032230
         H            3.234496725773    -1.297213910912     1.041897269003     1.007825032230
         H            0.537416725773     2.905372089088     0.003359269003     1.007825032230
         H           -2.069661274227    -2.012188910912    -0.012096730997     1.007825032230

  Basis Set: AUG-CC-PVTZ
    Blend: AUG-CC-PVTZ
  Basis Set: (AUG-CC-PVTZ AUX)
    Blend: AUG-CC-PVTZ-JKFIT
	 Reference Energy          =    -382.5261423214785168 [Eh]
	 Singles Energy            =      -0.0000000000000000 [Eh]
	 Same-Spin Energy          =      -0.4142977640985041 [Eh]
	 Opposite-Spin Energy      =      -1.2979660967970394 [Eh]
	 Correlation Energy        =      -1.7122638608955434 [Eh]
	 Total Energy              =    -384.2384061823740353 [Eh]

	 ================> DF-SCS-MP2 Energies <==================
	-----------------------------------------------------------
	 SCS Same-Spin Scale       =       0.3333333333333333 [-]
	 SCS Opposite-Spin Scale   =       1.2000000000000000 [-]
	 SCS Same-Spin Energy      =      -0.1380992546995014 [Eh]
	 SCS Opposite-Spin Energy  =      -1.5575593161564474 [Eh]
	 SCS Correlation Energy    =      -1.6956585708559486 [Eh]
	 SCS Total Energy          =    -384.2218008923344428 [Eh]
	-----------------------------------------------------------

  Dipole Moment: [D]
     X:     5.0028      Y:     0.0570      Z:     0.0226     Total:     5.0032

*** Psi4 exiting successfully. Buy a developer a beer!
