                               Psi4 1.3.2 release

  ==> Input File <==

--------------------------------------------------------------------------
#psi4
#
memory 32 gb

molecule  {
0 1
  O       -3.2622350    -0.3059220     0.0067540
  C        1.4937156    -0.4390176    -0.0857112
  C        0.3099430    -0.9407630    -0.0100630
  C       -0.8692280    -0.1880260    -0.0014190
  C        1.5994260     1.0858870    -0.0069900
  C       -0.8168260     1.2117300     0.0064260
  C        0.4233030     1.8430470     0.0013400
  C        2.8326460    -1.1226230     0.0134670
  C       -2.1766910    -0.8792860    -0.0025100
  H        0.2498670    -2.0299540    -0.0200910
  H        2.5637200     1.5920050    -0.0150810
  H       -1.7471690     1.7737230     0.0102860
  H        2.6825510    -2.1081700    -0.4357140
  H        3.6321630    -0.6167660    -0.5349600
  H        3.1786260    -1.2736230     1.0416080
  H        0.4815460     2.9289630     0.0030700
  H       -2.1255320    -1.9885980    -0.0123860
units angstrom
no_reorient  #important for SAPT in psi4, default
symmetry c1  #important for SAPT in psi4, default
}

set PROPERTIES_ORIGIN ["COM"]
properties('MP2/aug-cc-pvtz', properties = ['dipole'])
--------------------------------------------------------------------------

    Molecular point group: c1
  Charge       = 0
  Multiplicity = 1
  Basis Set: AUG-CC-PVTZ
    Blend: AUG-CC-PVTZ
  Basis Set: (AUG-CC-PVTZ AUX)
    Blend: AUG-CC-PVTZ-JKFIT

    Orbital Energies [Eh]
    ---------------------

    Doubly Occupied:

       1A    -20.551413     2A    -11.335138     3A    -11.267400
       4A    -11.256982     5A    -11.255812     6A    -11.250818
       7A    -11.249609     8A    -11.240744     9A    -11.238633
      10A     -1.376596    11A     -1.175144    12A     -1.068084
      13A     -1.042080    14A     -0.952271    15A     -0.897172
      16A     -0.821040    17A     -0.776034    18A     -0.710927
      19A     -0.677253    20A     -0.648315    21A     -0.618313
      22A     -0.606900    23A     -0.594429    24A     -0.586614
      25A     -0.552369    26A     -0.543849    27A     -0.536305
      28A     -0.489165    29A     -0.472615    30A     -0.427410
      31A     -0.367316    32A     -0.331252

  @DF-RHF Final Energy:  -382.57166446672966

   => Energetics <=

    Nuclear Repulsion Energy =            396.3403287243626778
    One-Electron Energy =               -1303.9879835117876610
    Two-Electron Energy =                 525.0759903206952686
    Total Energy =                       -382.5716644667296578
  Basis Set: (AUG-CC-PVTZ AUX)
    Blend: AUG-CC-PVTZ-RI
    Molecular point group: c1

    Geometry (in Angstrom), charge = 0, multiplicity = 1:

       Center              X                  Y                   Z               Mass
    ------------   -----------------  -----------------  -----------------  -----------------
         O           -3.181955403170    -0.307773500408     0.014087762643    15.994914619570
         C            1.573995196830    -0.440869100408    -0.078377437357    12.000000000000
         C            0.390222596830    -0.942614500408    -0.002729237357    12.000000000000
         C           -0.788948403170    -0.189877500408     0.005914762643    12.000000000000
         C            1.679705596830     1.084035499592     0.000343762643    12.000000000000
         C           -0.736546403170     1.209878499592     0.013759762643    12.000000000000
         C            0.503582596830     1.841195499592     0.008673762643    12.000000000000
         C            2.912925596830    -1.124474500408     0.020800762643    12.000000000000
         C           -2.096411403170    -0.881137500408     0.004823762643    12.000000000000
         H            0.330146596830    -2.031805500408    -0.012757237357     1.007825032230
         H            2.643999596830     1.590153499592    -0.007747237357     1.007825032230
         H           -1.666889403170     1.771871499592     0.017619762643     1.007825032230
         H            2.762830596830    -2.110021500408    -0.428380237357     1.007825032230
         H            3.712442596830    -0.618617500408    -0.527626237357     1.007825032230
         H            3.258905596830    -1.275474500408     1.048941762643     1.007825032230
         H            0.561825596830     2.927111499592     0.010403762643     1.007825032230
         H           -2.045252403170    -1.990449500408    -0.005052237357     1.007825032230

  Basis Set: AUG-CC-PVTZ
    Blend: AUG-CC-PVTZ
  Basis Set: (AUG-CC-PVTZ AUX)
    Blend: AUG-CC-PVTZ-JKFIT
	 Reference Energy          =    -382.5716644667296578 [Eh]
	 Singles Energy            =      -0.0000000000000000 [Eh]
	 Same-Spin Energy          =      -0.4078577042845519 [Eh]
	 Opposite-Spin Energy      =      -1.2875564050568487 [Eh]
	 Correlation Energy        =      -1.6954141093414006 [Eh]
	 Total Energy              =    -384.2670785760710714 [Eh]

	 ================> DF-SCS-MP2 Energies <==================
	-----------------------------------------------------------
	 SCS Same-Spin Scale       =       0.3333333333333333 [-]
	 SCS Opposite-Spin Scale   =       1.2000000000000000 [-]
	 SCS Same-Spin Energy      =      -0.1359525680948506 [Eh]
	 SCS Opposite-Spin Energy  =      -1.5450676860682184 [Eh]
	 SCS Correlation Energy    =      -1.6810202541630690 [Eh]
	 SCS Total Energy          =    -384.2526847208927165 [Eh]
	-----------------------------------------------------------

  Dipole Moment: [D]
     X:     3.6984      Y:    -0.3984      Z:     0.0510     Total:     3.7201

*** Psi4 exiting successfully. Buy a developer a beer!
