                               Psi4 1.3.2 release

  ==> Input File <==

--------------------------------------------------------------------------
#psi4
#
memory 32 gb

molecule  {
0 1
  O       -3.2622350    -0.3059220     0.0067540
  C        1.6138345    -0.2371557     0.0317308
  C        0.3099430    -0.9407630    -0.0100630
  C       -0.8692280    -0.1880260    -0.0014190
  C        1.5994260     1.0858870    -0.0069900
  C       -0.8168260     1.2117300     0.0064260
  C        0.4233030     1.8430470     0.0013400
  C        2.8326460    -1.1226230     0.0134670
  C       -2.1766910    -0.8792860    -0.0025100
  H        0.2498670    -2.0299540    -0.0200910
  H        2.5637200     1.5920050    -0.0150810
  H       -1.7471690     1.7737230     0.0102860
  H        2.6825510    -2.1081700    -0.4357140
  H        3.6321630    -0.6167660    -0.5349600
  H        3.1786260    -1.2736230     1.0416080
  H        0.4815460     2.9289630     0.0030700
  H       -2.1255320    -1.9885980    -0.0123860
units angstrom
no_reorient  #important for SAPT in psi4, default
symmetry c1  #important for SAPT in psi4, default
}

set PROPERTIES_ORIGIN ["COM"]
properties('MP2/aug-cc-pvtz', properties = ['dipole'])
--------------------------------------------------------------------------

    Molecular point group: c1
  Charge       = 0
  Multiplicity = 1
  Basis Set: AUG-CC-PVTZ
    Blend: AUG-CC-PVTZ
  Basis Set: (AUG-CC-PVTZ AUX)
    Blend: AUG-CC-PVTZ-JKFIT

    Orbital Energies [Eh]
    ---------------------

    Doubly Occupied:

       1A    -20.555180     2A    -11.337196     3A    -11.266760
       4A    -11.258971     5A    -11.253460     6A    -11.249780
       7A    -11.247356     8A    -11.242839     9A    -11.238637
      10A     -1.379671    11A     -1.173189    12A     -1.071400
      13A     -1.038908    14A     -0.949681    15A     -0.886522
      16A     -0.843300    17A     -0.768148    18A     -0.708049
      19A     -0.678758    20A     -0.650319    21A     -0.619649
      22A     -0.613682    23A     -0.591543    24A     -0.581174
      25A     -0.553512    26A     -0.544606    27A     -0.520098
      28A     -0.497627    29A     -0.489869    30A     -0.428003
      31A     -0.359133    32A     -0.335731

  @DF-RHF Final Energy:  -382.58688799644369

   => Energetics <=

    Nuclear Repulsion Energy =            396.0977837855871257
    One-Electron Energy =               -1303.5038431919688264
    Two-Electron Energy =                 524.8191714099380079
    Total Energy =                       -382.5868879964436928
  Basis Set: (AUG-CC-PVTZ AUX)
    Blend: AUG-CC-PVTZ-RI
    Molecular point group: c1

    Geometry (in Angstrom), charge = 0, multiplicity = 1:

       Center              X                  Y                   Z               Mass
    ------------   -----------------  -----------------  -----------------  -----------------
         O           -3.193961538742    -0.327950019991     0.002349188831    15.994914619570
         C            1.682107961258    -0.259183719991     0.027325988831    12.000000000000
         C            0.378216461258    -0.962791019991    -0.014467811169    12.000000000000
         C           -0.800954538742    -0.210054019991    -0.005823811169    12.000000000000
         C            1.667699461258     1.063858980009    -0.011394811169    12.000000000000
         C           -0.748552538742     1.189701980009     0.002021188831    12.000000000000
         C            0.491576461258     1.821018980009    -0.003064811169    12.000000000000
         C            2.900919461258    -1.144651019991     0.009062188831    12.000000000000
         C           -2.108417538742    -0.901314019991    -0.006914811169    12.000000000000
         H            0.318140461258    -2.051982019991    -0.024495811169     1.007825032230
         H            2.631993461258     1.569976980009    -0.019485811169     1.007825032230
         H           -1.678895538742     1.751694980009     0.005881188831     1.007825032230
         H            2.750824461258    -2.130198019991    -0.440118811169     1.007825032230
         H            3.700436461258    -0.638794019991    -0.539364811169     1.007825032230
         H            3.246899461258    -1.295651019991     1.037203188831     1.007825032230
         H            0.549819461258     2.906934980009    -0.001334811169     1.007825032230
         H           -2.057258538742    -2.010626019991    -0.016790811169     1.007825032230

  Basis Set: AUG-CC-PVTZ
    Blend: AUG-CC-PVTZ
  Basis Set: (AUG-CC-PVTZ AUX)
    Blend: AUG-CC-PVTZ-JKFIT
	 Reference Energy          =    -382.5868879964436928 [Eh]
	 Singles Energy            =      -0.0000000000000000 [Eh]
	 Same-Spin Energy          =      -0.4076517566620644 [Eh]
	 Opposite-Spin Energy      =      -1.2866631650687945 [Eh]
	 Correlation Energy        =      -1.6943149217308591 [Eh]
	 Total Energy              =    -384.2812029181745288 [Eh]

	 ================> DF-SCS-MP2 Energies <==================
	-----------------------------------------------------------
	 SCS Same-Spin Scale       =       0.3333333333333333 [-]
	 SCS Opposite-Spin Scale   =       1.2000000000000000 [-]
	 SCS Same-Spin Energy      =      -0.1358839188873548 [Eh]
	 SCS Opposite-Spin Energy  =      -1.5439957980825534 [Eh]
	 SCS Correlation Energy    =      -1.6798797169699082 [Eh]
	 SCS Total Energy          =    -384.2667677134136284 [Eh]
	-----------------------------------------------------------

  Dipole Moment: [D]
     X:     3.6640      Y:    -0.5651      Z:     0.0022     Total:     3.7074

*** Psi4 exiting successfully. Buy a developer a beer!
