                               Psi4 1.4a3.dev225

  ==> Input File <==

--------------------------------------------------------------------------
#psi4
#
memory 32 gb

molecule  {
0 1
  O       -3.2622200    -0.3059070     0.0064780
  C        1.5611130    -0.3149950    -0.0153890
  C        0.3099490    -0.9407980    -0.0100380
  C       -0.8691990    -0.1880560    -0.0012000
  C        1.5993970     1.0858760    -0.0071180
  C       -0.8168460     1.2117110     0.0065060
  C        0.4232600     1.8430520     0.0014160
  C        2.8326670    -1.1225680     0.0134080
  C       -2.1324871    -0.8559202    -0.0023594
  H        0.2498950    -2.0299870    -0.0199420
  H        2.5636680     1.5920400    -0.0152260
  H       -1.7472230     1.7736450     0.0105140
  H        2.6826800    -2.1080670    -0.4359240
  H        3.6322070    -0.6166190    -0.5349020
  H        3.1786010    -1.2737110     1.0415460
  H        0.4815700     2.9289630     0.0030200
  H       -2.1255450    -1.9886100    -0.0120270
units angstrom
no_reorient  #important for SAPT in psi4, default
symmetry c1  #important for SAPT in psi4, default
}

set PROPERTIES_ORIGIN ["COM"]
properties('MP2/aug-cc-pvtz', properties = ['dipole'])
--------------------------------------------------------------------------

    Molecular point group: c1
  Charge       = 0
  Multiplicity = 1
  Basis Set: AUG-CC-PVTZ
    Blend: AUG-CC-PVTZ
  Basis Set: (AUG-CC-PVTZ AUX)
    Blend: AUG-CC-PVTZ-JKFIT

    Orbital Energies [Eh]
    ---------------------

    Doubly Occupied:

       1A    -20.548580     2A    -11.335868     3A    -11.261831
       4A    -11.260631     5A    -11.258275     6A    -11.254347
       7A    -11.251920     8A    -11.251435     9A    -11.239684
      10A     -1.357135    11A     -1.177252    12A     -1.071655
      13A     -1.048456    14A     -0.951311    15A     -0.899377
      16A     -0.837191    17A     -0.769679    18A     -0.710142
      19A     -0.680483    20A     -0.652306    21A     -0.611557
      22A     -0.605443    23A     -0.592792    24A     -0.586078
      25A     -0.554603    26A     -0.541278    27A     -0.521298
      28A     -0.505147    29A     -0.483814    30A     -0.427733
      31A     -0.355943    32A     -0.342002

  @DF-RHF Final Energy:  -382.59071155080687

   => Energetics <=

    Nuclear Repulsion Energy =            396.6854041560585529
    One-Electron Energy =               -1304.6617375420289591
    Two-Electron Energy =                 525.3856218351635334
    Total Energy =                       -382.5907115508068728
  Basis Set: (AUG-CC-PVTZ AUX)
    Blend: AUG-CC-PVTZ-RI
    Molecular point group: c1

    Geometry (in Angstrom), charge = 0, multiplicity = 1:

       Center              X                  Y                   Z               Mass
    ------------   -----------------  -----------------  -----------------  -----------------
         O           -3.193094266874    -0.322489400881     0.006780594596    15.994914619570
         C            1.630238733126    -0.331577400881    -0.015086405404    12.000000000000
         C            0.379074733126    -0.957380400881    -0.009735405404    12.000000000000
         C           -0.800073266874    -0.204638400881    -0.000897405404    12.000000000000
         C            1.668522733126     1.069293599119    -0.006815405404    12.000000000000
         C           -0.747720266874     1.195128599119     0.006808594596    12.000000000000
         C            0.492385733126     1.826469599119     0.001718594596    12.000000000000
         C            2.901792733126    -1.139150400881     0.013710594596    12.000000000000
         C           -2.063361366874    -0.872502600881    -0.002056805404    12.000000000000
         H            0.319020733126    -2.046569400881    -0.019639405404     1.007825032230
         H            2.632793733126     1.575457599119    -0.014923405404     1.007825032230
         H           -1.678097266874     1.757062599119     0.010816594596     1.007825032230
         H            2.751805733126    -2.124649400881    -0.435621405404     1.007825032230
         H            3.701332733126    -0.633201400881    -0.534599405404     1.007825032230
         H            3.247726733126    -1.290293400881     1.041848594596     1.007825032230
         H            0.550695733126     2.912380599119     0.003322594596     1.007825032230
         H           -2.056419266874    -2.005192400881    -0.011724405404     1.007825032230

  Basis Set: AUG-CC-PVTZ
    Blend: AUG-CC-PVTZ
  Basis Set: (AUG-CC-PVTZ AUX)
    Blend: AUG-CC-PVTZ-JKFIT
	 Reference Energy          =    -382.5907115508068728 [Eh]
	 Singles Energy            =      -0.0000000000000000 [Eh]
	 Same-Spin Energy          =      -0.4093964986435198 [Eh]
	 Opposite-Spin Energy      =      -1.2887763468803941 [Eh]
	 Correlation Energy        =      -1.6981728455239140 [Eh]
	 Total Energy              =    -384.2888843963307863 [Eh]

	 ================> DF-SCS-MP2 Energies <==================
	-----------------------------------------------------------
	 SCS Same-Spin Scale       =       0.3333333333333333 [-]
	 SCS Opposite-Spin Scale   =       1.2000000000000000 [-]
	 SCS Same-Spin Energy      =      -0.1364654995478399 [Eh]
	 SCS Opposite-Spin Energy  =      -1.5465316162564728 [Eh]
	 SCS Correlation Energy    =      -1.6829971158043127 [Eh]
	 SCS Total Energy          =    -384.2737086666111850 [Eh]
	-----------------------------------------------------------

  Dipole Moment: [D]
     X:     4.0396      Y:    -0.3534      Z:     0.0228     Total:     4.0551

*** Psi4 exiting successfully. Buy a developer a beer!
