                               Psi4 1.3.2 release

  ==> Input File <==

--------------------------------------------------------------------------
#psi4
#
memory 32 gb

molecule  {
0 1
  O       -3.2622350    -0.3059220     0.0067540
  C        1.5611120    -0.3149990    -0.0153800
  C        0.3099430    -0.9407630    -0.0100630
  C       -0.8692280    -0.1880260    -0.0014190
  C        1.5994260     1.0858870    -0.0069900
  C       -0.8168260     1.2117300     0.0064260
  C        0.4233030     1.8430470     0.0013400
  C        2.8326460    -1.1226230     0.0134670
  C       -2.3535335    -0.7858811    -0.0010008
  H        0.2498670    -2.0299540    -0.0200910
  H        2.5637200     1.5920050    -0.0150810
  H       -1.7471690     1.7737230     0.0102860
  H        2.6825510    -2.1081700    -0.4357140
  H        3.6321630    -0.6167660    -0.5349600
  H        3.1786260    -1.2736230     1.0416080
  H        0.4815460     2.9289630     0.0030700
  H       -2.1255320    -1.9885980    -0.0123860
units angstrom
no_reorient  #important for SAPT in psi4, default
symmetry c1  #important for SAPT in psi4, default
}

set PROPERTIES_ORIGIN ["COM"]
properties('MP2/aug-cc-pvtz', properties = ['dipole'])
--------------------------------------------------------------------------

    Molecular point group: c1
  Charge       = 0
  Multiplicity = 1
  Basis Set: AUG-CC-PVTZ
    Blend: AUG-CC-PVTZ
  Basis Set: (AUG-CC-PVTZ AUX)
    Blend: AUG-CC-PVTZ-JKFIT

    Orbital Energies [Eh]
    ---------------------

    Doubly Occupied:

       1A    -20.576861     2A    -11.332054     3A    -11.253511
       4A    -11.247585     5A    -11.245846     6A    -11.244028
       7A    -11.242815     8A    -11.239502     9A    -11.232630
      10A     -1.546422    11A     -1.162423    12A     -1.055602
      13A     -1.025829    14A     -0.942310    15A     -0.860545
      16A     -0.821656    17A     -0.766188    18A     -0.722753
      19A     -0.706846    20A     -0.669940    21A     -0.644648
      22A     -0.637105    23A     -0.609846    24A     -0.584260
      25A     -0.576875    26A     -0.547192    27A     -0.520426
      28A     -0.496494    29A     -0.495911    30A     -0.383761
      31A     -0.346154    32A     -0.333902

  @DF-RHF Final Energy:  -382.52708549452024

   => Energetics <=

    Nuclear Repulsion Energy =            397.7452633285042793
    One-Electron Energy =               -1306.4008555189475373
    Two-Electron Energy =                 526.1285066959230790
    Total Energy =                       -382.5270854945201791
  Basis Set: (AUG-CC-PVTZ AUX)
    Blend: AUG-CC-PVTZ-RI
    Molecular point group: c1

    Geometry (in Angstrom), charge = 0, multiplicity = 1:

       Center              X                  Y                   Z               Mass
    ------------   -----------------  -----------------  -----------------  -----------------
         O           -3.171016036307    -0.329505434495     0.006907164236    15.994914619570
         C            1.652330963693    -0.338582434495    -0.015226835764    12.000000000000
         C            0.401161963693    -0.964346434495    -0.009909835764    12.000000000000
         C           -0.778009036307    -0.211609434495    -0.001265835764    12.000000000000
         C            1.690644963693     1.062303565505    -0.006836835764    12.000000000000
         C           -0.725607036307     1.188146565505     0.006579164236    12.000000000000
         C            0.514521963693     1.819463565505     0.001493164236    12.000000000000
         C            2.923864963693    -1.146206434495     0.013620164236    12.000000000000
         C           -2.262314536307    -0.809464534495    -0.000847635764    12.000000000000
         H            0.341085963693    -2.053537434495    -0.019937835764     1.007825032230
         H            2.654938963693     1.568421565505    -0.014927835764     1.007825032230
         H           -1.655950036307     1.750139565505     0.010439164236     1.007825032230
         H            2.773769963693    -2.131753434495    -0.435560835764     1.007825032230
         H            3.723381963693    -0.640349434495    -0.534806835764     1.007825032230
         H            3.269844963693    -1.297206434495     1.041761164236     1.007825032230
         H            0.572764963693     2.905379565505     0.003223164236     1.007825032230
         H           -2.034313036307    -2.012181434495    -0.012232835764     1.007825032230

  Basis Set: AUG-CC-PVTZ
    Blend: AUG-CC-PVTZ
  Basis Set: (AUG-CC-PVTZ AUX)
    Blend: AUG-CC-PVTZ-JKFIT
	 Reference Energy          =    -382.5270854945202359 [Eh]
	 Singles Energy            =      -0.0000000000000000 [Eh]
	 Same-Spin Energy          =      -0.4039826870592576 [Eh]
	 Opposite-Spin Energy      =      -1.2763331917359046 [Eh]
	 Correlation Energy        =      -1.6803158787951622 [Eh]
	 Total Energy              =    -384.2074013733154061 [Eh]

	 ================> DF-SCS-MP2 Energies <==================
	-----------------------------------------------------------
	 SCS Same-Spin Scale       =       0.3333333333333333 [-]
	 SCS Opposite-Spin Scale   =       1.2000000000000000 [-]
	 SCS Same-Spin Energy      =      -0.1346608956864192 [Eh]
	 SCS Opposite-Spin Energy  =      -1.5315998300830855 [Eh]
	 SCS Correlation Energy    =      -1.6662607257695048 [Eh]
	 SCS Total Energy          =    -384.1933462202897545 [Eh]
	-----------------------------------------------------------

  Dipole Moment: [D]
     X:     2.2538      Y:    -0.0960      Z:     0.0309     Total:     2.2561

*** Psi4 exiting successfully. Buy a developer a beer!
