                               Psi4 1.3.2 release

  ==> Input File <==

--------------------------------------------------------------------------
#psi4
#
memory 32 gb

molecule  {
0 1
  O       -3.2720772    -0.3249544     0.0066232
  C        1.5611120    -0.3149990    -0.0153800
  C        0.3099430    -0.9407630    -0.0100630
  C       -0.8692280    -0.1880260    -0.0014190
  C        1.5994260     1.0858870    -0.0069900
  C       -0.8168260     1.2117300     0.0064260
  C        0.4233030     1.8430470     0.0013400
  C        2.8326460    -1.1226230     0.0134670
  C       -2.1766910    -0.8792860    -0.0025100
  H        0.2498670    -2.0299540    -0.0200910
  H        2.5637200     1.5920050    -0.0150810
  H       -1.7471690     1.7737230     0.0102860
  H        2.6825510    -2.1081700    -0.4357140
  H        3.6321630    -0.6167660    -0.5349600
  H        3.1786260    -1.2736230     1.0416080
  H        0.4815460     2.9289630     0.0030700
  H       -2.1255320    -1.9885980    -0.0123860
units angstrom
no_reorient  #important for SAPT in psi4, default
symmetry c1  #important for SAPT in psi4, default
}

set PROPERTIES_ORIGIN ["COM"]
properties('MP2/aug-cc-pvtz', properties = ['dipole'])
--------------------------------------------------------------------------

    Molecular point group: c1
  Charge       = 0
  Multiplicity = 1
  Basis Set: AUG-CC-PVTZ
    Blend: AUG-CC-PVTZ
  Basis Set: (AUG-CC-PVTZ AUX)
    Blend: AUG-CC-PVTZ-JKFIT

    Orbital Energies [Eh]
    ---------------------

    Doubly Occupied:

       1A    -20.554019     2A    -11.336411     3A    -11.259604
       4A    -11.257370     5A    -11.254420     6A    -11.253402
       7A    -11.250996     8A    -11.249713     9A    -11.238096
      10A     -1.378448    11A     -1.173391    12A     -1.066266
      13A     -1.043368    14A     -0.948931    15A     -0.891963
      16A     -0.834871    17A     -0.772350    18A     -0.709236
      19A     -0.679025    20A     -0.650666    21A     -0.618905
      22A     -0.609302    23A     -0.591010    24A     -0.583870
      25A     -0.553232    26A     -0.544296    27A     -0.520493
      28A     -0.503182    29A     -0.489459    30A     -0.427932
      31A     -0.353994    32A     -0.340080

  @DF-RHF Final Energy:  -382.59768768255918

   => Energetics <=

    Nuclear Repulsion Energy =            396.0453948854217856
    One-Electron Energy =               -1303.4095648467250612
    Two-Electron Energy =                 524.7664822787440926
    Total Energy =                       -382.5976876825592399
  Basis Set: (AUG-CC-PVTZ AUX)
    Blend: AUG-CC-PVTZ-RI
    Molecular point group: c1

    Geometry (in Angstrom), charge = 0, multiplicity = 1:

       Center              X                  Y                   Z               Mass
    ------------   -----------------  -----------------  -----------------  -----------------
         O           -3.197222766701    -0.336666187689     0.006944638041    15.994914619570
         C            1.635966433299    -0.326710787689    -0.015058561959    12.000000000000
         C            0.384797433299    -0.952474787689    -0.009741561959    12.000000000000
         C           -0.794373566701    -0.199737787689    -0.001097561959    12.000000000000
         C            1.674280433299     1.074175212311    -0.006668561959    12.000000000000
         C           -0.741971566701     1.200018212311     0.006747438041    12.000000000000
         C            0.498157433299     1.831335212311     0.001661438041    12.000000000000
         C            2.907500433299    -1.134334787689     0.013788438041    12.000000000000
         C           -2.101836566701    -0.890997787689    -0.002188561959    12.000000000000
         H            0.324721433299    -2.041665787689    -0.019769561959     1.007825032230
         H            2.638574433299     1.580293212311    -0.014759561959     1.007825032230
         H           -1.672314566701     1.762011212311     0.010607438041     1.007825032230
         H            2.757405433299    -2.119881787689    -0.435392561959     1.007825032230
         H            3.707017433299    -0.628477787689    -0.534638561959     1.007825032230
         H            3.253480433299    -1.285334787689     1.041929438041     1.007825032230
         H            0.556400433299     2.917251212311     0.003391438041     1.007825032230
         H           -2.050677566701    -2.000309787689    -0.012064561959     1.007825032230

  Basis Set: AUG-CC-PVTZ
    Blend: AUG-CC-PVTZ
  Basis Set: (AUG-CC-PVTZ AUX)
    Blend: AUG-CC-PVTZ-JKFIT
	 Reference Energy          =    -382.5976876825591830 [Eh]
	 Singles Energy            =      -0.0000000000000000 [Eh]
	 Same-Spin Energy          =      -0.4080968269107798 [Eh]
	 Opposite-Spin Energy      =      -1.2863870159656399 [Eh]
	 Correlation Energy        =      -1.6944838428764197 [Eh]
	 Total Energy              =    -384.2921715254356059 [Eh]

	 ================> DF-SCS-MP2 Energies <==================
	-----------------------------------------------------------
	 SCS Same-Spin Scale       =       0.3333333333333333 [-]
	 SCS Opposite-Spin Scale   =       1.2000000000000000 [-]
	 SCS Same-Spin Energy      =      -0.1360322756369266 [Eh]
	 SCS Opposite-Spin Energy  =      -1.5436644191587678 [Eh]
	 SCS Correlation Energy    =      -1.6796966947956944 [Eh]
	 SCS Total Energy          =    -384.2773843773548492 [Eh]
	-----------------------------------------------------------

  Dipole Moment: [D]
     X:     3.7263      Y:    -0.4503      Z:     0.0224     Total:     3.7535

*** Psi4 exiting successfully. Buy a developer a beer!
