                               Psi4 1.3.2 release

  ==> Input File <==

--------------------------------------------------------------------------
#psi4
#
memory 32 gb

molecule  {
0 1
  O       -3.2622350    -0.3059220     0.0067540
  C        1.5488899    -0.3350899    -0.0271447
  C        0.3099430    -0.9407630    -0.0100630
  C       -0.8692280    -0.1880260    -0.0014190
  C        1.5994260     1.0858870    -0.0069900
  C       -0.8168260     1.2117300     0.0064260
  C        0.4233030     1.8430470     0.0013400
  C        2.8326460    -1.1226230     0.0134670
  C       -2.1766910    -0.8792860    -0.0025100
  H        0.2498670    -2.0299540    -0.0200910
  H        2.5637200     1.5920050    -0.0150810
  H       -1.7471690     1.7737230     0.0102860
  H        2.6825510    -2.1081700    -0.4357140
  H        3.6321630    -0.6167660    -0.5349600
  H        3.1786260    -1.2736230     1.0416080
  H        0.4815460     2.9289630     0.0030700
  H       -2.1255320    -1.9885980    -0.0123860
units angstrom
no_reorient  #important for SAPT in psi4, default
symmetry c1  #important for SAPT in psi4, default
}

set PROPERTIES_ORIGIN ["COM"]
properties('MP2/aug-cc-pvtz', properties = ['dipole'])
--------------------------------------------------------------------------

    Molecular point group: c1
  Charge       = 0
  Multiplicity = 1
  Basis Set: AUG-CC-PVTZ
    Blend: AUG-CC-PVTZ
  Basis Set: (AUG-CC-PVTZ AUX)
    Blend: AUG-CC-PVTZ-JKFIT

    Orbital Energies [Eh]
    ---------------------

    Doubly Occupied:

       1A    -20.553756     2A    -11.336470     3A    -11.259012
       4A    -11.256509     5A    -11.254384     6A    -11.252465
       7A    -11.251003     8A    -11.249537     9A    -11.237815
      10A     -1.378487    11A     -1.173081    12A     -1.065117
      13A     -1.043566    14A     -0.948764    15A     -0.892988
      16A     -0.832300    17A     -0.773180    18A     -0.709426
      19A     -0.678869    20A     -0.650013    21A     -0.619015
      22A     -0.608159    23A     -0.590890    24A     -0.584231
      25A     -0.552803    26A     -0.544347    27A     -0.523170
      28A     -0.499298    29A     -0.488982    30A     -0.428363
      31A     -0.354537    32A     -0.338907

  @DF-RHF Final Energy:  -382.59684152416241

   => Energetics <=

    Nuclear Repulsion Energy =            396.2531324074347481
    One-Electron Energy =               -1303.8410600356353370
    Two-Electron Energy =                 524.9910861040381178
    Total Energy =                       -382.5968415241624143
  Basis Set: (AUG-CC-PVTZ AUX)
    Blend: AUG-CC-PVTZ-RI
    Molecular point group: c1

    Geometry (in Angstrom), charge = 0, multiplicity = 1:

       Center              X                  Y                   Z               Mass
    ------------   -----------------  -----------------  -----------------  -----------------
         O           -3.187470189985    -0.318161291637     0.008233918335    15.994914619570
         C            1.623654710015    -0.347329191637    -0.025664781665    12.000000000000
         C            0.384707810015    -0.953002291637    -0.008583081665    12.000000000000
         C           -0.794463189985    -0.200265291637     0.000060918335    12.000000000000
         C            1.674190810015     1.073647708363    -0.005510081665    12.000000000000
         C           -0.742061189985     1.199490708363     0.007905918335    12.000000000000
         C            0.498067810015     1.830807708363     0.002819918335    12.000000000000
         C            2.907410810015    -1.134862291637     0.014946918335    12.000000000000
         C           -2.101926189985    -0.891525291637    -0.001030081665    12.000000000000
         H            0.324631810015    -2.042193291637    -0.018611081665     1.007825032230
         H            2.638484810015     1.579765708363    -0.013601081665     1.007825032230
         H           -1.672404189985     1.761483708363     0.011765918335     1.007825032230
         H            2.757315810015    -2.120409291637    -0.434234081665     1.007825032230
         H            3.706927810015    -0.629005291637    -0.533480081665     1.007825032230
         H            3.253390810015    -1.285862291637     1.043087918335     1.007825032230
         H            0.556310810015     2.916723708363     0.004549918335     1.007825032230
         H           -2.050767189985    -2.000837291637    -0.010906081665     1.007825032230

  Basis Set: AUG-CC-PVTZ
    Blend: AUG-CC-PVTZ
  Basis Set: (AUG-CC-PVTZ AUX)
    Blend: AUG-CC-PVTZ-JKFIT
	 Reference Energy          =    -382.5968415241624143 [Eh]
	 Singles Energy            =      -0.0000000000000000 [Eh]
	 Same-Spin Energy          =      -0.4081589777165727 [Eh]
	 Opposite-Spin Energy      =      -1.2864649113376716 [Eh]
	 Correlation Energy        =      -1.6946238890542444 [Eh]
	 Total Energy              =    -384.2914654132166561 [Eh]

	 ================> DF-SCS-MP2 Energies <==================
	-----------------------------------------------------------
	 SCS Same-Spin Scale       =       0.3333333333333333 [-]
	 SCS Opposite-Spin Scale   =       1.2000000000000000 [-]
	 SCS Same-Spin Energy      =      -0.1360529925721909 [Eh]
	 SCS Opposite-Spin Energy  =      -1.5437578936052059 [Eh]
	 SCS Correlation Energy    =      -1.6798108861773968 [Eh]
	 SCS Total Energy          =    -384.2766524103398069 [Eh]
	-----------------------------------------------------------

  Dipole Moment: [D]
     X:     3.6882      Y:    -0.4758      Z:     0.0271     Total:     3.7189

*** Psi4 exiting successfully. Buy a developer a beer!
