                               Psi4 1.3.2 release

  ==> Input File <==

--------------------------------------------------------------------------
#psi4
#
memory 32 gb

molecule  {
0 1
  O       -3.2622350    -0.3059220     0.0067540
  C        1.5611120    -0.3149990    -0.0153800
  C        0.2513940    -0.8065970    -0.0136922
  C       -0.8692280    -0.1880260    -0.0014190
  C        1.5994260     1.0858870    -0.0069900
  C       -0.8168260     1.2117300     0.0064260
  C        0.4233030     1.8430470     0.0013400
  C        2.8326460    -1.1226230     0.0134670
  C       -2.1766910    -0.8792860    -0.0025100
  H        0.2498670    -2.0299540    -0.0200910
  H        2.5637200     1.5920050    -0.0150810
  H       -1.7471690     1.7737230     0.0102860
  H        2.6825510    -2.1081700    -0.4357140
  H        3.6321630    -0.6167660    -0.5349600
  H        3.1786260    -1.2736230     1.0416080
  H        0.4815460     2.9289630     0.0030700
  H       -2.1255320    -1.9885980    -0.0123860
units angstrom
no_reorient  #important for SAPT in psi4, default
symmetry c1  #important for SAPT in psi4, default
}

set PROPERTIES_ORIGIN ["COM"]
properties('MP2/aug-cc-pvtz', properties = ['dipole'])
--------------------------------------------------------------------------

    Molecular point group: c1
  Charge       = 0
  Multiplicity = 1
  Basis Set: AUG-CC-PVTZ
    Blend: AUG-CC-PVTZ
  Basis Set: (AUG-CC-PVTZ AUX)
    Blend: AUG-CC-PVTZ-JKFIT

    Orbital Energies [Eh]
    ---------------------

    Doubly Occupied:

       1A    -20.558460     2A    -11.340315     3A    -11.258866
       4A    -11.255715     5A    -11.252339     6A    -11.248944
       7A    -11.246170     8A    -11.241836     9A    -11.239872
      10A     -1.382479    11A     -1.188049    12A     -1.073832
      13A     -1.044172    14A     -0.951445    15A     -0.891746
      16A     -0.828491    17A     -0.790143    18A     -0.707533
      19A     -0.680583    20A     -0.644362    21A     -0.626395
      22A     -0.599496    23A     -0.593638    24A     -0.577202
      25A     -0.552744    26A     -0.551728    27A     -0.523859
      28A     -0.496080    29A     -0.482604    30A     -0.431046
      31A     -0.366359    32A     -0.336135

  @DF-RHF Final Energy:  -382.57038930762019

   => Energetics <=

    Nuclear Repulsion Energy =            398.4160958654173328
    One-Electron Energy =               -1308.0476981498513851
    Two-Electron Energy =                 527.0612129768138630
    Total Energy =                       -382.5703893076201894
  Basis Set: (AUG-CC-PVTZ AUX)
    Blend: AUG-CC-PVTZ-RI
    Molecular point group: c1

    Geometry (in Angstrom), charge = 0, multiplicity = 1:

       Center              X                  Y                   Z               Mass
    ------------   -----------------  -----------------  -----------------  -----------------
         O           -3.182839719326    -0.333579591789     0.007420758076    15.994914619570
         C            1.640507280674    -0.342656591789    -0.014713241924    12.000000000000
         C            0.330789280674    -0.834254591789    -0.013025441924    12.000000000000
         C           -0.789832719326    -0.215683591789    -0.000752241924    12.000000000000
         C            1.678821280674     1.058229408211    -0.006323241924    12.000000000000
         C           -0.737430719326     1.184072408211     0.007092758076    12.000000000000
         C            0.502698280674     1.815389408211     0.002006758076    12.000000000000
         C            2.912041280674    -1.150280591789     0.014133758076    12.000000000000
         C           -2.097295719326    -0.906943591789    -0.001843241924    12.000000000000
         H            0.329262280674    -2.057611591789    -0.019424241924     1.007825032230
         H            2.643115280674     1.564347408211    -0.014414241924     1.007825032230
         H           -1.667773719326     1.746065408211     0.010952758076     1.007825032230
         H            2.761946280674    -2.135827591789    -0.435047241924     1.007825032230
         H            3.711558280674    -0.644423591789    -0.534293241924     1.007825032230
         H            3.258021280674    -1.301280591789     1.042274758076     1.007825032230
         H            0.560941280674     2.901305408211     0.003736758076     1.007825032230
         H           -2.046136719326    -2.016255591789    -0.011719241924     1.007825032230

  Basis Set: AUG-CC-PVTZ
    Blend: AUG-CC-PVTZ
  Basis Set: (AUG-CC-PVTZ AUX)
    Blend: AUG-CC-PVTZ-JKFIT
	 Reference Energy          =    -382.5703893076201894 [Eh]
	 Singles Energy            =      -0.0000000000000000 [Eh]
	 Same-Spin Energy          =      -0.4085216712554004 [Eh]
	 Opposite-Spin Energy      =      -1.2874597262928456 [Eh]
	 Correlation Energy        =      -1.6959813975482461 [Eh]
	 Total Energy              =    -384.2663707051684128 [Eh]

	 ================> DF-SCS-MP2 Energies <==================
	-----------------------------------------------------------
	 SCS Same-Spin Scale       =       0.3333333333333333 [-]
	 SCS Opposite-Spin Scale   =       1.2000000000000000 [-]
	 SCS Same-Spin Energy      =      -0.1361738904184668 [Eh]
	 SCS Opposite-Spin Energy  =      -1.5449516715514147 [Eh]
	 SCS Correlation Energy    =      -1.6811255619698815 [Eh]
	 SCS Total Energy          =    -384.2515148695900962 [Eh]
	-----------------------------------------------------------

  Dipole Moment: [D]
     X:     3.6496      Y:    -0.4597      Z:     0.0260     Total:     3.6786

*** Psi4 exiting successfully. Buy a developer a beer!
