                               Psi4 1.3.2 release

  ==> Input File <==

--------------------------------------------------------------------------
#psi4
#
memory 32 gb

molecule  {
0 1
  O       -3.2622350    -0.3059220     0.0067540
  C        1.5611120    -0.3149990    -0.0153800
  C        0.3099430    -0.9407630    -0.0100630
  C       -0.9206313    -0.0985103    -0.0004433
  C        1.5994260     1.0858870    -0.0069900
  C       -0.8168260     1.2117300     0.0064260
  C        0.4233030     1.8430470     0.0013400
  C        2.8326460    -1.1226230     0.0134670
  C       -2.1766910    -0.8792860    -0.0025100
  H        0.2498670    -2.0299540    -0.0200910
  H        2.5637200     1.5920050    -0.0150810
  H       -1.7471690     1.7737230     0.0102860
  H        2.6825510    -2.1081700    -0.4357140
  H        3.6321630    -0.6167660    -0.5349600
  H        3.1786260    -1.2736230     1.0416080
  H        0.4815460     2.9289630     0.0030700
  H       -2.1255320    -1.9885980    -0.0123860
units angstrom
no_reorient  #important for SAPT in psi4, default
symmetry c1  #important for SAPT in psi4, default
}

set PROPERTIES_ORIGIN ["COM"]
properties('MP2/aug-cc-pvtz', properties = ['dipole'])
--------------------------------------------------------------------------

    Molecular point group: c1
  Charge       = 0
  Multiplicity = 1
  Basis Set: AUG-CC-PVTZ
    Blend: AUG-CC-PVTZ
  Basis Set: (AUG-CC-PVTZ AUX)
    Blend: AUG-CC-PVTZ-JKFIT

    Orbital Energies [Eh]
    ---------------------

    Doubly Occupied:

       1A    -20.552743     2A    -11.336528     3A    -11.260724
       4A    -11.258143     5A    -11.253715     6A    -11.251146
       7A    -11.250652     8A    -11.240394     9A    -11.237122
      10A     -1.379446    11A     -1.172076    12A     -1.073572
      13A     -1.032835    14A     -0.949326    15A     -0.889408
      16A     -0.842566    17A     -0.764203    18A     -0.711044
      19A     -0.676717    20A     -0.655624    21A     -0.617509
      22A     -0.607514    23A     -0.589654    24A     -0.581853
      25A     -0.554833    26A     -0.545270    27A     -0.520206
      28A     -0.494735    29A     -0.489009    30A     -0.428703
      31A     -0.352628    32A     -0.339837

  @DF-RHF Final Energy:  -382.58408432041273

   => Energetics <=

    Nuclear Repulsion Energy =            396.3023549769824854
    One-Electron Energy =               -1303.9534089652181592
    Two-Electron Energy =                 525.0669696678228320
    Total Energy =                       -382.5840843204127850
  Basis Set: (AUG-CC-PVTZ AUX)
    Blend: AUG-CC-PVTZ-RI
    Molecular point group: c1

    Geometry (in Angstrom), charge = 0, multiplicity = 1:

       Center              X                  Y                   Z               Mass
    ------------   -----------------  -----------------  -----------------  -----------------
         O           -3.183553947003    -0.329116700811     0.006960488678    15.994914619570
         C            1.639793052997    -0.338193700811    -0.015173511322    12.000000000000
         C            0.388624052997    -0.963957700811    -0.009856511322    12.000000000000
         C           -0.841950247003    -0.121705000811    -0.000236811322    12.000000000000
         C            1.678107052997     1.062692299189    -0.006783511322    12.000000000000
         C           -0.738144947003     1.188535299189     0.006632488678    12.000000000000
         C            0.501984052997     1.819852299189     0.001546488678    12.000000000000
         C            2.911327052997    -1.145817700811     0.013673488678    12.000000000000
         C           -2.098009947003    -0.902480700811    -0.002303511322    12.000000000000
         H            0.328548052997    -2.053148700811    -0.019884511322     1.007825032230
         H            2.642401052997     1.568810299189    -0.014874511322     1.007825032230
         H           -1.668487947003     1.750528299189     0.010492488678     1.007825032230
         H            2.761232052997    -2.131364700811    -0.435507511322     1.007825032230
         H            3.710844052997    -0.639960700811    -0.534753511322     1.007825032230
         H            3.257307052997    -1.296817700811     1.041814488678     1.007825032230
         H            0.560227052997     2.905768299189     0.003276488678     1.007825032230
         H           -2.046850947003    -2.011792700811    -0.012179511322     1.007825032230

  Basis Set: AUG-CC-PVTZ
    Blend: AUG-CC-PVTZ
  Basis Set: (AUG-CC-PVTZ AUX)
    Blend: AUG-CC-PVTZ-JKFIT
	 Reference Energy          =    -382.5840843204127282 [Eh]
	 Singles Energy            =      -0.0000000000000000 [Eh]
	 Same-Spin Energy          =      -0.4079976041905149 [Eh]
	 Opposite-Spin Energy      =      -1.2868939827832668 [Eh]
	 Correlation Energy        =      -1.6948915869737817 [Eh]
	 Total Energy              =    -384.2789759073864957 [Eh]

	 ================> DF-SCS-MP2 Energies <==================
	-----------------------------------------------------------
	 SCS Same-Spin Scale       =       0.3333333333333333 [-]
	 SCS Opposite-Spin Scale   =       1.2000000000000000 [-]
	 SCS Same-Spin Energy      =      -0.1359992013968383 [Eh]
	 SCS Opposite-Spin Energy  =      -1.5442727793399202 [Eh]
	 SCS Correlation Energy    =      -1.6802719807367585 [Eh]
	 SCS Total Energy          =    -384.2643563011494621 [Eh]
	-----------------------------------------------------------

  Dipole Moment: [D]
     X:     3.6208      Y:    -0.5504      Z:     0.0224     Total:     3.6624

*** Psi4 exiting successfully. Buy a developer a beer!
