                               Psi4 1.4a3.dev225

  ==> Input File <==

--------------------------------------------------------------------------
#psi4
#
memory 32 gb

molecule  {
0 1
  O       -3.2622200    -0.3059070     0.0064780
  C        1.5611130    -0.3149950    -0.0153890
  C        0.3099490    -0.9407980    -0.0100380
  C       -0.8691990    -0.1880560    -0.0012000
  C        1.5993970     1.0858760    -0.0071180
  C       -0.8168460     1.2117110     0.0065060
  C        0.4232600     1.8430520     0.0014160
  C        2.8748664    -1.1493691     0.0143637
  C       -2.1766900    -0.8792890    -0.0024000
  H        0.2498950    -2.0299870    -0.0199420
  H        2.5636680     1.5920400    -0.0152260
  H       -1.7472230     1.7736450     0.0105140
  H        2.6826800    -2.1080670    -0.4359240
  H        3.6322070    -0.6166190    -0.5349020
  H        3.1786010    -1.2737110     1.0415460
  H        0.4815700     2.9289630     0.0030200
  H       -2.1255450    -1.9886100    -0.0120270
units angstrom
no_reorient  #important for SAPT in psi4, default
symmetry c1  #important for SAPT in psi4, default
}

set PROPERTIES_ORIGIN ["COM"]
properties('MP2/aug-cc-pvtz', properties = ['dipole'])
--------------------------------------------------------------------------

    Molecular point group: c1
  Charge       = 0
  Multiplicity = 1
  Basis Set: AUG-CC-PVTZ
    Blend: AUG-CC-PVTZ
  Basis Set: (AUG-CC-PVTZ AUX)
    Blend: AUG-CC-PVTZ-JKFIT

    Orbital Energies [Eh]
    ---------------------

    Doubly Occupied:

       1A    -20.553964     2A    -11.336530     3A    -11.261012
       4A    -11.256898     5A    -11.253930     6A    -11.252550
       7A    -11.250308     8A    -11.249085     9A    -11.236779
      10A     -1.378646    11A     -1.171341    12A     -1.061116
      13A     -1.042249    14A     -0.950242    15A     -0.891434
      16A     -0.834453    17A     -0.771741    18A     -0.708598
      19A     -0.678341    20A     -0.648831    21A     -0.619237
      22A     -0.608045    23A     -0.595802    24A     -0.576112
      25A     -0.561526    26A     -0.545311    27A     -0.520519
      28A     -0.495911    29A     -0.490488    30A     -0.428162
      31A     -0.353327    32A     -0.340547

  @DF-RHF Final Energy:  -382.59611983153781

   => Energetics <=

    Nuclear Repulsion Energy =            395.4220398500385727
    One-Electron Energy =               -1302.1902544901836336
    Two-Electron Energy =                 524.1720948086073122
    Total Energy =                       -382.5961198315377487
  Basis Set: (AUG-CC-PVTZ AUX)
    Blend: AUG-CC-PVTZ-RI
    Molecular point group: c1

    Geometry (in Angstrom), charge = 0, multiplicity = 1:

       Center              X                  Y                   Z               Mass
    ------------   -----------------  -----------------  -----------------  -----------------
         O           -3.192894012854    -0.317474814326     0.006689128435    15.994914619570
         C            1.630438987146    -0.326562814326    -0.015177871565    12.000000000000
         C            0.379274987146    -0.952365814326    -0.009826871565    12.000000000000
         C           -0.799873012854    -0.199623814326    -0.000988871565    12.000000000000
         C            1.668722987146     1.074308185674    -0.006906871565    12.000000000000
         C           -0.747520012854     1.200143185674     0.006717128435    12.000000000000
         C            0.492585987146     1.831484185674     0.001627128435    12.000000000000
         C            2.944192387146    -1.160936914326     0.014574828435    12.000000000000
         C           -2.107364012854    -0.890856814326    -0.002188871565    12.000000000000
         H            0.319220987146    -2.041554814326    -0.019730871565     1.007825032230
         H            2.632993987146     1.580472185674    -0.015014871565     1.007825032230
         H           -1.677897012854     1.762077185674     0.010725128435     1.007825032230
         H            2.752005987146    -2.119634814326    -0.435712871565     1.007825032230
         H            3.701532987146    -0.628186814326    -0.534690871565     1.007825032230
         H            3.247926987146    -1.285278814326     1.041757128435     1.007825032230
         H            0.550895987146     2.917395185674     0.003231128435     1.007825032230
         H           -2.056219012854    -2.000177814326    -0.011815871565     1.007825032230

  Basis Set: AUG-CC-PVTZ
    Blend: AUG-CC-PVTZ
  Basis Set: (AUG-CC-PVTZ AUX)
    Blend: AUG-CC-PVTZ-JKFIT
	 Reference Energy          =    -382.5961198315378056 [Eh]
	 Singles Energy            =      -0.0000000000000000 [Eh]
	 Same-Spin Energy          =      -0.4078073695633586 [Eh]
	 Opposite-Spin Energy      =      -1.2861854716744148 [Eh]
	 Correlation Energy        =      -1.6939928412377734 [Eh]
	 Total Energy              =    -384.2901126727755923 [Eh]

	 ================> DF-SCS-MP2 Energies <==================
	-----------------------------------------------------------
	 SCS Same-Spin Scale       =       0.3333333333333333 [-]
	 SCS Opposite-Spin Scale   =       1.2000000000000000 [-]
	 SCS Same-Spin Energy      =      -0.1359357898544528 [Eh]
	 SCS Opposite-Spin Energy  =      -1.5434225660092977 [Eh]
	 SCS Correlation Energy    =      -1.6793583558637506 [Eh]
	 SCS Total Energy          =    -384.2754781874015748 [Eh]
	-----------------------------------------------------------

  Dipole Moment: [D]
     X:     3.6781      Y:    -0.4888      Z:     0.0209     Total:     3.7105

*** Psi4 exiting successfully. Buy a developer a beer!
