                               Psi4 1.3.2 release

  ==> Input File <==

--------------------------------------------------------------------------
#psi4
#
memory 32 gb

molecule  {
0 1
  O       -3.2622350    -0.3059220     0.0067540
  C        1.5611120    -0.3149990    -0.0153800
  C        0.3099430    -0.9407630    -0.0100630
  C       -0.8692280    -0.1880260    -0.0014190
  C        1.5994260     1.0858870    -0.0069900
  C       -0.8168260     1.2117300     0.0064260
  C        0.4233030     1.8430470     0.0013400
  C        2.8326460    -1.1226230     0.0134670
  C       -2.2650957    -0.9260258    -0.0025838
  H        0.2498670    -2.0299540    -0.0200910
  H        2.5637200     1.5920050    -0.0150810
  H       -1.7471690     1.7737230     0.0102860
  H        2.6825510    -2.1081700    -0.4357140
  H        3.6321630    -0.6167660    -0.5349600
  H        3.1786260    -1.2736230     1.0416080
  H        0.4815460     2.9289630     0.0030700
  H       -2.1255320    -1.9885980    -0.0123860
units angstrom
no_reorient  #important for SAPT in psi4, default
symmetry c1  #important for SAPT in psi4, default
}

set PROPERTIES_ORIGIN ["COM"]
properties('MP2/aug-cc-pvtz', properties = ['dipole'])
--------------------------------------------------------------------------

    Molecular point group: c1
  Charge       = 0
  Multiplicity = 1
  Basis Set: AUG-CC-PVTZ
    Blend: AUG-CC-PVTZ
  Basis Set: (AUG-CC-PVTZ AUX)
    Blend: AUG-CC-PVTZ-JKFIT

    Orbital Energies [Eh]
    ---------------------

    Doubly Occupied:

       1A    -20.564444     2A    -11.338449     3A    -11.254596
       4A    -11.251548     5A    -11.249003     6A    -11.246472
       7A    -11.245217     8A    -11.242751     9A    -11.234280
      10A     -1.422049    11A     -1.164986    12A     -1.056893
      13A     -1.031700    14A     -0.943380    15A     -0.880350
      16A     -0.829997    17A     -0.777206    18A     -0.706401
      19A     -0.682857    20A     -0.647582    21A     -0.635552
      22A     -0.606885    23A     -0.587003    24A     -0.578510
      25A     -0.560195    26A     -0.549043    27A     -0.519793
      28A     -0.497694    29A     -0.493306    30A     -0.420652
      31A     -0.348021    32A     -0.334615

  @DF-RHF Final Energy:  -382.59350091220972

   => Energetics <=

    Nuclear Repulsion Energy =            395.4184297261687107
    One-Electron Energy =               -1302.2210032239950124
    Two-Electron Energy =                 524.2090725856165818
    Total Energy =                       -382.5935009122097199
  Basis Set: (AUG-CC-PVTZ AUX)
    Blend: AUG-CC-PVTZ-RI
    Molecular point group: c1

    Geometry (in Angstrom), charge = 0, multiplicity = 1:

       Center              X                  Y                   Z               Mass
    ------------   -----------------  -----------------  -----------------  -----------------
         O           -3.179855579596    -0.315497678281     0.007065388401    15.994914619570
         C            1.643491420404    -0.324574678281    -0.015068611599    12.000000000000
         C            0.392322420404    -0.950338678281    -0.009751611599    12.000000000000
         C           -0.786848579596    -0.197601678281    -0.001107611599    12.000000000000
         C            1.681805420404     1.076311321719    -0.006678611599    12.000000000000
         C           -0.734446579596     1.202154321719     0.006737388401    12.000000000000
         C            0.505682420404     1.833471321719     0.001651388401    12.000000000000
         C            2.915025420404    -1.132198678281     0.013778388401    12.000000000000
         C           -2.182716279596    -0.935601478281    -0.002272411599    12.000000000000
         H            0.332246420404    -2.039529678281    -0.019779611599     1.007825032230
         H            2.646099420404     1.582429321719    -0.014769611599     1.007825032230
         H           -1.664789579596     1.764147321719     0.010597388401     1.007825032230
         H            2.764930420404    -2.117745678281    -0.435402611599     1.007825032230
         H            3.714542420404    -0.626341678281    -0.534648611599     1.007825032230
         H            3.261005420404    -1.283198678281     1.041919388401     1.007825032230
         H            0.563925420404     2.919387321719     0.003381388401     1.007825032230
         H           -2.043152579596    -1.998173678281    -0.012074611599     1.007825032230

  Basis Set: AUG-CC-PVTZ
    Blend: AUG-CC-PVTZ
  Basis Set: (AUG-CC-PVTZ AUX)
    Blend: AUG-CC-PVTZ-JKFIT
	 Reference Energy          =    -382.5935009122097199 [Eh]
	 Singles Energy            =      -0.0000000000000000 [Eh]
	 Same-Spin Energy          =      -0.4063535069276492 [Eh]
	 Opposite-Spin Energy      =      -1.2830141183232771 [Eh]
	 Correlation Energy        =      -1.6893676252509262 [Eh]
	 Total Energy              =    -384.2828685374606721 [Eh]

	 ================> DF-SCS-MP2 Energies <==================
	-----------------------------------------------------------
	 SCS Same-Spin Scale       =       0.3333333333333333 [-]
	 SCS Opposite-Spin Scale   =       1.2000000000000000 [-]
	 SCS Same-Spin Energy      =      -0.1354511689758831 [Eh]
	 SCS Opposite-Spin Energy  =      -1.5396169419879324 [Eh]
	 SCS Correlation Energy    =      -1.6750681109638155 [Eh]
	 SCS Total Energy          =    -384.2685690231735407 [Eh]
	-----------------------------------------------------------

  Dipole Moment: [D]
     X:     2.9280      Y:    -0.7781      Z:     0.0223     Total:     3.0297

*** Psi4 exiting successfully. Buy a developer a beer!
