                               Psi4 1.3.2 release

  ==> Input File <==

--------------------------------------------------------------------------
#psi4
#
memory 32 gb

molecule  {
0 1
  O       -3.2622350    -0.3059220     0.0067540
  C        1.5611120    -0.3149990    -0.0153800
  C        0.3099430    -0.9407630    -0.0100630
  C       -0.8692280    -0.1880260    -0.0014190
  C        1.5994260     1.0858870    -0.0069900
  C       -0.8168260     1.2117300     0.0064260
  C        0.4233030     1.8430470     0.0013400
  C        2.8326460    -1.1226230     0.0134670
  C       -2.1766910    -0.8792860    -0.0025100
  H        0.2498670    -2.0299540    -0.0200910
  H        2.5637200     1.5920050    -0.0150810
  H       -1.7471690     1.7737230     0.0102860
  H        2.6825510    -2.1081700    -0.4357140
  H        3.6321630    -0.6167660    -0.5349600
  H        3.2418042    -1.3011966     1.2293531
  H        0.4815460     2.9289630     0.0030700
  H       -2.1255320    -1.9885980    -0.0123860
units angstrom
no_reorient  #important for SAPT in psi4, default
symmetry c1  #important for SAPT in psi4, default
}

set PROPERTIES_ORIGIN ["COM"]
properties('MP2/aug-cc-pvtz', properties = ['dipole'])
--------------------------------------------------------------------------

    Molecular point group: c1
  Charge       = 0
  Multiplicity = 1
  Basis Set: AUG-CC-PVTZ
    Blend: AUG-CC-PVTZ
  Basis Set: (AUG-CC-PVTZ AUX)
    Blend: AUG-CC-PVTZ-JKFIT

    Orbital Energies [Eh]
    ---------------------

    Doubly Occupied:

       1A    -20.554745     2A    -11.337326     3A    -11.261030
       4A    -11.260064     5A    -11.258326     6A    -11.255338
       7A    -11.253637     8A    -11.251613     9A    -11.250249
      10A     -1.379402    11A     -1.173837    12A     -1.064408
      13A     -1.043696    14A     -0.939569    15A     -0.892430
      16A     -0.834541    17A     -0.771231    18A     -0.709336
      19A     -0.680059    20A     -0.651232    21A     -0.620182
      22A     -0.609985    23A     -0.585615    24A     -0.563475
      25A     -0.555610    26A     -0.537501    27A     -0.520814
      28A     -0.503439    29A     -0.483823    30A     -0.429088
      31A     -0.354452    32A     -0.338662

  @DF-RHF Final Energy:  -382.57800038156978

   => Energetics <=

    Nuclear Repulsion Energy =            395.4575739339086908
    One-Electron Energy =               -1302.2217214635625169
    Two-Electron Energy =                 524.1861471480840464
    Total Energy =                       -382.5780003815698365
  Basis Set: (AUG-CC-PVTZ AUX)
    Blend: AUG-CC-PVTZ-RI
    Molecular point group: c1

    Geometry (in Angstrom), charge = 0, multiplicity = 1:

       Center              X                  Y                   Z               Mass
    ------------   -----------------  -----------------  -----------------  -----------------
         O           -3.189222165042    -0.319937952064     0.005481982217    15.994914619570
         C            1.634124834958    -0.329014952064    -0.016652017783    12.000000000000
         C            0.382955834958    -0.954778952064    -0.011335017783    12.000000000000
         C           -0.796215165042    -0.202041952064    -0.002691017783    12.000000000000
         C            1.672438834958     1.071871047936    -0.008262017783    12.000000000000
         C           -0.743813165042     1.197714047936     0.005153982217    12.000000000000
         C            0.496315834958     1.829031047936     0.000067982217    12.000000000000
         C            2.905658834958    -1.136638952064     0.012194982217    12.000000000000
         C           -2.103678165042    -0.893301952064    -0.003782017783    12.000000000000
         H            0.322879834958    -2.043969952064    -0.021363017783     1.007825032230
         H            2.636732834958     1.577989047936    -0.016353017783     1.007825032230
         H           -1.674156165042     1.759707047936     0.009013982217     1.007825032230
         H            2.755563834958    -2.122185952064    -0.436986017783     1.007825032230
         H            3.705175834958    -0.630781952064    -0.536232017783     1.007825032230
         H            3.314817034958    -1.315212552064     1.228081082217     1.007825032230
         H            0.554558834958     2.914947047936     0.001797982217     1.007825032230
         H           -2.052519165042    -2.002613952064    -0.013658017783     1.007825032230

  Basis Set: AUG-CC-PVTZ
    Blend: AUG-CC-PVTZ
  Basis Set: (AUG-CC-PVTZ AUX)
    Blend: AUG-CC-PVTZ-JKFIT
	 Reference Energy          =    -382.5780003815697796 [Eh]
	 Singles Energy            =      -0.0000000000000000 [Eh]
	 Same-Spin Energy          =      -0.4080811975029773 [Eh]
	 Opposite-Spin Energy      =      -1.2878482758034129 [Eh]
	 Correlation Energy        =      -1.6959294733063901 [Eh]
	 Total Energy              =    -384.2739298548761440 [Eh]

	 ================> DF-SCS-MP2 Energies <==================
	-----------------------------------------------------------
	 SCS Same-Spin Scale       =       0.3333333333333333 [-]
	 SCS Opposite-Spin Scale   =       1.2000000000000000 [-]
	 SCS Same-Spin Energy      =      -0.1360270658343258 [Eh]
	 SCS Opposite-Spin Energy  =      -1.5454179309640954 [Eh]
	 SCS Correlation Energy    =      -1.6814449967984211 [Eh]
	 SCS Total Energy          =    -384.2594453783681843 [Eh]
	-----------------------------------------------------------

  Dipole Moment: [D]
     X:     3.5829      Y:    -0.4421      Z:    -0.0639     Total:     3.6107

*** Psi4 exiting successfully. Buy a developer a beer!
