                               Psi4 1.3.2 release

  ==> Input File <==

--------------------------------------------------------------------------
#psi4
#
memory 32 gb

molecule  {
0 1
  O       -3.2622350    -0.3059220     0.0067540
  C        1.5611120    -0.3149990    -0.0153800
  C        0.3822001    -1.0680730    -0.0064920
  C       -0.8692280    -0.1880260    -0.0014190
  C        1.5994260     1.0858870    -0.0069900
  C       -0.8168260     1.2117300     0.0064260
  C        0.4233030     1.8430470     0.0013400
  C        2.8326460    -1.1226230     0.0134670
  C       -2.1766910    -0.8792860    -0.0025100
  H        0.2498670    -2.0299540    -0.0200910
  H        2.5637200     1.5920050    -0.0150810
  H       -1.7471690     1.7737230     0.0102860
  H        2.6825510    -2.1081700    -0.4357140
  H        3.6321630    -0.6167660    -0.5349600
  H        3.1786260    -1.2736230     1.0416080
  H        0.4815460     2.9289630     0.0030700
  H       -2.1255320    -1.9885980    -0.0123860
units angstrom
no_reorient  #important for SAPT in psi4, default
symmetry c1  #important for SAPT in psi4, default
}

set PROPERTIES_ORIGIN ["COM"]
properties('MP2/aug-cc-pvtz', properties = ['dipole'])
--------------------------------------------------------------------------

    Molecular point group: c1
  Charge       = 0
  Multiplicity = 1
  Basis Set: AUG-CC-PVTZ
    Blend: AUG-CC-PVTZ
  Basis Set: (AUG-CC-PVTZ AUX)
    Blend: AUG-CC-PVTZ-JKFIT

    Orbital Energies [Eh]
    ---------------------

    Doubly Occupied:

       1A    -20.551524     2A    -11.334312     3A    -11.264050
       4A    -11.262465     5A    -11.259188     6A    -11.256665
       7A    -11.254324     8A    -11.252472     9A    -11.234080
      10A     -1.376487    11A     -1.163979    12A     -1.066084
      13A     -1.037491    14A     -0.945831    15A     -0.895263
      16A     -0.843659    17A     -0.761913    18A     -0.716547
      19A     -0.685347    20A     -0.651832    21A     -0.625373
      22A     -0.608134    23A     -0.588943    24A     -0.585887
      25A     -0.552607    26A     -0.539316    27A     -0.528672
      28A     -0.488760    29A     -0.484722    30A     -0.424683
      31A     -0.346297    32A     -0.340889

  @DF-RHF Final Energy:  -382.56799223972229

   => Energetics <=

    Nuclear Repulsion Energy =            394.2895859599756250
    One-Electron Energy =               -1299.8595650649099298
    Two-Electron Energy =                 523.0019868652120749
    Total Energy =                       -382.5679922397222299
  Basis Set: (AUG-CC-PVTZ AUX)
    Blend: AUG-CC-PVTZ-RI
    Molecular point group: c1

    Geometry (in Angstrom), charge = 0, multiplicity = 1:

       Center              X                  Y                   Z               Mass
    ------------   -----------------  -----------------  -----------------  -----------------
         O           -3.195914062915    -0.307444518086     0.006701083009    15.994914619570
         C            1.627432937085    -0.316521518086    -0.015432916991    12.000000000000
         C            0.448521037085    -1.069595518086    -0.006544916991    12.000000000000
         C           -0.802907062915    -0.189548518086    -0.001471916991    12.000000000000
         C            1.665746937085     1.084364481914    -0.007042916991    12.000000000000
         C           -0.750505062915     1.210207481914     0.006373083009    12.000000000000
         C            0.489623937085     1.841524481914     0.001287083009    12.000000000000
         C            2.898966937085    -1.124145518086     0.013414083009    12.000000000000
         C           -2.110370062915    -0.880808518086    -0.002562916991    12.000000000000
         H            0.316187937085    -2.031476518086    -0.020143916991     1.007825032230
         H            2.630040937085     1.590482481914    -0.015133916991     1.007825032230
         H           -1.680848062915     1.772200481914     0.010233083009     1.007825032230
         H            2.748871937085    -2.109692518086    -0.435766916991     1.007825032230
         H            3.698483937085    -0.618288518086    -0.535012916991     1.007825032230
         H            3.244946937085    -1.275145518086     1.041555083009     1.007825032230
         H            0.547866937085     2.927440481914     0.003017083009     1.007825032230
         H           -2.059211062915    -1.990120518086    -0.012438916991     1.007825032230

  Basis Set: AUG-CC-PVTZ
    Blend: AUG-CC-PVTZ
  Basis Set: (AUG-CC-PVTZ AUX)
    Blend: AUG-CC-PVTZ-JKFIT
	 Reference Energy          =    -382.5679922397222867 [Eh]
	 Singles Energy            =      -0.0000000000000000 [Eh]
	 Same-Spin Energy          =      -0.4085905623688921 [Eh]
	 Opposite-Spin Energy      =      -1.2886173284863549 [Eh]
	 Correlation Energy        =      -1.6972078908552470 [Eh]
	 Total Energy              =    -384.2652001305775116 [Eh]

	 ================> DF-SCS-MP2 Energies <==================
	-----------------------------------------------------------
	 SCS Same-Spin Scale       =       0.3333333333333333 [-]
	 SCS Opposite-Spin Scale   =       1.2000000000000000 [-]
	 SCS Same-Spin Energy      =      -0.1361968541229640 [Eh]
	 SCS Opposite-Spin Energy  =      -1.5463407941836258 [Eh]
	 SCS Correlation Energy    =      -1.6825376483065899 [Eh]
	 SCS Total Energy          =    -384.2505298880288933 [Eh]
	-----------------------------------------------------------

  Dipole Moment: [D]
     X:     3.6884      Y:    -0.4219      Z:     0.0187     Total:     3.7125

*** Psi4 exiting successfully. Buy a developer a beer!
