                               Psi4 1.4a3.dev225

  ==> Input File <==

--------------------------------------------------------------------------
#psi4
#
memory 32 gb

molecule  {
0 1
  O       -3.2622200    -0.3059070     0.0064780
  C        1.5611130    -0.3149950    -0.0153890
  C        0.3099490    -0.9407980    -0.0100380
  C       -0.8691990    -0.1880560    -0.0012000
  C        1.5993970     1.0858760    -0.0071180
  C       -0.8168460     1.2117110     0.0065060
  C        0.4232600     1.8430520     0.0014160
  C        2.8326670    -1.1225680     0.0134080
  C       -2.2209003    -0.8559369    -0.0020384
  H        0.2498950    -2.0299870    -0.0199420
  H        2.5636680     1.5920400    -0.0152260
  H       -1.7472230     1.7736450     0.0105140
  H        2.6826800    -2.1080670    -0.4359240
  H        3.6322070    -0.6166190    -0.5349020
  H        3.1786010    -1.2737110     1.0415460
  H        0.4815700     2.9289630     0.0030200
  H       -2.1255450    -1.9886100    -0.0120270
units angstrom
no_reorient  #important for SAPT in psi4, default
symmetry c1  #important for SAPT in psi4, default
}

set PROPERTIES_ORIGIN ["COM"]
properties('MP2/aug-cc-pvtz', properties = ['dipole'])
--------------------------------------------------------------------------

    Molecular point group: c1
  Charge       = 0
  Multiplicity = 1
  Basis Set: AUG-CC-PVTZ
    Blend: AUG-CC-PVTZ
  Basis Set: (AUG-CC-PVTZ AUX)
    Blend: AUG-CC-PVTZ-JKFIT

    Orbital Energies [Eh]
    ---------------------

    Doubly Occupied:

       1A    -20.558923     2A    -11.335452     3A    -11.257800
       4A    -11.254606     5A    -11.251505     6A    -11.251289
       7A    -11.248343     8A    -11.246909     9A    -11.236587
      10A     -1.415787    11A     -1.170259    12A     -1.062991
      13A     -1.038603    14A     -0.947009    15A     -0.884021
      16A     -0.831518    17A     -0.769294    18A     -0.708531
      19A     -0.680489    20A     -0.652325    21A     -0.630422
      22A     -0.608867    23A     -0.589631    24A     -0.581885
      25A     -0.559809    26A     -0.551423    27A     -0.520588
      28A     -0.501248    29A     -0.494638    30A     -0.421322
      31A     -0.352132    32A     -0.338305

  @DF-RHF Final Energy:  -382.59898897766737

   => Energetics <=

    Nuclear Repulsion Energy =            396.4741679427880854
    One-Electron Energy =               -1304.2412960151038988
    Two-Electron Energy =                 525.1681390946483816
    Total Energy =                       -382.5989889776674318
  Basis Set: (AUG-CC-PVTZ AUX)
    Blend: AUG-CC-PVTZ-RI
    Molecular point group: c1

    Geometry (in Angstrom), charge = 0, multiplicity = 1:

       Center              X                  Y                   Z               Mass
    ------------   -----------------  -----------------  -----------------  -----------------
         O           -3.184257182406    -0.322487731681     0.006748509974    15.994914619570
         C            1.639075817594    -0.331575731681    -0.015118490026    12.000000000000
         C            0.387911817594    -0.957378731681    -0.009767490026    12.000000000000
         C           -0.791236182406    -0.204636731681    -0.000929490026    12.000000000000
         C            1.677359817594     1.069295268319    -0.006847490026    12.000000000000
         C           -0.738883182406     1.195130268319     0.006776509974    12.000000000000
         C            0.501222817594     1.826471268319     0.001686509974    12.000000000000
         C            2.910629817594    -1.139148731681     0.013678509974    12.000000000000
         C           -2.142937482406    -0.872517631681    -0.001767890026    12.000000000000
         H            0.327857817594    -2.046567731681    -0.019671490026     1.007825032230
         H            2.641630817594     1.575459268319    -0.014955490026     1.007825032230
         H           -1.669260182406     1.757064268319     0.010784509974     1.007825032230
         H            2.760642817594    -2.124647731681    -0.435653490026     1.007825032230
         H            3.710169817594    -0.633199731681    -0.534631490026     1.007825032230
         H            3.256563817594    -1.290291731681     1.041816509974     1.007825032230
         H            0.559532817594     2.912382268319     0.003290509974     1.007825032230
         H           -2.047582182406    -2.005190731681    -0.011756490026     1.007825032230

  Basis Set: AUG-CC-PVTZ
    Blend: AUG-CC-PVTZ
  Basis Set: (AUG-CC-PVTZ AUX)
    Blend: AUG-CC-PVTZ-JKFIT
	 Reference Energy          =    -382.5989889776673749 [Eh]
	 Singles Energy            =      -0.0000000000000000 [Eh]
	 Same-Spin Energy          =      -0.4068318995065379 [Eh]
	 Opposite-Spin Energy      =      -1.2833876133482125 [Eh]
	 Correlation Energy        =      -1.6902195128547504 [Eh]
	 Total Energy              =    -384.2892084905221282 [Eh]

	 ================> DF-SCS-MP2 Energies <==================
	-----------------------------------------------------------
	 SCS Same-Spin Scale       =       0.3333333333333333 [-]
	 SCS Opposite-Spin Scale   =       1.2000000000000000 [-]
	 SCS Same-Spin Energy      =      -0.1356106331688460 [Eh]
	 SCS Opposite-Spin Energy  =      -1.5400651360178550 [Eh]
	 SCS Correlation Energy    =      -1.6756757691867010 [Eh]
	 SCS Total Energy          =    -384.2746647468540573 [Eh]
	-----------------------------------------------------------

  Dipole Moment: [D]
     X:     3.3757      Y:    -0.4355      Z:     0.0243     Total:     3.4038

*** Psi4 exiting successfully. Buy a developer a beer!
