                               Psi4 1.3.2 release

  ==> Input File <==

--------------------------------------------------------------------------
#psi4
#
memory 32 gb

molecule  {
0 1
  O       -3.2622350    -0.3059220     0.0067540
  C        1.5611120    -0.3149990    -0.0153800
  C        0.3099430    -0.9407630    -0.0100630
  C       -0.8459006    -0.2340747    -0.0019091
  C        1.5994260     1.0858870    -0.0069900
  C       -0.8168260     1.2117300     0.0064260
  C        0.4233030     1.8430470     0.0013400
  C        2.8326460    -1.1226230     0.0134670
  C       -2.1766910    -0.8792860    -0.0025100
  H        0.2498670    -2.0299540    -0.0200910
  H        2.5637200     1.5920050    -0.0150810
  H       -1.7471690     1.7737230     0.0102860
  H        2.6825510    -2.1081700    -0.4357140
  H        3.6321630    -0.6167660    -0.5349600
  H        3.1786260    -1.2736230     1.0416080
  H        0.4815460     2.9289630     0.0030700
  H       -2.1255320    -1.9885980    -0.0123860
units angstrom
no_reorient  #important for SAPT in psi4, default
symmetry c1  #important for SAPT in psi4, default
}

set PROPERTIES_ORIGIN ["COM"]
properties('MP2/aug-cc-pvtz', properties = ['dipole'])
--------------------------------------------------------------------------

    Molecular point group: c1
  Charge       = 0
  Multiplicity = 1
  Basis Set: AUG-CC-PVTZ
    Blend: AUG-CC-PVTZ
  Basis Set: (AUG-CC-PVTZ AUX)
    Blend: AUG-CC-PVTZ-JKFIT

    Orbital Energies [Eh]
    ---------------------

    Doubly Occupied:

       1A    -20.555554     2A    -11.337513     3A    -11.259302
       4A    -11.254580     5A    -11.254194     6A    -11.253974
       7A    -11.252442     8A    -11.249037     9A    -11.238066
      10A     -1.379155    11A     -1.174228    12A     -1.063152
      13A     -1.047901    14A     -0.947650    15A     -0.893277
      16A     -0.830944    17A     -0.776696    18A     -0.708214
      19A     -0.681114    20A     -0.647572    21A     -0.622525
      22A     -0.608321    23A     -0.591160    24A     -0.582189
      25A     -0.551753    26A     -0.544825    27A     -0.521421
      28A     -0.502280    29A     -0.489618    30A     -0.427264
      31A     -0.360522    32A     -0.334475

  @DF-RHF Final Energy:  -382.59411313384442

   => Energetics <=

    Nuclear Repulsion Energy =            396.2141144015745908
    One-Electron Energy =               -1303.7346190304224365
    Two-Electron Energy =                 524.9263914950034859
    Total Energy =                       -382.5941131338444166
  Basis Set: (AUG-CC-PVTZ AUX)
    Blend: AUG-CC-PVTZ-RI
    Molecular point group: c1

    Geometry (in Angstrom), charge = 0, multiplicity = 1:

       Center              X                  Y                   Z               Mass
    ------------   -----------------  -----------------  -----------------  -----------------
         O           -3.191023436947    -0.315566755174     0.007106998458    15.994914619570
         C            1.632323563053    -0.324643755174    -0.015027001542    12.000000000000
         C            0.381154563053    -0.950407755174    -0.009710001542    12.000000000000
         C           -0.774689036947    -0.243719455174    -0.001556101542    12.000000000000
         C            1.670637563053     1.076242244826    -0.006637001542    12.000000000000
         C           -0.745614436947     1.202085244826     0.006778998458    12.000000000000
         C            0.494514563053     1.833402244826     0.001692998458    12.000000000000
         C            2.903857563053    -1.132267755174     0.013819998458    12.000000000000
         C           -2.105479436947    -0.888930755174    -0.002157001542    12.000000000000
         H            0.321078563053    -2.039598755174    -0.019738001542     1.007825032230
         H            2.634931563053     1.582360244826    -0.014728001542     1.007825032230
         H           -1.675957436947     1.764078244826     0.010638998458     1.007825032230
         H            2.753762563053    -2.117814755174    -0.435361001542     1.007825032230
         H            3.703374563053    -0.626410755174    -0.534607001542     1.007825032230
         H            3.249837563053    -1.283267755174     1.041960998458     1.007825032230
         H            0.552757563053     2.919318244826     0.003422998458     1.007825032230
         H           -2.054320436947    -1.998242755174    -0.012033001542     1.007825032230

  Basis Set: AUG-CC-PVTZ
    Blend: AUG-CC-PVTZ
  Basis Set: (AUG-CC-PVTZ AUX)
    Blend: AUG-CC-PVTZ-JKFIT
	 Reference Energy          =    -382.5941131338444166 [Eh]
	 Singles Energy            =      -0.0000000000000000 [Eh]
	 Same-Spin Energy          =      -0.4080357032014428 [Eh]
	 Opposite-Spin Energy      =      -1.2866058123019588 [Eh]
	 Correlation Energy        =      -1.6946415155034016 [Eh]
	 Total Energy              =    -384.2887546493478226 [Eh]

	 ================> DF-SCS-MP2 Energies <==================
	-----------------------------------------------------------
	 SCS Same-Spin Scale       =       0.3333333333333333 [-]
	 SCS Opposite-Spin Scale   =       1.2000000000000000 [-]
	 SCS Same-Spin Energy      =      -0.1360119010671476 [Eh]
	 SCS Opposite-Spin Energy  =      -1.5439269747623505 [Eh]
	 SCS Correlation Energy    =      -1.6799388758294982 [Eh]
	 SCS Total Energy          =    -384.2740520096739374 [Eh]
	-----------------------------------------------------------

  Dipole Moment: [D]
     X:     3.6995      Y:    -0.4685      Z:     0.0220     Total:     3.7291

*** Psi4 exiting successfully. Buy a developer a beer!
