                               Psi4 1.3.2 release

  ==> Input File <==

--------------------------------------------------------------------------
#psi4
#
memory 32 gb

molecule  {
0 1
  O       -3.2622350    -0.3059220     0.0067540
  C        1.5370589    -0.3554206    -0.0388970
  C        0.3099430    -0.9407630    -0.0100630
  C       -0.8692280    -0.1880260    -0.0014190
  C        1.5994260     1.0858870    -0.0069900
  C       -0.8168260     1.2117300     0.0064260
  C        0.4233030     1.8430470     0.0013400
  C        2.8326460    -1.1226230     0.0134670
  C       -2.1766910    -0.8792860    -0.0025100
  H        0.2498670    -2.0299540    -0.0200910
  H        2.5637200     1.5920050    -0.0150810
  H       -1.7471690     1.7737230     0.0102860
  H        2.6825510    -2.1081700    -0.4357140
  H        3.6321630    -0.6167660    -0.5349600
  H        3.1786260    -1.2736230     1.0416080
  H        0.4815460     2.9289630     0.0030700
  H       -2.1255320    -1.9885980    -0.0123860
units angstrom
no_reorient  #important for SAPT in psi4, default
symmetry c1  #important for SAPT in psi4, default
}

set PROPERTIES_ORIGIN ["COM"]
properties('MP2/aug-cc-pvtz', properties = ['dipole'])
--------------------------------------------------------------------------

    Molecular point group: c1
  Charge       = 0
  Multiplicity = 1
  Basis Set: AUG-CC-PVTZ
    Blend: AUG-CC-PVTZ
  Basis Set: (AUG-CC-PVTZ AUX)
    Blend: AUG-CC-PVTZ-JKFIT

    Orbital Energies [Eh]
    ---------------------

    Doubly Occupied:

       1A    -20.553345     2A    -11.336239     3A    -11.259386
       4A    -11.258298     5A    -11.252804     6A    -11.251791
       7A    -11.251034     8A    -11.249673     9A    -11.237838
      10A     -1.378151    11A     -1.173326    12A     -1.064864
      13A     -1.043865    14A     -0.949131    15A     -0.894036
      16A     -0.829959    17A     -0.773957    18A     -0.709744
      19A     -0.678654    20A     -0.649791    21A     -0.618835
      22A     -0.607503    23A     -0.591236    24A     -0.584915
      25A     -0.552674    26A     -0.544249    27A     -0.526258
      28A     -0.495187    29A     -0.488692    30A     -0.428247
      31A     -0.356339    32A     -0.337639

  @DF-RHF Final Energy:  -382.59457868046331

   => Energetics <=

    Nuclear Repulsion Energy =            396.2766464841577658
    One-Electron Energy =               -1303.8871285109921700
    Two-Electron Energy =                 525.0159033463711467
    Total Energy =                       -382.5945786804633144
  Basis Set: (AUG-CC-PVTZ AUX)
    Blend: AUG-CC-PVTZ-RI
    Molecular point group: c1

    Geometry (in Angstrom), charge = 0, multiplicity = 1:

       Center              X                  Y                   Z               Mass
    ------------   -----------------  -----------------  -----------------  -----------------
         O           -3.186287656762    -0.316129195601     0.009408585329    15.994914619570
         C            1.613006243238    -0.365627795601    -0.036242414671    12.000000000000
         C            0.385890343238    -0.950970195601    -0.007408414671    12.000000000000
         C           -0.793280656762    -0.198233195601     0.001235585329    12.000000000000
         C            1.675373343238     1.075679804399    -0.004335414671    12.000000000000
         C           -0.740878656762     1.201522804399     0.009080585329    12.000000000000
         C            0.499250343238     1.832839804399     0.003994585329    12.000000000000
         C            2.908593343238    -1.132830195601     0.016121585329    12.000000000000
         C           -2.100743656762    -0.889493195601     0.000144585329    12.000000000000
         H            0.325814343238    -2.040161195601    -0.017436414671     1.007825032230
         H            2.639667343238     1.581797804399    -0.012426414671     1.007825032230
         H           -1.671221656762     1.763515804399     0.012940585329     1.007825032230
         H            2.758498343238    -2.118377195601    -0.433059414671     1.007825032230
         H            3.708110343238    -0.626973195601    -0.532305414671     1.007825032230
         H            3.254573343238    -1.283830195601     1.044262585329     1.007825032230
         H            0.557493343238     2.918755804399     0.005724585329     1.007825032230
         H           -2.049584656762    -1.998805195601    -0.009731414671     1.007825032230

  Basis Set: AUG-CC-PVTZ
    Blend: AUG-CC-PVTZ
  Basis Set: (AUG-CC-PVTZ AUX)
    Blend: AUG-CC-PVTZ-JKFIT
	 Reference Energy          =    -382.5945786804633144 [Eh]
	 Singles Energy            =      -0.0000000000000000 [Eh]
	 Same-Spin Energy          =      -0.4081530063610018 [Eh]
	 Opposite-Spin Energy      =      -1.2865831244898813 [Eh]
	 Correlation Energy        =      -1.6947361308508830 [Eh]
	 Total Energy              =    -384.2893148113141706 [Eh]

	 ================> DF-SCS-MP2 Energies <==================
	-----------------------------------------------------------
	 SCS Same-Spin Scale       =       0.3333333333333333 [-]
	 SCS Opposite-Spin Scale   =       1.2000000000000000 [-]
	 SCS Same-Spin Energy      =      -0.1360510021203339 [Eh]
	 SCS Opposite-Spin Energy  =      -1.5438997493878575 [Eh]
	 SCS Correlation Energy    =      -1.6799507515081913 [Eh]
	 SCS Total Energy          =    -384.2745294319715299 [Eh]
	-----------------------------------------------------------

  Dipole Moment: [D]
     X:     3.6917      Y:    -0.4588      Z:     0.0321     Total:     3.7202

*** Psi4 exiting successfully. Buy a developer a beer!
