                               Psi4 1.3.2 release

  ==> Input File <==

--------------------------------------------------------------------------
#psi4
#
memory 32 gb

molecule  {
0 1
  O       -3.2622350    -0.3059220     0.0067540
  C        1.5611120    -0.3149990    -0.0153800
  C        0.3099430    -0.9407630    -0.0100630
  C       -0.8692280    -0.1880260    -0.0014190
  C        1.5994260     1.0858870    -0.0069900
  C       -0.8168260     1.2117300     0.0064260
  C        0.4233030     1.8430470     0.0013400
  C        2.9170428    -1.1762282     0.0153817
  C       -2.1766910    -0.8792860    -0.0025100
  H        0.2498670    -2.0299540    -0.0200910
  H        2.5637200     1.5920050    -0.0150810
  H       -1.7471690     1.7737230     0.0102860
  H        2.6825510    -2.1081700    -0.4357140
  H        3.6321630    -0.6167660    -0.5349600
  H        3.1786260    -1.2736230     1.0416080
  H        0.4815460     2.9289630     0.0030700
  H       -2.1255320    -1.9885980    -0.0123860
units angstrom
no_reorient  #important for SAPT in psi4, default
symmetry c1  #important for SAPT in psi4, default
}

set PROPERTIES_ORIGIN ["COM"]
properties('MP2/aug-cc-pvtz', properties = ['dipole'])
--------------------------------------------------------------------------

    Molecular point group: c1
  Charge       = 0
  Multiplicity = 1
  Basis Set: AUG-CC-PVTZ
    Blend: AUG-CC-PVTZ
  Basis Set: (AUG-CC-PVTZ AUX)
    Blend: AUG-CC-PVTZ-JKFIT

    Orbital Energies [Eh]
    ---------------------

    Doubly Occupied:

       1A    -20.553803     2A    -11.336387     3A    -11.262481
       4A    -11.256866     5A    -11.253887     6A    -11.252374
       7A    -11.250132     8A    -11.248909     9A    -11.236500
      10A     -1.378494    11A     -1.170055    12A     -1.057261
      13A     -1.041425    14A     -0.952054    15A     -0.891067
      16A     -0.834227    17A     -0.771173    18A     -0.708138
      19A     -0.677767    20A     -0.647853    21A     -0.619568
      22A     -0.607419    23A     -0.601496    24A     -0.570491
      25A     -0.569226    26A     -0.545939    27A     -0.520548
      28A     -0.491540    29A     -0.486701    30A     -0.427821
      31A     -0.353095    32A     -0.341205

  @DF-RHF Final Energy:  -382.59053839344210

   => Energetics <=

    Nuclear Repulsion Energy =            394.6407876227684710
    One-Electron Energy =               -1300.6308510099370324
    Two-Electron Energy =                 523.3995249937264589
    Total Energy =                       -382.5905383934421025
  Basis Set: (AUG-CC-PVTZ AUX)
    Blend: AUG-CC-PVTZ-RI
    Molecular point group: c1

    Geometry (in Angstrom), charge = 0, multiplicity = 1:

       Center              X                  Y                   Z               Mass
    ------------   -----------------  -----------------  -----------------  -----------------
         O           -3.197127451350    -0.314811467176     0.006866633662    15.994914619570
         C            1.626219548650    -0.323888467176    -0.015267366338    12.000000000000
         C            0.375050548650    -0.949652467176    -0.009950366338    12.000000000000
         C           -0.804120451350    -0.196915467176    -0.001306366338    12.000000000000
         C            1.664533548650     1.076997532824    -0.006877366338    12.000000000000
         C           -0.751718451350     1.202840532824     0.006538633662    12.000000000000
         C            0.488410548650     1.834157532824     0.001452633662    12.000000000000
         C            2.982150348650    -1.185117667176     0.015494333662    12.000000000000
         C           -2.111583451350    -0.888175467176    -0.002397366338    12.000000000000
         H            0.314974548650    -2.038843467176    -0.019978366338     1.007825032230
         H            2.628827548650     1.583115532824    -0.014968366338     1.007825032230
         H           -1.682061451350     1.764833532824     0.010398633662     1.007825032230
         H            2.747658548650    -2.117059467176    -0.435601366338     1.007825032230
         H            3.697270548650    -0.625655467176    -0.534847366338     1.007825032230
         H            3.243733548650    -1.282512467176     1.041720633662     1.007825032230
         H            0.546653548650     2.920073532824     0.003182633662     1.007825032230
         H           -2.060424451350    -1.997487467176    -0.012273366338     1.007825032230

  Basis Set: AUG-CC-PVTZ
    Blend: AUG-CC-PVTZ
  Basis Set: (AUG-CC-PVTZ AUX)
    Blend: AUG-CC-PVTZ-JKFIT
	 Reference Energy          =    -382.5905383934421025 [Eh]
	 Singles Energy            =      -0.0000000000000000 [Eh]
	 Same-Spin Energy          =      -0.4076750020640085 [Eh]
	 Opposite-Spin Energy      =      -1.2862930336803788 [Eh]
	 Correlation Energy        =      -1.6939680357443874 [Eh]
	 Total Energy              =    -384.2845064291864787 [Eh]

	 ================> DF-SCS-MP2 Energies <==================
	-----------------------------------------------------------
	 SCS Same-Spin Scale       =       0.3333333333333333 [-]
	 SCS Opposite-Spin Scale   =       1.2000000000000000 [-]
	 SCS Same-Spin Energy      =      -0.1358916673546695 [Eh]
	 SCS Opposite-Spin Energy  =      -1.5435516404164547 [Eh]
	 SCS Correlation Energy    =      -1.6794433077711242 [Eh]
	 SCS Total Energy          =    -384.2699817012132257 [Eh]
	-----------------------------------------------------------

  Dipole Moment: [D]
     X:     3.6684      Y:    -0.4824      Z:     0.0187     Total:     3.7001

*** Psi4 exiting successfully. Buy a developer a beer!
