                               Psi4 1.3.2 release

  ==> Input File <==

--------------------------------------------------------------------------
#psi4
#
memory 32 gb

molecule  {
0 1
  O       -3.2520621    -0.2870642     0.0068820
  C        1.5611120    -0.3149990    -0.0153800
  C        0.3099430    -0.9407630    -0.0100630
  C       -0.8692280    -0.1880260    -0.0014190
  C        1.5994260     1.0858870    -0.0069900
  C       -0.8168260     1.2117300     0.0064260
  C        0.4233030     1.8430470     0.0013400
  C        2.8326460    -1.1226230     0.0134670
  C       -2.1766910    -0.8792860    -0.0025100
  H        0.2498670    -2.0299540    -0.0200910
  H        2.5637200     1.5920050    -0.0150810
  H       -1.7471690     1.7737230     0.0102860
  H        2.6825510    -2.1081700    -0.4357140
  H        3.6321630    -0.6167660    -0.5349600
  H        3.1786260    -1.2736230     1.0416080
  H        0.4815460     2.9289630     0.0030700
  H       -2.1255320    -1.9885980    -0.0123860
units angstrom
no_reorient  #important for SAPT in psi4, default
symmetry c1  #important for SAPT in psi4, default
}

set PROPERTIES_ORIGIN ["COM"]
properties('MP2/aug-cc-pvtz', properties = ['dipole'])
--------------------------------------------------------------------------

    Molecular point group: c1
  Charge       = 0
  Multiplicity = 1
  Basis Set: AUG-CC-PVTZ
    Blend: AUG-CC-PVTZ
  Basis Set: (AUG-CC-PVTZ AUX)
    Blend: AUG-CC-PVTZ-JKFIT

    Orbital Energies [Eh]
    ---------------------

    Doubly Occupied:

       1A    -20.554232     2A    -11.336948     3A    -11.258842
       4A    -11.256420     5A    -11.253550     6A    -11.252052
       7A    -11.249995     8A    -11.248797     9A    -11.237610
      10A     -1.379163    11A     -1.172445    12A     -1.065312
      13A     -1.042564    14A     -0.948222    15A     -0.891723
      16A     -0.834379    17A     -0.772267    18A     -0.708994
      19A     -0.679012    20A     -0.649675    21A     -0.619464
      22A     -0.608657    23A     -0.590504    24A     -0.583111
      25A     -0.552643    26A     -0.544583    27A     -0.519717
      28A     -0.502342    29A     -0.488881    30A     -0.428862
      31A     -0.353141    32A     -0.339138

  @DF-RHF Final Energy:  -382.59754093880645

   => Energetics <=

    Nuclear Repulsion Energy =            396.4137045857408452
    One-Electron Energy =               -1304.1760082994774166
    Two-Electron Energy =                 525.1647627749301819
    Total Energy =                       -382.5975409388064463
  Basis Set: (AUG-CC-PVTZ AUX)
    Blend: AUG-CC-PVTZ-RI
    Molecular point group: c1

    Geometry (in Angstrom), charge = 0, multiplicity = 1:

       Center              X                  Y                   Z               Mass
    ------------   -----------------  -----------------  -----------------  -----------------
         O           -3.179874220444    -0.303823989179     0.007168958868    15.994914619570
         C            1.633299879556    -0.331758789179    -0.015093041132    12.000000000000
         C            0.382130879556    -0.957522789179    -0.009776041132    12.000000000000
         C           -0.797040120444    -0.204785789179    -0.001132041132    12.000000000000
         C            1.671613879556     1.069127210821    -0.006703041132    12.000000000000
         C           -0.744638120444     1.194970210821     0.006712958868    12.000000000000
         C            0.495490879556     1.826287210821     0.001626958868    12.000000000000
         C            2.904833879556    -1.139382789179     0.013753958868    12.000000000000
         C           -2.104503120444    -0.896045789179    -0.002223041132    12.000000000000
         H            0.322054879556    -2.046713789179    -0.019804041132     1.007825032230
         H            2.635907879556     1.575245210821    -0.014794041132     1.007825032230
         H           -1.674981120444     1.756963210821     0.010572958868     1.007825032230
         H            2.754738879556    -2.124929789179    -0.435427041132     1.007825032230
         H            3.704350879556    -0.633525789179    -0.534673041132     1.007825032230
         H            3.250813879556    -1.290382789179     1.041894958868     1.007825032230
         H            0.553733879556     2.912203210821     0.003356958868     1.007825032230
         H           -2.053344120444    -2.005357789179    -0.012099041132     1.007825032230

  Basis Set: AUG-CC-PVTZ
    Blend: AUG-CC-PVTZ
  Basis Set: (AUG-CC-PVTZ AUX)
    Blend: AUG-CC-PVTZ-JKFIT
	 Reference Energy          =    -382.5975409388064463 [Eh]
	 Singles Energy            =      -0.0000000000000000 [Eh]
	 Same-Spin Energy          =      -0.4081629054206001 [Eh]
	 Opposite-Spin Energy      =      -1.2864197198988787 [Eh]
	 Correlation Energy        =      -1.6945826253194789 [Eh]
	 Total Energy              =    -384.2921235641259159 [Eh]

	 ================> DF-SCS-MP2 Energies <==================
	-----------------------------------------------------------
	 SCS Same-Spin Scale       =       0.3333333333333333 [-]
	 SCS Opposite-Spin Scale   =       1.2000000000000000 [-]
	 SCS Same-Spin Energy      =      -0.1360543018068667 [Eh]
	 SCS Opposite-Spin Energy  =      -1.5437036638786543 [Eh]
	 SCS Correlation Energy    =      -1.6797579656855210 [Eh]
	 SCS Total Energy          =    -384.2772989044919427 [Eh]
	-----------------------------------------------------------

  Dipole Moment: [D]
     X:     3.6409      Y:    -0.5358      Z:     0.0219     Total:     3.6801

*** Psi4 exiting successfully. Buy a developer a beer!
