                               Psi4 1.3.2 release

  ==> Input File <==

--------------------------------------------------------------------------
#psi4
#
memory 32 gb

molecule  {
0 1
  O       -3.2622350    -0.3059220     0.0067540
  C        1.5611120    -0.3149990    -0.0153800
  C        0.3099430    -0.9407630    -0.0100630
  C       -0.8692280    -0.1880260    -0.0014190
  C        1.5994260     1.0858870    -0.0069900
  C       -0.8168260     1.2117300     0.0064260
  C        0.4233030     1.8430470     0.0013400
  C        2.8326460    -1.1226230     0.0134670
  C       -1.9998485    -0.9726909    -0.0040192
  H        0.2498670    -2.0299540    -0.0200910
  H        2.5637200     1.5920050    -0.0150810
  H       -1.7471690     1.7737230     0.0102860
  H        2.6825510    -2.1081700    -0.4357140
  H        3.6321630    -0.6167660    -0.5349600
  H        3.1786260    -1.2736230     1.0416080
  H        0.4815460     2.9289630     0.0030700
  H       -2.1255320    -1.9885980    -0.0123860
units angstrom
no_reorient  #important for SAPT in psi4, default
symmetry c1  #important for SAPT in psi4, default
}

set PROPERTIES_ORIGIN ["COM"]
properties('MP2/aug-cc-pvtz', properties = ['dipole'])
--------------------------------------------------------------------------

    Molecular point group: c1
  Charge       = 0
  Multiplicity = 1
  Basis Set: AUG-CC-PVTZ
    Blend: AUG-CC-PVTZ
  Basis Set: (AUG-CC-PVTZ AUX)
    Blend: AUG-CC-PVTZ-JKFIT

    Orbital Energies [Eh]
    ---------------------

    Doubly Occupied:

       1A    -20.532157     2A    -11.338956     3A    -11.267940
       4A    -11.267089     5A    -11.264600     6A    -11.263015
       7A    -11.257562     8A    -11.255508     9A    -11.243240
      10A     -1.264670    11A     -1.182764    12A     -1.079731
      13A     -1.059559    14A     -0.955556    15A     -0.918030
      16A     -0.847173    17A     -0.787441    18A     -0.719363
      19A     -0.688400    20A     -0.662745    21A     -0.617950
      22A     -0.596709    23A     -0.590503    24A     -0.565457
      25A     -0.551908    26A     -0.532672    27A     -0.520446
      28A     -0.499024    29A     -0.448496    30A     -0.425067
      31A     -0.356240    32A     -0.341958

  @DF-RHF Final Energy:  -382.52554549278364

   => Energetics <=

    Nuclear Repulsion Energy =            395.8434501907072445
    One-Electron Energy =               -1302.9341384136632769
    Two-Electron Energy =                 524.5651427301723970
    Total Energy =                       -382.5255454927836354
  Basis Set: (AUG-CC-PVTZ AUX)
    Blend: AUG-CC-PVTZ-RI
    Molecular point group: c1

    Geometry (in Angstrom), charge = 0, multiplicity = 1:

       Center              X                  Y                   Z               Mass
    ------------   -----------------  -----------------  -----------------  -----------------
         O           -3.206367592636    -0.310833403825     0.007208859636    15.994914619570
         C            1.616979407364    -0.319910403825    -0.014925140364    12.000000000000
         C            0.365810407364    -0.945674403825    -0.009608140364    12.000000000000
         C           -0.813360592636    -0.192937403825    -0.000964140364    12.000000000000
         C            1.655293407364     1.080975596175    -0.006535140364    12.000000000000
         C           -0.760958592636     1.206818596175     0.006880859636    12.000000000000
         C            0.479170407364     1.838135596175     0.001794859636    12.000000000000
         C            2.888513407364    -1.127534403825     0.013921859636    12.000000000000
         C           -1.943981092636    -0.977602303825    -0.003564340364    12.000000000000
         H            0.305734407364    -2.034865403825    -0.019636140364     1.007825032230
         H            2.619587407364     1.587093596175    -0.014626140364     1.007825032230
         H           -1.691301592636     1.768811596175     0.010740859636     1.007825032230
         H            2.738418407364    -2.113081403825    -0.435259140364     1.007825032230
         H            3.688030407364    -0.621677403825    -0.534505140364     1.007825032230
         H            3.234493407364    -1.278534403825     1.042062859636     1.007825032230
         H            0.537413407364     2.924051596175     0.003524859636     1.007825032230
         H           -2.069664592636    -1.993509403825    -0.011931140364     1.007825032230

  Basis Set: AUG-CC-PVTZ
    Blend: AUG-CC-PVTZ
  Basis Set: (AUG-CC-PVTZ AUX)
    Blend: AUG-CC-PVTZ-JKFIT
	 Reference Energy          =    -382.5255454927836354 [Eh]
	 Singles Energy            =      -0.0000000000000000 [Eh]
	 Same-Spin Energy          =      -0.4151764901223564 [Eh]
	 Opposite-Spin Energy      =      -1.3016313473704448 [Eh]
	 Correlation Energy        =      -1.7168078374928011 [Eh]
	 Total Energy              =    -384.2423533302764440 [Eh]

	 ================> DF-SCS-MP2 Energies <==================
	-----------------------------------------------------------
	 SCS Same-Spin Scale       =       0.3333333333333333 [-]
	 SCS Opposite-Spin Scale   =       1.2000000000000000 [-]
	 SCS Same-Spin Energy      =      -0.1383921633741188 [Eh]
	 SCS Opposite-Spin Energy  =      -1.5619576168445337 [Eh]
	 SCS Correlation Energy    =      -1.7003497802186525 [Eh]
	 SCS Total Energy          =    -384.2258952730022656 [Eh]
	-----------------------------------------------------------

  Dipole Moment: [D]
     X:     4.4647      Y:    -0.5292      Z:     0.0193     Total:     4.4960

*** Psi4 exiting successfully. Buy a developer a beer!
