                               Psi4 1.4a3.dev225

  ==> Input File <==

--------------------------------------------------------------------------
#psi4
#
memory 32 gb

molecule  {
0 1
  O       -3.2622200    -0.3059070     0.0064780
  C        1.5611130    -0.3149950    -0.0153890
  C        0.3099490    -0.9407980    -0.0100380
  C       -0.8691990    -0.1880560    -0.0012000
  C        1.5993970     1.0858760    -0.0071180
  C       -0.8168460     1.2117110     0.0065060
  C        0.4232600     1.8430520     0.0014160
  C        2.8326670    -1.1225680     0.0134080
  C       -2.2208929    -0.9026578    -0.0024406
  H        0.2498950    -2.0299870    -0.0199420
  H        2.5636680     1.5920400    -0.0152260
  H       -1.7472230     1.7736450     0.0105140
  H        2.6826800    -2.1080670    -0.4359240
  H        3.6322070    -0.6166190    -0.5349020
  H        3.1786010    -1.2737110     1.0415460
  H        0.4815700     2.9289630     0.0030200
  H       -2.1255450    -1.9886100    -0.0120270
units angstrom
no_reorient  #important for SAPT in psi4, default
symmetry c1  #important for SAPT in psi4, default
}

set PROPERTIES_ORIGIN ["COM"]
properties('MP2/aug-cc-pvtz', properties = ['dipole'])
--------------------------------------------------------------------------

    Molecular point group: c1
  Charge       = 0
  Multiplicity = 1
  Basis Set: AUG-CC-PVTZ
    Blend: AUG-CC-PVTZ
  Basis Set: (AUG-CC-PVTZ AUX)
    Blend: AUG-CC-PVTZ-JKFIT

    Orbital Energies [Eh]
    ---------------------

    Doubly Occupied:

       1A    -20.559299     2A    -11.337401     3A    -11.256912
       4A    -11.253427     5A    -11.252205     6A    -11.250040
       7A    -11.247777     8A    -11.246144     9A    -11.236071
      10A     -1.400440    11A     -1.168868    12A     -1.060990
      13A     -1.037330    14A     -0.945960    15A     -0.885376
      16A     -0.832278    17A     -0.774944    18A     -0.707800
      19A     -0.679479    20A     -0.648280    21A     -0.629394
      22A     -0.607837    23A     -0.588829    24A     -0.581004
      25A     -0.551050    26A     -0.550849    27A     -0.519679
      28A     -0.500282    29A     -0.492323    30A     -0.426032
      31A     -0.350920    32A     -0.337164

  @DF-RHF Final Energy:  -382.59844093154078

   => Energetics <=

    Nuclear Repulsion Energy =            395.8078919492066348
    One-Electron Energy =               -1302.9798988875058967
    Two-Electron Energy =                 524.5735660067584831
    Total Energy =                       -382.5984409315408357
  Basis Set: (AUG-CC-PVTZ AUX)
    Blend: AUG-CC-PVTZ-RI
    Molecular point group: c1

    Geometry (in Angstrom), charge = 0, multiplicity = 1:

       Center              X                  Y                   Z               Mass
    ------------   -----------------  -----------------  -----------------  -----------------
         O           -3.184257922052    -0.317817879898     0.006788710706    15.994914619570
         C            1.639075077948    -0.326905879898    -0.015078289294    12.000000000000
         C            0.387911077948    -0.952708879898    -0.009727289294    12.000000000000
         C           -0.791236922052    -0.199966879898    -0.000889289294    12.000000000000
         C            1.677359077948     1.073965120102    -0.006807289294    12.000000000000
         C           -0.738883922052     1.199800120102     0.006816710706    12.000000000000
         C            0.501222077948     1.831141120102     0.001726710706    12.000000000000
         C            2.910629077948    -1.134478879898     0.013718710706    12.000000000000
         C           -2.142930822052    -0.914568679898    -0.002129889294    12.000000000000
         H            0.327857077948    -2.041897879898    -0.019631289294     1.007825032230
         H            2.641630077948     1.580129120102    -0.014915289294     1.007825032230
         H           -1.669260922052     1.761734120102     0.010824710706     1.007825032230
         H            2.760642077948    -2.119977879898    -0.435613289294     1.007825032230
         H            3.710169077948    -0.628529879898    -0.534591289294     1.007825032230
         H            3.256563077948    -1.285621879898     1.041856710706     1.007825032230
         H            0.559532077948     2.917052120102     0.003330710706     1.007825032230
         H           -2.047582922052    -2.000520879898    -0.011716289294     1.007825032230

  Basis Set: AUG-CC-PVTZ
    Blend: AUG-CC-PVTZ
  Basis Set: (AUG-CC-PVTZ AUX)
    Blend: AUG-CC-PVTZ-JKFIT
	 Reference Energy          =    -382.5984409315407788 [Eh]
	 Singles Energy            =      -0.0000000000000000 [Eh]
	 Same-Spin Energy          =      -0.4071089997690382 [Eh]
	 Opposite-Spin Energy      =      -1.2844714610570804 [Eh]
	 Correlation Energy        =      -1.6915804608261187 [Eh]
	 Total Energy              =    -384.2900213923668957 [Eh]

	 ================> DF-SCS-MP2 Energies <==================
	-----------------------------------------------------------
	 SCS Same-Spin Scale       =       0.3333333333333333 [-]
	 SCS Opposite-Spin Scale   =       1.2000000000000000 [-]
	 SCS Same-Spin Energy      =      -0.1357029999230127 [Eh]
	 SCS Opposite-Spin Energy  =      -1.5413657532684966 [Eh]
	 SCS Correlation Energy    =      -1.6770687531915094 [Eh]
	 SCS Total Energy          =    -384.2755096847322989 [Eh]
	-----------------------------------------------------------

  Dipole Moment: [D]
     X:     3.3142      Y:    -0.6344      Z:     0.0228     Total:     3.3745

*** Psi4 exiting successfully. Buy a developer a beer!
