                               Psi4 1.3.2 release

  ==> Input File <==

--------------------------------------------------------------------------
#psi4
#
memory 32 gb

molecule  {
0 1
  O       -3.2622350    -0.3059220     0.0067540
  C        1.5611120    -0.3149990    -0.0153800
  C        0.3099430    -0.9407630    -0.0100630
  C       -0.8692280    -0.1880260    -0.0014190
  C        1.5994260     1.0858870    -0.0069900
  C       -0.8168260     1.2117300     0.0064260
  C        0.4233030     1.8430470     0.0013400
  C        2.8326460    -1.1226230     0.0134670
  C       -2.3535003    -0.9727657    -0.0026575
  H        0.2498670    -2.0299540    -0.0200910
  H        2.5637200     1.5920050    -0.0150810
  H       -1.7471690     1.7737230     0.0102860
  H        2.6825510    -2.1081700    -0.4357140
  H        3.6321630    -0.6167660    -0.5349600
  H        3.1786260    -1.2736230     1.0416080
  H        0.4815460     2.9289630     0.0030700
  H       -2.1255320    -1.9885980    -0.0123860
units angstrom
no_reorient  #important for SAPT in psi4, default
symmetry c1  #important for SAPT in psi4, default
}

set PROPERTIES_ORIGIN ["COM"]
properties('MP2/aug-cc-pvtz', properties = ['dipole'])
--------------------------------------------------------------------------

    Molecular point group: c1
  Charge       = 0
  Multiplicity = 1
  Basis Set: AUG-CC-PVTZ
    Blend: AUG-CC-PVTZ
  Basis Set: (AUG-CC-PVTZ AUX)
    Blend: AUG-CC-PVTZ-JKFIT

    Orbital Energies [Eh]
    ---------------------

    Doubly Occupied:

       1A    -20.576037     2A    -11.342935     3A    -11.249588
       4A    -11.245208     5A    -11.241176     6A    -11.240978
       7A    -11.238542     8A    -11.235753     9A    -11.230483
      10A     -1.465237    11A     -1.157322    12A     -1.049681
      13A     -1.020716    14A     -0.938073    15A     -0.875750
      16A     -0.824953    17A     -0.779510    18A     -0.706480
      19A     -0.696240    20A     -0.651253    21A     -0.635034
      22A     -0.605485    23A     -0.588359    24A     -0.580170
      25A     -0.573167    26A     -0.544662    27A     -0.520244
      28A     -0.492098    29A     -0.490833    30A     -0.402348
      31A     -0.341479    32A     -0.329008

  @DF-RHF Final Energy:  -382.56886122812904

   => Energetics <=

    Nuclear Repulsion Energy =            394.7016799671851004
    One-Electron Energy =               -1300.8034730591737116
    Two-Electron Energy =                 523.5329318638596305
    Total Energy =                       -382.5688612281289807
  Basis Set: (AUG-CC-PVTZ AUX)
    Blend: AUG-CC-PVTZ-RI
    Molecular point group: c1

    Geometry (in Angstrom), charge = 0, multiplicity = 1:

       Center              X                  Y                   Z               Mass
    ------------   -----------------  -----------------  -----------------  -----------------
         O           -3.171019354716    -0.310825927408     0.007072754870    15.994914619570
         C            1.652327645284    -0.319902927408    -0.015061245130    12.000000000000
         C            0.401158645284    -0.945666927408    -0.009744245130    12.000000000000
         C           -0.778012354716    -0.192929927408    -0.001100245130    12.000000000000
         C            1.690641645284     1.080983072592    -0.006671245130    12.000000000000
         C           -0.725610354716     1.206826072592     0.006744754870    12.000000000000
         C            0.514518645284     1.838143072592     0.001658754870    12.000000000000
         C            2.923861645284    -1.127526927408     0.013785754870    12.000000000000
         C           -2.262284654716    -0.977669627408    -0.002338745130    12.000000000000
         H            0.341082645284    -2.034857927408    -0.019772245130     1.007825032230
         H            2.654935645284     1.587101072592    -0.014762245130     1.007825032230
         H           -1.655953354716     1.768819072592     0.010604754870     1.007825032230
         H            2.773766645284    -2.113073927408    -0.435395245130     1.007825032230
         H            3.723378645284    -0.621669927408    -0.534641245130     1.007825032230
         H            3.269841645284    -1.278526927408     1.041926754870     1.007825032230
         H            0.572761645284     2.924059072592     0.003388754870     1.007825032230
         H           -2.034316354716    -1.993501927408    -0.012067245130     1.007825032230

  Basis Set: AUG-CC-PVTZ
    Blend: AUG-CC-PVTZ
  Basis Set: (AUG-CC-PVTZ AUX)
    Blend: AUG-CC-PVTZ-JKFIT
	 Reference Energy          =    -382.5688612281290375 [Eh]
	 Singles Energy            =      -0.0000000000000000 [Eh]
	 Same-Spin Energy          =      -0.4056022967357374 [Eh]
	 Opposite-Spin Energy      =      -1.2814488695342927 [Eh]
	 Correlation Energy        =      -1.6870511662700300 [Eh]
	 Total Energy              =    -384.2559123943990471 [Eh]

	 ================> DF-SCS-MP2 Energies <==================
	-----------------------------------------------------------
	 SCS Same-Spin Scale       =       0.3333333333333333 [-]
	 SCS Opposite-Spin Scale   =       1.2000000000000000 [-]
	 SCS Same-Spin Energy      =      -0.1352007655785791 [Eh]
	 SCS Opposite-Spin Energy  =      -1.5377386434411513 [Eh]
	 SCS Correlation Energy    =      -1.6729394090197305 [Eh]
	 SCS Total Energy          =    -384.2418006371487422 [Eh]
	-----------------------------------------------------------

  Dipole Moment: [D]
     X:     2.0928      Y:    -1.0801      Z:     0.0226     Total:     2.3552

*** Psi4 exiting successfully. Buy a developer a beer!
