                               Psi4 1.4a3.dev225

  ==> Input File <==

--------------------------------------------------------------------------
#psi4
#
memory 32 gb

molecule  {
0 1
  O       -3.2622200    -0.3059070     0.0064780
  C        1.5611130    -0.3149950    -0.0153890
  C        0.3099490    -0.9407980    -0.0100380
  C       -0.8691990    -0.1880560    -0.0012000
  C        1.5993970     1.0858760    -0.0071180
  C       -0.8168460     1.2117110     0.0065060
  C        0.4232600     1.8430520     0.0014160
  C        2.8157873    -1.1118476     0.0130257
  C       -2.1766900    -0.8792890    -0.0024000
  H        0.2498950    -2.0299870    -0.0199420
  H        2.5636680     1.5920400    -0.0152260
  H       -1.7472230     1.7736450     0.0105140
  H        2.6826800    -2.1080670    -0.4359240
  H        3.6322070    -0.6166190    -0.5349020
  H        3.1786010    -1.2737110     1.0415460
  H        0.4815700     2.9289630     0.0030200
  H       -2.1255450    -1.9886100    -0.0120270
units angstrom
no_reorient  #important for SAPT in psi4, default
symmetry c1  #important for SAPT in psi4, default
}

set PROPERTIES_ORIGIN ["COM"]
properties('MP2/aug-cc-pvtz', properties = ['dipole'])
--------------------------------------------------------------------------

    Molecular point group: c1
  Charge       = 0
  Multiplicity = 1
  Basis Set: AUG-CC-PVTZ
    Blend: AUG-CC-PVTZ
  Basis Set: (AUG-CC-PVTZ AUX)
    Blend: AUG-CC-PVTZ-JKFIT

    Orbital Energies [Eh]
    ---------------------

    Doubly Occupied:

       1A    -20.554198     2A    -11.336737     3A    -11.258468
       4A    -11.256851     5A    -11.254011     6A    -11.252801
       7A    -11.250569     8A    -11.249343     9A    -11.238493
      10A     -1.378861    11A     -1.173661    12A     -1.067908
      13A     -1.043234    14A     -0.947975    15A     -0.892013
      16A     -0.834681    17A     -0.772529    18A     -0.709340
      19A     -0.679309    20A     -0.650842    21A     -0.619241
      22A     -0.609512    23A     -0.589196    24A     -0.586371
      25A     -0.549685    26A     -0.544014    27A     -0.519801
      28A     -0.504758    29A     -0.488518    30A     -0.428517
      31A     -0.353672    32A     -0.339149

  @DF-RHF Final Energy:  -382.59700134197038

   => Energetics <=

    Nuclear Repulsion Energy =            396.5578074242206981
    One-Electron Energy =               -1304.4411059598296561
    Two-Electron Energy =                 525.2862971936385748
    Total Energy =                       -382.5970013419703264
  Basis Set: (AUG-CC-PVTZ AUX)
    Blend: AUG-CC-PVTZ-RI
    Molecular point group: c1

    Geometry (in Angstrom), charge = 0, multiplicity = 1:

       Center              X                  Y                   Z               Mass
    ------------   -----------------  -----------------  -----------------  -----------------
         O           -3.186988933103    -0.321225166817     0.006822864337    15.994914619570
         C            1.636344066897    -0.330313166817    -0.015044135663    12.000000000000
         C            0.385180066897    -0.956116166817    -0.009693135663    12.000000000000
         C           -0.793967933103    -0.203374166817    -0.000855135663    12.000000000000
         C            1.674628066897     1.070557833183    -0.006773135663    12.000000000000
         C           -0.741614933103     1.196392833183     0.006850864337    12.000000000000
         C            0.498491066897     1.827733833183     0.001760864337    12.000000000000
         C            2.891018366897    -1.127165766817     0.013370564337    12.000000000000
         C           -2.101458933103    -0.894607166817    -0.002055135663    12.000000000000
         H            0.325126066897    -2.045305166817    -0.019597135663     1.007825032230
         H            2.638899066897     1.576721833183    -0.014881135663     1.007825032230
         H           -1.671991933103     1.758326833183     0.010858864337     1.007825032230
         H            2.757911066897    -2.123385166817    -0.435579135663     1.007825032230
         H            3.707438066897    -0.631937166817    -0.534557135663     1.007825032230
         H            3.253832066897    -1.289029166817     1.041890864337     1.007825032230
         H            0.556801066897     2.913644833183     0.003364864337     1.007825032230
         H           -2.050313933103    -2.003928166817    -0.011682135663     1.007825032230

  Basis Set: AUG-CC-PVTZ
    Blend: AUG-CC-PVTZ
  Basis Set: (AUG-CC-PVTZ AUX)
    Blend: AUG-CC-PVTZ-JKFIT
	 Reference Energy          =    -382.5970013419703832 [Eh]
	 Singles Energy            =      -0.0000000000000000 [Eh]
	 Same-Spin Energy          =      -0.4083113678040572 [Eh]
	 Opposite-Spin Energy      =      -1.2865781827870542 [Eh]
	 Correlation Energy        =      -1.6948895505911115 [Eh]
	 Total Energy              =    -384.2918908925614687 [Eh]

	 ================> DF-SCS-MP2 Energies <==================
	-----------------------------------------------------------
	 SCS Same-Spin Scale       =       0.3333333333333333 [-]
	 SCS Opposite-Spin Scale   =       1.2000000000000000 [-]
	 SCS Same-Spin Energy      =      -0.1361037892680191 [Eh]
	 SCS Opposite-Spin Energy  =      -1.5438938193444649 [Eh]
	 SCS Correlation Energy    =      -1.6799976086124839 [Eh]
	 SCS Total Energy          =    -384.2769989505828789 [Eh]
	-----------------------------------------------------------

  Dipole Moment: [D]
     X:     3.6856      Y:    -0.4946      Z:     0.0237     Total:     3.7187

*** Psi4 exiting successfully. Buy a developer a beer!
