                               Psi4 1.3.2 release

  ==> Input File <==

--------------------------------------------------------------------------
#psi4
#
memory 32 gb

molecule  {
0 1
  O       -3.2415617    -0.2683869     0.0070071
  C        1.5611120    -0.3149990    -0.0153800
  C        0.3099430    -0.9407630    -0.0100630
  C       -0.8692280    -0.1880260    -0.0014190
  C        1.5994260     1.0858870    -0.0069900
  C       -0.8168260     1.2117300     0.0064260
  C        0.4233030     1.8430470     0.0013400
  C        2.8326460    -1.1226230     0.0134670
  C       -2.1766910    -0.8792860    -0.0025100
  H        0.2498670    -2.0299540    -0.0200910
  H        2.5637200     1.5920050    -0.0150810
  H       -1.7471690     1.7737230     0.0102860
  H        2.6825510    -2.1081700    -0.4357140
  H        3.6321630    -0.6167660    -0.5349600
  H        3.1786260    -1.2736230     1.0416080
  H        0.4815460     2.9289630     0.0030700
  H       -2.1255320    -1.9885980    -0.0123860
units angstrom
no_reorient  #important for SAPT in psi4, default
symmetry c1  #important for SAPT in psi4, default
}

set PROPERTIES_ORIGIN ["COM"]
properties('MP2/aug-cc-pvtz', properties = ['dipole'])
--------------------------------------------------------------------------

    Molecular point group: c1
  Charge       = 0
  Multiplicity = 1
  Basis Set: AUG-CC-PVTZ
    Blend: AUG-CC-PVTZ
  Basis Set: (AUG-CC-PVTZ AUX)
    Blend: AUG-CC-PVTZ-JKFIT

    Orbital Energies [Eh]
    ---------------------

    Doubly Occupied:

       1A    -20.554328     2A    -11.337226     3A    -11.258449
       4A    -11.255928     5A    -11.253101     6A    -11.251373
       7A    -11.249503     8A    -11.248297     9A    -11.237358
      10A     -1.379557    11A     -1.171957    12A     -1.064820
      13A     -1.042147    14A     -0.947857    15A     -0.891603
      16A     -0.834128    17A     -0.772214    18A     -0.708877
      19A     -0.679021    20A     -0.649159    21A     -0.619745
      22A     -0.608319    23A     -0.590242    24A     -0.582720
      25A     -0.552341    26A     -0.544745    27A     -0.519305
      28A     -0.501909    29A     -0.488578    30A     -0.429230
      31A     -0.352702    32A     -0.338651

  @DF-RHF Final Energy:  -382.59724246981443

   => Energetics <=

    Nuclear Repulsion Energy =            396.6053851505616308
    One-Electron Energy =               -1304.5744776172182355
    Two-Electron Energy =                 525.3718499968421156
    Total Energy =                       -382.5972424698144323
  Basis Set: (AUG-CC-PVTZ AUX)
    Blend: AUG-CC-PVTZ-RI
    Molecular point group: c1

    Geometry (in Angstrom), charge = 0, multiplicity = 1:

       Center              X                  Y                   Z               Mass
    ------------   -----------------  -----------------  -----------------  -----------------
         O           -3.170772758292    -0.287635011706     0.007277392157    15.994914619570
         C            1.631900941708    -0.334247111706    -0.015109707843    12.000000000000
         C            0.380731941708    -0.960011111706    -0.009792707843    12.000000000000
         C           -0.798439058292    -0.207274111706    -0.001148707843    12.000000000000
         C            1.670214941708     1.066638888294    -0.006719707843    12.000000000000
         C           -0.746037058292     1.192481888294     0.006696292157    12.000000000000
         C            0.494091941708     1.823798888294     0.001610292157    12.000000000000
         C            2.903434941708    -1.141871111706     0.013737292157    12.000000000000
         C           -2.105902058292    -0.898534111706    -0.002239707843    12.000000000000
         H            0.320655941708    -2.049202111706    -0.019820707843     1.007825032230
         H            2.634508941708     1.572756888294    -0.014810707843     1.007825032230
         H           -1.676380058292     1.754474888294     0.010556292157     1.007825032230
         H            2.753339941708    -2.127418111706    -0.435443707843     1.007825032230
         H            3.702951941708    -0.636014111706    -0.534689707843     1.007825032230
         H            3.249414941708    -1.292871111706     1.041878292157     1.007825032230
         H            0.552334941708     2.909714888294     0.003340292157     1.007825032230
         H           -2.054743058292    -2.007846111706    -0.012115707843     1.007825032230

  Basis Set: AUG-CC-PVTZ
    Blend: AUG-CC-PVTZ
  Basis Set: (AUG-CC-PVTZ AUX)
    Blend: AUG-CC-PVTZ-JKFIT
	 Reference Energy          =    -382.5972424698144323 [Eh]
	 Singles Energy            =      -0.0000000000000000 [Eh]
	 Same-Spin Energy          =      -0.4082036353775035 [Eh]
	 Opposite-Spin Energy      =      -1.2864509074121138 [Eh]
	 Correlation Energy        =      -1.6946545427896171 [Eh]
	 Total Energy              =    -384.2918970126040676 [Eh]

	 ================> DF-SCS-MP2 Energies <==================
	-----------------------------------------------------------
	 SCS Same-Spin Scale       =       0.3333333333333333 [-]
	 SCS Opposite-Spin Scale   =       1.2000000000000000 [-]
	 SCS Same-Spin Energy      =      -0.1360678784591678 [Eh]
	 SCS Opposite-Spin Energy  =      -1.5437410888945364 [Eh]
	 SCS Correlation Energy    =      -1.6798089673537042 [Eh]
	 SCS Total Energy          =    -384.2770514371681543 [Eh]
	-----------------------------------------------------------

  Dipole Moment: [D]
     X:     3.5964      Y:    -0.5781      Z:     0.0217     Total:     3.6426

*** Psi4 exiting successfully. Buy a developer a beer!
