                               Psi4 1.4a3.dev225

  ==> Input File <==

--------------------------------------------------------------------------
#psi4
#
memory 32 gb

molecule  {
0 1
  O       -3.2622200    -0.3059070     0.0064780
  C        1.5611130    -0.3149950    -0.0153890
  C        0.3099490    -0.9407980    -0.0100380
  C       -0.8691990    -0.1880560    -0.0012000
  C        1.5993970     1.0858760    -0.0071180
  C       -0.8168460     1.2117110     0.0065060
  C        0.4232600     1.8430520     0.0014160
  C        2.8326670    -1.1225680     0.0134080
  C       -2.1766900    -0.8792890    -0.0024000
  H        0.2498950    -2.0299870    -0.0199420
  H        2.5636680     1.5920400    -0.0152260
  H       -1.7472230     1.7736450     0.0105140
  H        2.6826800    -2.1080670    -0.4359240
  H        3.6322070    -0.6166190    -0.5349020
  H        3.1722840    -1.2709510     1.0227716
  H        0.4815700     2.9289630     0.0030200
  H       -2.1255450    -1.9886100    -0.0120270
units angstrom
no_reorient  #important for SAPT in psi4, default
symmetry c1  #important for SAPT in psi4, default
}

set PROPERTIES_ORIGIN ["COM"]
properties('MP2/aug-cc-pvtz', properties = ['dipole'])
--------------------------------------------------------------------------

    Molecular point group: c1
  Charge       = 0
  Multiplicity = 1
  Basis Set: AUG-CC-PVTZ
    Blend: AUG-CC-PVTZ
  Basis Set: (AUG-CC-PVTZ AUX)
    Blend: AUG-CC-PVTZ-JKFIT

    Orbital Energies [Eh]
    ---------------------

    Doubly Occupied:

       1A    -20.554090     2A    -11.336634     3A    -11.259096
       4A    -11.256811     5A    -11.253904     6A    -11.252669
       7A    -11.250425     8A    -11.249205     9A    -11.235450
      10A     -1.378759    11A     -1.172886    12A     -1.066133
      13A     -1.042948    14A     -0.949952    15A     -0.891819
      16A     -0.834713    17A     -0.772537    18A     -0.709170
      19A     -0.678943    20A     -0.650119    21A     -0.619120
      22A     -0.608946    23A     -0.594224    24A     -0.583412
      25A     -0.552739    26A     -0.544717    27A     -0.520050
      28A     -0.502729    29A     -0.489456    30A     -0.428384
      31A     -0.353514    32A     -0.339716

  @DF-RHF Final Energy:  -382.59771150573818

   => Energetics <=

    Nuclear Repulsion Energy =            396.3145845104610316
    One-Electron Energy =               -1303.9580512249403910
    Two-Electron Energy =                 525.0457552087411841
    Total Energy =                       -382.5977115057381752
  Basis Set: (AUG-CC-PVTZ AUX)
    Blend: AUG-CC-PVTZ-RI
    Molecular point group: c1

    Geometry (in Angstrom), charge = 0, multiplicity = 1:

       Center              X                  Y                   Z               Mass
    ------------   -----------------  -----------------  -----------------  -----------------
         O           -3.188623066289    -0.320176809261     0.006942254700    15.994914619570
         C            1.634709933711    -0.329264809261    -0.014924745300    12.000000000000
         C            0.383545933711    -0.955067809261    -0.009573745300    12.000000000000
         C           -0.795602066289    -0.202325809261    -0.000735745300    12.000000000000
         C            1.672993933711     1.071606190739    -0.006653745300    12.000000000000
         C           -0.743249066289     1.197441190739     0.006970254700    12.000000000000
         C            0.496856933711     1.828782190739     0.001880254700    12.000000000000
         C            2.906263933711    -1.136837809261     0.013872254700    12.000000000000
         C           -2.103093066289    -0.893558809261    -0.001935745300    12.000000000000
         H            0.323491933711    -2.044256809261    -0.019477745300     1.007825032230
         H            2.637264933711     1.577770190739    -0.014761745300     1.007825032230
         H           -1.673626066289     1.759375190739     0.010978254700     1.007825032230
         H            2.756276933711    -2.122336809261    -0.435459745300     1.007825032230
         H            3.705803933711    -0.630888809261    -0.534437745300     1.007825032230
         H            3.245880933711    -1.285220809261     1.023235854700     1.007825032230
         H            0.555166933711     2.914693190739     0.003484254700     1.007825032230
         H           -2.051948066289    -2.002879809261    -0.011562745300     1.007825032230

  Basis Set: AUG-CC-PVTZ
    Blend: AUG-CC-PVTZ
  Basis Set: (AUG-CC-PVTZ AUX)
    Blend: AUG-CC-PVTZ-JKFIT
	 Reference Energy          =    -382.5977115057381752 [Eh]
	 Singles Energy            =      -0.0000000000000000 [Eh]
	 Same-Spin Energy          =      -0.4081322431988621 [Eh]
	 Opposite-Spin Energy      =      -1.2862881137567834 [Eh]
	 Correlation Energy        =      -1.6944203569556455 [Eh]
	 Total Energy              =    -384.2921318626937932 [Eh]

	 ================> DF-SCS-MP2 Energies <==================
	-----------------------------------------------------------
	 SCS Same-Spin Scale       =       0.3333333333333333 [-]
	 SCS Opposite-Spin Scale   =       1.2000000000000000 [-]
	 SCS Same-Spin Energy      =      -0.1360440810662873 [Eh]
	 SCS Opposite-Spin Energy  =      -1.5435457365081400 [Eh]
	 SCS Correlation Energy    =      -1.6795898175744273 [Eh]
	 SCS Total Energy          =    -384.2773013233125994 [Eh]
	-----------------------------------------------------------

  Dipole Moment: [D]
     X:     3.6907      Y:    -0.4966      Z:     0.0285     Total:     3.7241

*** Psi4 exiting successfully. Buy a developer a beer!
