                               Psi4 1.3.2 release

  ==> Input File <==

--------------------------------------------------------------------------
#psi4
#
memory 32 gb

molecule  {
0 1
  O       -3.2622350    -0.3059220     0.0067540
  C        1.5611120    -0.3149990    -0.0153800
  C        0.3099430    -0.9407630    -0.0100630
  C       -0.8692280    -0.1880260    -0.0014190
  C        1.5994260     1.0858870    -0.0069900
  C       -0.8168260     1.2117300     0.0064260
  C        0.4233030     1.8430470     0.0013400
  C        3.0014395    -1.2298334     0.0172964
  C       -2.1766910    -0.8792860    -0.0025100
  H        0.2498670    -2.0299540    -0.0200910
  H        2.5637200     1.5920050    -0.0150810
  H       -1.7471690     1.7737230     0.0102860
  H        2.6825510    -2.1081700    -0.4357140
  H        3.6321630    -0.6167660    -0.5349600
  H        3.1786260    -1.2736230     1.0416080
  H        0.4815460     2.9289630     0.0030700
  H       -2.1255320    -1.9885980    -0.0123860
units angstrom
no_reorient  #important for SAPT in psi4, default
symmetry c1  #important for SAPT in psi4, default
}

set PROPERTIES_ORIGIN ["COM"]
properties('MP2/aug-cc-pvtz', properties = ['dipole'])
--------------------------------------------------------------------------

    Molecular point group: c1
  Charge       = 0
  Multiplicity = 1
  Basis Set: AUG-CC-PVTZ
    Blend: AUG-CC-PVTZ
  Basis Set: (AUG-CC-PVTZ AUX)
    Blend: AUG-CC-PVTZ-JKFIT

    Orbital Energies [Eh]
    ---------------------

    Doubly Occupied:

       1A    -20.553510     2A    -11.336126     3A    -11.264550
       4A    -11.256851     5A    -11.253857     6A    -11.252051
       7A    -11.249818     8A    -11.248589     9A    -11.238424
      10A     -1.378224    11A     -1.168117    12A     -1.051751
      13A     -1.039377    14A     -0.955828    15A     -0.890417
      16A     -0.833724    17A     -0.770153    18A     -0.707394
      19A     -0.676846    20A     -0.646698    21A     -0.621204
      22A     -0.613220    23A     -0.606508    24A     -0.584529
      25A     -0.560614    26A     -0.546640    27A     -0.520183
      28A     -0.492633    29A     -0.464259    30A     -0.426655
      31A     -0.352675    32A     -0.341968

  @DF-RHF Final Energy:  -382.57058105008196

   => Energetics <=

    Nuclear Repulsion Energy =            393.1349289354687926
    One-Electron Energy =               -1297.6042370741879495
    Two-Electron Energy =                 521.8987270886372016
    Total Energy =                       -382.5705810500819553
  Basis Set: (AUG-CC-PVTZ AUX)
    Blend: AUG-CC-PVTZ-RI
    Molecular point group: c1

    Geometry (in Angstrom), charge = 0, multiplicity = 1:

       Center              X                  Y                   Z               Mass
    ------------   -----------------  -----------------  -----------------  -----------------
         O           -3.205563078233    -0.309453515192     0.006675255388    15.994914619570
         C            1.617783921767    -0.318530515192    -0.015458744612    12.000000000000
         C            0.366614921767    -0.944294515192    -0.010141744612    12.000000000000
         C           -0.812556078233    -0.191557515192    -0.001497744612    12.000000000000
         C            1.656097921767     1.082355484808    -0.007068744612    12.000000000000
         C           -0.760154078233     1.208198484808     0.006347255388    12.000000000000
         C            0.479974921767     1.839515484808     0.001261255388    12.000000000000
         C            3.058111421767    -1.233364915192     0.017217655388    12.000000000000
         C           -2.120019078233    -0.882817515192    -0.002588744612    12.000000000000
         H            0.306538921767    -2.033485515192    -0.020169744612     1.007825032230
         H            2.620391921767     1.588473484808    -0.015159744612     1.007825032230
         H           -1.690497078233     1.770191484808     0.010207255388     1.007825032230
         H            2.739222921767    -2.111701515192    -0.435792744612     1.007825032230
         H            3.688834921767    -0.620297515192    -0.535038744612     1.007825032230
         H            3.235297921767    -1.277154515192     1.041529255388     1.007825032230
         H            0.538217921767     2.925431484808     0.002991255388     1.007825032230
         H           -2.068860078233    -1.992129515192    -0.012464744612     1.007825032230

  Basis Set: AUG-CC-PVTZ
    Blend: AUG-CC-PVTZ
  Basis Set: (AUG-CC-PVTZ AUX)
    Blend: AUG-CC-PVTZ-JKFIT
	 Reference Energy          =    -382.5705810500819553 [Eh]
	 Singles Energy            =      -0.0000000000000000 [Eh]
	 Same-Spin Energy          =      -0.4079076786053972 [Eh]
	 Opposite-Spin Energy      =      -1.2873946112433099 [Eh]
	 Correlation Energy        =      -1.6953022898487071 [Eh]
	 Total Energy              =    -384.2658833399306673 [Eh]

	 ================> DF-SCS-MP2 Energies <==================
	-----------------------------------------------------------
	 SCS Same-Spin Scale       =       0.3333333333333333 [-]
	 SCS Opposite-Spin Scale   =       1.2000000000000000 [-]
	 SCS Same-Spin Energy      =      -0.1359692262017991 [Eh]
	 SCS Opposite-Spin Energy  =      -1.5448735334919719 [Eh]
	 SCS Correlation Energy    =      -1.6808427596937709 [Eh]
	 SCS Total Energy          =    -384.2514238097757016 [Eh]
	-----------------------------------------------------------

  Dipole Moment: [D]
     X:     3.6298      Y:    -0.4594      Z:     0.0159     Total:     3.6588

*** Psi4 exiting successfully. Buy a developer a beer!
