                               Psi4 1.4a3.dev225

  ==> Input File <==

--------------------------------------------------------------------------
#psi4
#
memory 32 gb

molecule  {
0 1
  O       -3.2622200    -0.3059070     0.0064780
  C        1.5611130    -0.3149950    -0.0153890
  C        0.3099490    -0.9407980    -0.0100380
  C       -0.8691990    -0.1880560    -0.0012000
  C        1.5993970     1.0858760    -0.0071180
  C       -0.8168460     1.2117110     0.0065060
  C        0.4232600     1.8430520     0.0014160
  C        2.8326670    -1.1225680     0.0134080
  C       -2.1943712    -0.8886365    -0.0024162
  H        0.2498950    -2.0299870    -0.0199420
  H        2.5636680     1.5920400    -0.0152260
  H       -1.7472230     1.7736450     0.0105140
  H        2.6826800    -2.1080670    -0.4359240
  H        3.6322070    -0.6166190    -0.5349020
  H        3.1786010    -1.2737110     1.0415460
  H        0.4815700     2.9289630     0.0030200
  H       -2.1255450    -1.9886100    -0.0120270
units angstrom
no_reorient  #important for SAPT in psi4, default
symmetry c1  #important for SAPT in psi4, default
}

set PROPERTIES_ORIGIN ["COM"]
properties('MP2/aug-cc-pvtz', properties = ['dipole'])
--------------------------------------------------------------------------

    Molecular point group: c1
  Charge       = 0
  Multiplicity = 1
  Basis Set: AUG-CC-PVTZ
    Blend: AUG-CC-PVTZ
  Basis Set: (AUG-CC-PVTZ AUX)
    Blend: AUG-CC-PVTZ-JKFIT

    Orbital Energies [Eh]
    ---------------------

    Doubly Occupied:

       1A    -20.556223     2A    -11.336953     3A    -11.258292
       4A    -11.255411     5A    -11.252729     6A    -11.252368
       7A    -11.249339     8A    -11.248088     9A    -11.237139
      10A     -1.387458    11A     -1.171273    12A     -1.063765
      13A     -1.040722    14A     -0.947522    15A     -0.889105
      16A     -0.833669    17A     -0.773386    18A     -0.708615
      19A     -0.678907    20A     -0.649352    21A     -0.623608
      22A     -0.608526    23A     -0.589975    24A     -0.582496
      25A     -0.552198    26A     -0.546612    27A     -0.519856
      28A     -0.501786    29A     -0.490714    30A     -0.427840
      31A     -0.352542    32A     -0.338643

  @DF-RHF Final Energy:  -382.59870734235471

   => Energetics <=

    Nuclear Repulsion Energy =            396.0555170884798599
    One-Electron Energy =               -1303.4582232545540137
    Two-Electron Energy =                 524.8039988237194393
    Total Energy =                       -382.5987073423547145
  Basis Set: (AUG-CC-PVTZ AUX)
    Blend: AUG-CC-PVTZ-RI
    Molecular point group: c1

    Geometry (in Angstrom), charge = 0, multiplicity = 1:

       Center              X                  Y                   Z               Mass
    ------------   -----------------  -----------------  -----------------  -----------------
         O           -3.186908821500    -0.319219338192     0.006786271875    15.994914619570
         C            1.636424178500    -0.328307338192    -0.015080728125    12.000000000000
         C            0.385260178500    -0.954110338192    -0.009729728125    12.000000000000
         C           -0.793887821500    -0.201368338192    -0.000891728125    12.000000000000
         C            1.674708178500     1.072563661808    -0.006809728125    12.000000000000
         C           -0.741534821500     1.198398661808     0.006814271875    12.000000000000
         C            0.498571178500     1.829739661808     0.001724271875    12.000000000000
         C            2.907978178500    -1.135880338192     0.013716271875    12.000000000000
         C           -2.119060021500    -0.901948838192    -0.002107928125    12.000000000000
         H            0.325206178500    -2.043299338192    -0.019633728125     1.007825032230
         H            2.638979178500     1.578727661808    -0.014917728125     1.007825032230
         H           -1.671911821500     1.760332661808     0.010822271875     1.007825032230
         H            2.757991178500    -2.121379338192    -0.435615728125     1.007825032230
         H            3.707518178500    -0.629931338192    -0.534593728125     1.007825032230
         H            3.253912178500    -1.287023338192     1.041854271875     1.007825032230
         H            0.556881178500     2.915650661808     0.003328271875     1.007825032230
         H           -2.050233821500    -2.001922338192    -0.011718728125     1.007825032230

  Basis Set: AUG-CC-PVTZ
    Blend: AUG-CC-PVTZ
  Basis Set: (AUG-CC-PVTZ AUX)
    Blend: AUG-CC-PVTZ-JKFIT
	 Reference Energy          =    -382.5987073423547145 [Eh]
	 Singles Energy            =      -0.0000000000000000 [Eh]
	 Same-Spin Energy          =      -0.4076887515109338 [Eh]
	 Opposite-Spin Energy      =      -1.2855716189973569 [Eh]
	 Correlation Energy        =      -1.6932603705082907 [Eh]
	 Total Energy              =    -384.2919677128630269 [Eh]

	 ================> DF-SCS-MP2 Energies <==================
	-----------------------------------------------------------
	 SCS Same-Spin Scale       =       0.3333333333333333 [-]
	 SCS Opposite-Spin Scale   =       1.2000000000000000 [-]
	 SCS Same-Spin Energy      =      -0.1358962505036446 [Eh]
	 SCS Opposite-Spin Energy  =      -1.5426859427968282 [Eh]
	 SCS Correlation Energy    =      -1.6785821933004728 [Eh]
	 SCS Total Energy          =    -384.2772895356551999 [Eh]
	-----------------------------------------------------------

  Dipole Moment: [D]
     X:     3.5379      Y:    -0.5495      Z:     0.0228     Total:     3.5804

*** Psi4 exiting successfully. Buy a developer a beer!
