                               Psi4 1.4a3.dev225

  ==> Input File <==

--------------------------------------------------------------------------
#psi4
#
memory 32 gb

molecule  {
0 1
  O       -3.2622200    -0.3059070     0.0064780
  C        1.5611130    -0.3149950    -0.0153890
  C        0.3099490    -0.9407980    -0.0100380
  C       -0.8691990    -0.1880560    -0.0012000
  C        1.5993970     1.0858760    -0.0071180
  C       -0.8168460     1.2117110     0.0065060
  C        0.4232600     1.8430520     0.0014160
  C        2.8495467    -1.1332884     0.0137903
  C       -2.1766900    -0.8792890    -0.0024000
  H        0.2498950    -2.0299870    -0.0199420
  H        2.5636680     1.5920400    -0.0152260
  H       -1.7472230     1.7736450     0.0105140
  H        2.6826800    -2.1080670    -0.4359240
  H        3.6322070    -0.6166190    -0.5349020
  H        3.1786010    -1.2737110     1.0415460
  H        0.4815700     2.9289630     0.0030200
  H       -2.1255450    -1.9886100    -0.0120270
units angstrom
no_reorient  #important for SAPT in psi4, default
symmetry c1  #important for SAPT in psi4, default
}

set PROPERTIES_ORIGIN ["COM"]
properties('MP2/aug-cc-pvtz', properties = ['dipole'])
--------------------------------------------------------------------------

    Molecular point group: c1
  Charge       = 0
  Multiplicity = 1
  Basis Set: AUG-CC-PVTZ
    Blend: AUG-CC-PVTZ
  Basis Set: (AUG-CC-PVTZ AUX)
    Blend: AUG-CC-PVTZ-JKFIT

    Orbital Energies [Eh]
    ---------------------

    Doubly Occupied:

       1A    -20.554063     2A    -11.336617     3A    -11.259974
       4A    -11.256910     5A    -11.253963     6A    -11.252656
       7A    -11.250417     8A    -11.249194     9A    -11.237333
      10A     -1.378737    11A     -1.172249    12A     -1.063820
      13A     -1.042692    14A     -0.949222    15A     -0.891673
      16A     -0.834565    17A     -0.772085    18A     -0.708901
      19A     -0.678730    20A     -0.649587    21A     -0.619173
      22A     -0.608558    23A     -0.592660    24A     -0.580478
      25A     -0.556329    26A     -0.544816    27A     -0.520335
      28A     -0.500323    29A     -0.489756    30A     -0.428329
      31A     -0.353472    32A     -0.340025

  @DF-RHF Final Energy:  -382.59759729525740

   => Energetics <=

    Nuclear Repulsion Energy =            395.9020580916116501
    One-Electron Energy =               -1303.1440270359682927
    Two-Electron Energy =                 524.6443716490991847
    Total Energy =                       -382.5975972952574011
  Basis Set: (AUG-CC-PVTZ AUX)
    Blend: AUG-CC-PVTZ-RI
    Molecular point group: c1

    Geometry (in Angstrom), charge = 0, multiplicity = 1:

       Center              X                  Y                   Z               Mass
    ------------   -----------------  -----------------  -----------------  -----------------
         O           -3.190363255822    -0.319082113962     0.006746440966    15.994914619570
         C            1.632969744178    -0.328170113962    -0.015120559034    12.000000000000
         C            0.381805744178    -0.953973113962    -0.009769559034    12.000000000000
         C           -0.797342255822    -0.201231113962    -0.000931559034    12.000000000000
         C            1.671253744178     1.072700886038    -0.006849559034    12.000000000000
         C           -0.744989255822     1.198535886038     0.006774440966    12.000000000000
         C            0.495116744178     1.829876886038     0.001684440966    12.000000000000
         C            2.921403444178    -1.146463513962     0.014058740966    12.000000000000
         C           -2.104833255822    -0.892464113962    -0.002131559034    12.000000000000
         H            0.321751744178    -2.043162113962    -0.019673559034     1.007825032230
         H            2.635524744178     1.578864886038    -0.014957559034     1.007825032230
         H           -1.675366255822     1.760469886038     0.010782440966     1.007825032230
         H            2.754536744178    -2.121242113962    -0.435655559034     1.007825032230
         H            3.704063744178    -0.629794113962    -0.534633559034     1.007825032230
         H            3.250457744178    -1.286886113962     1.041814440966     1.007825032230
         H            0.553426744178     2.915787886038     0.003288440966     1.007825032230
         H           -2.053688255822    -2.001785113962    -0.011758559034     1.007825032230

  Basis Set: AUG-CC-PVTZ
    Blend: AUG-CC-PVTZ
  Basis Set: (AUG-CC-PVTZ AUX)
    Blend: AUG-CC-PVTZ-JKFIT
	 Reference Energy          =    -382.5975972952574011 [Eh]
	 Singles Energy            =      -0.0000000000000000 [Eh]
	 Same-Spin Energy          =      -0.4079757015088167 [Eh]
	 Opposite-Spin Energy      =      -1.2862730931441000 [Eh]
	 Correlation Energy        =      -1.6942487946529168 [Eh]
	 Total Energy              =    -384.2918460899103366 [Eh]

	 ================> DF-SCS-MP2 Energies <==================
	-----------------------------------------------------------
	 SCS Same-Spin Scale       =       0.3333333333333333 [-]
	 SCS Opposite-Spin Scale   =       1.2000000000000000 [-]
	 SCS Same-Spin Energy      =      -0.1359919005029389 [Eh]
	 SCS Opposite-Spin Energy  =      -1.5435277117729200 [Eh]
	 SCS Correlation Energy    =      -1.6795196122758589 [Eh]
	 SCS Total Energy          =    -384.2771169075332409 [Eh]
	-----------------------------------------------------------

  Dipole Moment: [D]
     X:     3.6821      Y:    -0.4916      Z:     0.0220     Total:     3.7148

*** Psi4 exiting successfully. Buy a developer a beer!
