                               Psi4 1.4a3.dev225

  ==> Input File <==

--------------------------------------------------------------------------
#psi4
#
memory 32 gb

molecule  {
0 1
  O       -3.2622200    -0.3059070     0.0064780
  C        1.5611130    -0.3149950    -0.0153890
  C        0.3099490    -0.9407980    -0.0100380
  C       -0.8691990    -0.1880560    -0.0012000
  C        1.5993970     1.0858760    -0.0071180
  C       -0.8168460     1.2117110     0.0065060
  C        0.4232600     1.8430520     0.0014160
  C        2.8326670    -1.1225680     0.0134080
  C       -2.1766900    -0.8792890    -0.0024000
  H        0.2498950    -2.0299870    -0.0199420
  H        2.5636680     1.5920400    -0.0152260
  H       -1.7472230     1.7736450     0.0105140
  H        2.6826800    -2.1080670    -0.4359240
  H        3.6322070    -0.6166190    -0.5349020
  H        3.1943934    -1.2806109     1.0884820
  H        0.4815700     2.9289630     0.0030200
  H       -2.1255450    -1.9886100    -0.0120270
units angstrom
no_reorient  #important for SAPT in psi4, default
symmetry c1  #important for SAPT in psi4, default
}

set PROPERTIES_ORIGIN ["COM"]
properties('MP2/aug-cc-pvtz', properties = ['dipole'])
--------------------------------------------------------------------------

    Molecular point group: c1
  Charge       = 0
  Multiplicity = 1
  Basis Set: AUG-CC-PVTZ
    Blend: AUG-CC-PVTZ
  Basis Set: (AUG-CC-PVTZ AUX)
    Blend: AUG-CC-PVTZ-JKFIT

    Orbital Energies [Eh]
    ---------------------

    Doubly Occupied:

       1A    -20.554245     2A    -11.336798     3A    -11.259582
       4A    -11.257171     5A    -11.254234     6A    -11.252899
       7A    -11.250692     8A    -11.249454     9A    -11.243743
      10A     -1.378912    11A     -1.173058    12A     -1.065135
      13A     -1.043062    14A     -0.945560    15A     -0.891919
      16A     -0.834478    17A     -0.771844    18A     -0.709043
      19A     -0.679209    20A     -0.650359    21A     -0.619374
      22A     -0.609152    23A     -0.584466    24A     -0.581751
      25A     -0.553488    26A     -0.543515    27A     -0.520285
      28A     -0.502894    29A     -0.488330    30A     -0.428551
      31A     -0.353737    32A     -0.339369

  @DF-RHF Final Energy:  -382.59562964047115

   => Energetics <=

    Nuclear Repulsion Energy =            396.0189191373161748
    One-Electron Energy =               -1303.3764747749225990
    Two-Electron Energy =                 524.7619259971352221
    Total Energy =                       -382.5956296404712020
  Basis Set: (AUG-CC-PVTZ AUX)
    Blend: AUG-CC-PVTZ-RI
    Molecular point group: c1

    Geometry (in Angstrom), charge = 0, multiplicity = 1:

       Center              X                  Y                   Z               Mass
    ------------   -----------------  -----------------  -----------------  -----------------
         O           -3.188808664057    -0.320095719051     0.006390647530    15.994914619570
         C            1.634524335943    -0.329183719051    -0.015476352470    12.000000000000
         C            0.383360335943    -0.954986719051    -0.010125352470    12.000000000000
         C           -0.795787664057    -0.202244719051    -0.001287352470    12.000000000000
         C            1.672808335943     1.071687280949    -0.007205352470    12.000000000000
         C           -0.743434664057     1.197522280949     0.006418647530    12.000000000000
         C            0.496671335943     1.828863280949     0.001328647530    12.000000000000
         C            2.906078335943    -1.136756719051     0.013320647530    12.000000000000
         C           -2.103278664057    -0.893477719051    -0.002487352470    12.000000000000
         H            0.323306335943    -2.044175719051    -0.020029352470     1.007825032230
         H            2.637079335943     1.577851280949    -0.015313352470     1.007825032230
         H           -1.673811664057     1.759456280949     0.010426647530     1.007825032230
         H            2.756091335943    -2.122255719051    -0.436011352470     1.007825032230
         H            3.705618335943    -0.630807719051    -0.534989352470     1.007825032230
         H            3.267804735943    -1.294799619051     1.088394647530     1.007825032230
         H            0.554981335943     2.914774280949     0.002932647530     1.007825032230
         H           -2.052133664057    -2.002798719051    -0.012114352470     1.007825032230

  Basis Set: AUG-CC-PVTZ
    Blend: AUG-CC-PVTZ
  Basis Set: (AUG-CC-PVTZ AUX)
    Blend: AUG-CC-PVTZ-JKFIT
	 Reference Energy          =    -382.5956296404711452 [Eh]
	 Singles Energy            =      -0.0000000000000000 [Eh]
	 Same-Spin Energy          =      -0.4081171448293844 [Eh]
	 Opposite-Spin Energy      =      -1.2867074597152657 [Eh]
	 Correlation Energy        =      -1.6948246045446500 [Eh]
	 Total Energy              =    -384.2904542450157805 [Eh]

	 ================> DF-SCS-MP2 Energies <==================
	-----------------------------------------------------------
	 SCS Same-Spin Scale       =       0.3333333333333333 [-]
	 SCS Opposite-Spin Scale   =       1.2000000000000000 [-]
	 SCS Same-Spin Energy      =      -0.1360390482764615 [Eh]
	 SCS Opposite-Spin Energy  =      -1.5440489516583187 [Eh]
	 SCS Correlation Energy    =      -1.6800879999347802 [Eh]
	 SCS Total Energy          =    -384.2757176404059010 [Eh]
	-----------------------------------------------------------

  Dipole Moment: [D]
     X:     3.6647      Y:    -0.4835      Z:     0.0061     Total:     3.6965

*** Psi4 exiting successfully. Buy a developer a beer!
