                               Psi4 1.3.2 release

  ==> Input File <==

--------------------------------------------------------------------------
#psi4
#
memory 32 gb

molecule  {
0 1
  O       -3.2622350    -0.3059220     0.0067540
  C        1.5611120    -0.3149990    -0.0153800
  C        0.3099430    -0.9407630    -0.0100630
  C       -0.8241946    -0.2809095    -0.0024000
  C        1.5994260     1.0858870    -0.0069900
  C       -0.8168260     1.2117300     0.0064260
  C        0.4233030     1.8430470     0.0013400
  C        2.8326460    -1.1226230     0.0134670
  C       -2.1766910    -0.8792860    -0.0025100
  H        0.2498670    -2.0299540    -0.0200910
  H        2.5637200     1.5920050    -0.0150810
  H       -1.7471690     1.7737230     0.0102860
  H        2.6825510    -2.1081700    -0.4357140
  H        3.6321630    -0.6167660    -0.5349600
  H        3.1786260    -1.2736230     1.0416080
  H        0.4815460     2.9289630     0.0030700
  H       -2.1255320    -1.9885980    -0.0123860
units angstrom
no_reorient  #important for SAPT in psi4, default
symmetry c1  #important for SAPT in psi4, default
}

set PROPERTIES_ORIGIN ["COM"]
properties('MP2/aug-cc-pvtz', properties = ['dipole'])
--------------------------------------------------------------------------

    Molecular point group: c1
  Charge       = 0
  Multiplicity = 1
  Basis Set: AUG-CC-PVTZ
    Blend: AUG-CC-PVTZ
  Basis Set: (AUG-CC-PVTZ AUX)
    Blend: AUG-CC-PVTZ-JKFIT

    Orbital Energies [Eh]
    ---------------------

    Doubly Occupied:

       1A    -20.557440     2A    -11.338852     3A    -11.259320
       4A    -11.257325     5A    -11.254037     6A    -11.253137
       7A    -11.250433     8A    -11.248297     9A    -11.238178
      10A     -1.379943    11A     -1.176140    12A     -1.063122
      13A     -1.050778    14A     -0.946497    15A     -0.894873
      16A     -0.827840    17A     -0.780929    18A     -0.707324
      19A     -0.683281    20A     -0.645560    21A     -0.626346
      22A     -0.607669    23A     -0.591507    24A     -0.579799
      25A     -0.550526    26A     -0.545722    27A     -0.523332
      28A     -0.499024    29A     -0.490334    30A     -0.425350
      31A     -0.367957    32A     -0.329728

  @DF-RHF Final Energy:  -382.58356429738359

   => Energetics <=

    Nuclear Repulsion Energy =            396.2167800012180123
    One-Electron Energy =               -1303.6994890424612095
    Two-Electron Energy =                 524.8991447438595515
    Total Energy =                       -382.5835642973836457
  Basis Set: (AUG-CC-PVTZ AUX)
    Blend: AUG-CC-PVTZ-RI
    Molecular point group: c1

    Geometry (in Angstrom), charge = 0, multiplicity = 1:

       Center              X                  Y                   Z               Mass
    ------------   -----------------  -----------------  -----------------  -----------------
         O           -3.193192997097    -0.310885518846     0.007156064940    15.994914619570
         C            1.630154002903    -0.319962518846    -0.014977935060    12.000000000000
         C            0.378985002903    -0.945726518846    -0.009660935060    12.000000000000
         C           -0.755152597097    -0.285873018846    -0.001997935060    12.000000000000
         C            1.668468002903     1.080923481154    -0.006587935060    12.000000000000
         C           -0.747783997097     1.206766481154     0.006828064940    12.000000000000
         C            0.492345002903     1.838083481154     0.001742064940    12.000000000000
         C            2.901688002903    -1.127586518846     0.013869064940    12.000000000000
         C           -2.107648997097    -0.884249518846    -0.002107935060    12.000000000000
         H            0.318909002903    -2.034917518846    -0.019688935060     1.007825032230
         H            2.632762002903     1.587041481154    -0.014678935060     1.007825032230
         H           -1.678126997097     1.768759481154     0.010688064940     1.007825032230
         H            2.751593002903    -2.113133518846    -0.435311935060     1.007825032230
         H            3.701205002903    -0.621729518846    -0.534557935060     1.007825032230
         H            3.247668002903    -1.278586518846     1.042010064940     1.007825032230
         H            0.550588002903     2.923999481154     0.003472064940     1.007825032230
         H           -2.056489997097    -1.993561518846    -0.011983935060     1.007825032230

  Basis Set: AUG-CC-PVTZ
    Blend: AUG-CC-PVTZ
  Basis Set: (AUG-CC-PVTZ AUX)
    Blend: AUG-CC-PVTZ-JKFIT
	 Reference Energy          =    -382.5835642973835888 [Eh]
	 Singles Energy            =      -0.0000000000000000 [Eh]
	 Same-Spin Energy          =      -0.4078718070703261 [Eh]
	 Opposite-Spin Energy      =      -1.2871217992909694 [Eh]
	 Correlation Energy        =      -1.6949936063612954 [Eh]
	 Total Energy              =    -384.2785579037449111 [Eh]

	 ================> DF-SCS-MP2 Energies <==================
	-----------------------------------------------------------
	 SCS Same-Spin Scale       =       0.3333333333333333 [-]
	 SCS Opposite-Spin Scale   =       1.2000000000000000 [-]
	 SCS Same-Spin Energy      =      -0.1359572690234420 [Eh]
	 SCS Opposite-Spin Energy  =      -1.5445461591491632 [Eh]
	 SCS Correlation Energy    =      -1.6805034281726052 [Eh]
	 SCS Total Energy          =    -384.2640677255561741 [Eh]
	-----------------------------------------------------------

  Dipole Moment: [D]
     X:     3.7046      Y:    -0.4481      Z:     0.0218     Total:     3.7317

*** Psi4 exiting successfully. Buy a developer a beer!
