                               Psi4 1.3.2 release

  ==> Input File <==

--------------------------------------------------------------------------
#psi4
#
memory 32 gb

molecule  {
0 1
  O       -3.2622350    -0.3059220     0.0067540
  C        1.5611120    -0.3149990    -0.0153800
  C        0.3229012    -0.9200691    -0.0099553
  C       -0.8692280    -0.1880260    -0.0014190
  C        1.5994260     1.0858870    -0.0069900
  C       -0.8168260     1.2117300     0.0064260
  C        0.4233030     1.8430470     0.0013400
  C        2.8326460    -1.1226230     0.0134670
  C       -2.1766910    -0.8792860    -0.0025100
  H        0.2498670    -2.0299540    -0.0200910
  H        2.5637200     1.5920050    -0.0150810
  H       -1.7471690     1.7737230     0.0102860
  H        2.6825510    -2.1081700    -0.4357140
  H        3.6321630    -0.6167660    -0.5349600
  H        3.1786260    -1.2736230     1.0416080
  H        0.4815460     2.9289630     0.0030700
  H       -2.1255320    -1.9885980    -0.0123860
units angstrom
no_reorient  #important for SAPT in psi4, default
symmetry c1  #important for SAPT in psi4, default
}

set PROPERTIES_ORIGIN ["COM"]
properties('MP2/aug-cc-pvtz', properties = ['dipole'])
--------------------------------------------------------------------------

    Molecular point group: c1
  Charge       = 0
  Multiplicity = 1
  Basis Set: AUG-CC-PVTZ
    Blend: AUG-CC-PVTZ
  Basis Set: (AUG-CC-PVTZ AUX)
    Blend: AUG-CC-PVTZ-JKFIT

    Orbital Energies [Eh]
    ---------------------

    Doubly Occupied:

       1A    -20.554447     2A    -11.337288     3A    -11.257113
       4A    -11.255848     5A    -11.254393     6A    -11.252307
       7A    -11.250641     8A    -11.249083     9A    -11.237966
      10A     -1.379076    11A     -1.175119    12A     -1.066935
      13A     -1.042348    14A     -0.949271    15A     -0.893139
      16A     -0.832973    17A     -0.774352    18A     -0.708353
      19A     -0.679678    20A     -0.648825    21A     -0.619886
      22A     -0.606401    23A     -0.591349    24A     -0.584097
      25A     -0.552076    26A     -0.544747    27A     -0.522020
      28A     -0.499737    29A     -0.490294    30A     -0.429068
      31A     -0.353532    32A     -0.341279

  @DF-RHF Final Energy:  -382.59707574279986

   => Energetics <=

    Nuclear Repulsion Energy =            396.5406584237082370
    One-Electron Energy =               -1304.4081807849174766
    Two-Electron Energy =                 525.2704466184093235
    Total Energy =                       -382.5970757427999160
  Basis Set: (AUG-CC-PVTZ AUX)
    Blend: AUG-CC-PVTZ-RI
    Molecular point group: c1

    Geometry (in Angstrom), charge = 0, multiplicity = 1:

       Center              X                  Y                   Z               Mass
    ------------   -----------------  -----------------  -----------------  -----------------
         O           -3.189987013695    -0.322237817796     0.007047247096    15.994914619570
         C            1.633359986305    -0.331314817796    -0.015086752904    12.000000000000
         C            0.395149186305    -0.936384917796    -0.009662052904    12.000000000000
         C           -0.796980013695    -0.204341817796    -0.001125752904    12.000000000000
         C            1.671673986305     1.069571182204    -0.006696752904    12.000000000000
         C           -0.744578013695     1.195414182204     0.006719247096    12.000000000000
         C            0.495550986305     1.826731182204     0.001633247096    12.000000000000
         C            2.904893986305    -1.138938817796     0.013760247096    12.000000000000
         C           -2.104443013695    -0.895601817796    -0.002216752904    12.000000000000
         H            0.322114986305    -2.046269817796    -0.019797752904     1.007825032230
         H            2.635967986305     1.575689182204    -0.014787752904     1.007825032230
         H           -1.674921013695     1.757407182204     0.010579247096     1.007825032230
         H            2.754798986305    -2.124485817796    -0.435420752904     1.007825032230
         H            3.704410986305    -0.633081817796    -0.534666752904     1.007825032230
         H            3.250873986305    -1.289938817796     1.041901247096     1.007825032230
         H            0.553793986305     2.912647182204     0.003363247096     1.007825032230
         H           -2.053284013695    -2.004913817796    -0.012092752904     1.007825032230

  Basis Set: AUG-CC-PVTZ
    Blend: AUG-CC-PVTZ
  Basis Set: (AUG-CC-PVTZ AUX)
    Blend: AUG-CC-PVTZ-JKFIT
	 Reference Energy          =    -382.5970757427998592 [Eh]
	 Singles Energy            =      -0.0000000000000000 [Eh]
	 Same-Spin Energy          =      -0.4081714017543979 [Eh]
	 Opposite-Spin Energy      =      -1.2863773947727219 [Eh]
	 Correlation Energy        =      -1.6945487965271198 [Eh]
	 Total Energy              =    -384.2916245393269605 [Eh]

	 ================> DF-SCS-MP2 Energies <==================
	-----------------------------------------------------------
	 SCS Same-Spin Scale       =       0.3333333333333333 [-]
	 SCS Opposite-Spin Scale   =       1.2000000000000000 [-]
	 SCS Same-Spin Energy      =      -0.1360571339181326 [Eh]
	 SCS Opposite-Spin Energy  =      -1.5436528737272663 [Eh]
	 SCS Correlation Energy    =      -1.6797100076453990 [Eh]
	 SCS Total Energy          =    -384.2767857504452422 [Eh]
	-----------------------------------------------------------

  Dipole Moment: [D]
     X:     3.6737      Y:    -0.4786      Z:     0.0218     Total:     3.7048

*** Psi4 exiting successfully. Buy a developer a beer!
