                               Psi4 1.3.2 release

  ==> Input File <==

--------------------------------------------------------------------------
#psi4
#
memory 32 gb

molecule  {
0 1
  O       -3.2622350    -0.3059220     0.0067540
  C        1.5611120    -0.3149990    -0.0153800
  C        0.3210535    -0.9624961    -0.0094627
  C       -0.8692280    -0.1880260    -0.0014190
  C        1.5994260     1.0858870    -0.0069900
  C       -0.8168260     1.2117300     0.0064260
  C        0.4233030     1.8430470     0.0013400
  C        2.8326460    -1.1226230     0.0134670
  C       -2.1766910    -0.8792860    -0.0025100
  H        0.2498670    -2.0299540    -0.0200910
  H        2.5637200     1.5920050    -0.0150810
  H       -1.7471690     1.7737230     0.0102860
  H        2.6825510    -2.1081700    -0.4357140
  H        3.6321630    -0.6167660    -0.5349600
  H        3.1786260    -1.2736230     1.0416080
  H        0.4815460     2.9289630     0.0030700
  H       -2.1255320    -1.9885980    -0.0123860
units angstrom
no_reorient  #important for SAPT in psi4, default
symmetry c1  #important for SAPT in psi4, default
}

set PROPERTIES_ORIGIN ["COM"]
properties('MP2/aug-cc-pvtz', properties = ['dipole'])
--------------------------------------------------------------------------

    Molecular point group: c1
  Charge       = 0
  Multiplicity = 1
  Basis Set: AUG-CC-PVTZ
    Blend: AUG-CC-PVTZ
  Basis Set: (AUG-CC-PVTZ AUX)
    Blend: AUG-CC-PVTZ-JKFIT

    Orbital Energies [Eh]
    ---------------------

    Doubly Occupied:

       1A    -20.553583     2A    -11.336204     3A    -11.259573
       4A    -11.257258     5A    -11.254710     6A    -11.254384
       7A    -11.251051     8A    -11.249836     9A    -11.237200
      10A     -1.378321    11A     -1.171052    12A     -1.065326
      13A     -1.042259    14A     -0.948098    15A     -0.892159
      16A     -0.836036    17A     -0.769805    18A     -0.709885
      19A     -0.679427    20A     -0.650983    21A     -0.618485
      22A     -0.610834    23A     -0.590387    24A     -0.584211
      25A     -0.552798    26A     -0.543426    27A     -0.521158
      28A     -0.502256    29A     -0.488279    30A     -0.427853
      31A     -0.351648    32A     -0.340307

  @DF-RHF Final Energy:  -382.59664203621747

   => Energetics <=

    Nuclear Repulsion Energy =            395.8853347730479868
    One-Electron Energy =               -1303.1063683402621791
    Two-Electron Energy =                 524.6243915309967178
    Total Energy =                       -382.5966420362174176
  Basis Set: (AUG-CC-PVTZ AUX)
    Blend: AUG-CC-PVTZ-RI
    Molecular point group: c1

    Geometry (in Angstrom), charge = 0, multiplicity = 1:

       Center              X                  Y                   Z               Mass
    ------------   -----------------  -----------------  -----------------  -----------------
         O           -3.189802332211    -0.317997150308     0.006998010694    15.994914619570
         C            1.633544667789    -0.327074150308    -0.015135989306    12.000000000000
         C            0.393486167789    -0.974571250308    -0.009218689306    12.000000000000
         C           -0.796795332211    -0.200101150308    -0.001174989306    12.000000000000
         C            1.671858667789     1.073811849692    -0.006745989306    12.000000000000
         C           -0.744393332211     1.199654849692     0.006670010694    12.000000000000
         C            0.495735667789     1.830971849692     0.001584010694    12.000000000000
         C            2.905078667789    -1.134698150308     0.013711010694    12.000000000000
         C           -2.104258332211    -0.891361150308    -0.002265989306    12.000000000000
         H            0.322299667789    -2.042029150308    -0.019846989306     1.007825032230
         H            2.636152667789     1.579929849692    -0.014836989306     1.007825032230
         H           -1.674736332211     1.761647849692     0.010530010694     1.007825032230
         H            2.754983667789    -2.120245150308    -0.435469989306     1.007825032230
         H            3.704595667789    -0.628841150308    -0.534715989306     1.007825032230
         H            3.251058667789    -1.285698150308     1.041852010694     1.007825032230
         H            0.553978667789     2.916887849692     0.003314010694     1.007825032230
         H           -2.053099332211    -2.000673150308    -0.012141989306     1.007825032230

  Basis Set: AUG-CC-PVTZ
    Blend: AUG-CC-PVTZ
  Basis Set: (AUG-CC-PVTZ AUX)
    Blend: AUG-CC-PVTZ-JKFIT
	 Reference Energy          =    -382.5966420362174745 [Eh]
	 Singles Energy            =      -0.0000000000000000 [Eh]
	 Same-Spin Energy          =      -0.4081466816344540 [Eh]
	 Opposite-Spin Energy      =      -1.2865296835455056 [Eh]
	 Correlation Energy        =      -1.6946763651799595 [Eh]
	 Total Energy              =    -384.2913184013974615 [Eh]

	 ================> DF-SCS-MP2 Energies <==================
	-----------------------------------------------------------
	 SCS Same-Spin Scale       =       0.3333333333333333 [-]
	 SCS Opposite-Spin Scale   =       1.2000000000000000 [-]
	 SCS Same-Spin Energy      =      -0.1360488938781513 [Eh]
	 SCS Opposite-Spin Energy  =      -1.5438356202546066 [Eh]
	 SCS Correlation Energy    =      -1.6798845141327581 [Eh]
	 SCS Total Energy          =    -384.2765265503502405 [Eh]
	-----------------------------------------------------------

  Dipole Moment: [D]
     X:     3.6862      Y:    -0.4867      Z:     0.0215     Total:     3.7183

*** Psi4 exiting successfully. Buy a developer a beer!
