                               Psi4 1.3.2 release

  ==> Input File <==

--------------------------------------------------------------------------
#psi4
#
memory 32 gb

molecule  {
0 1
  O       -3.2622350    -0.3059220     0.0067540
  C        1.5611120    -0.3149990    -0.0153800
  C        0.3099430    -0.9407630    -0.0100630
  C       -0.8041363    -0.3284733    -0.0028910
  C        1.5994260     1.0858870    -0.0069900
  C       -0.8168260     1.2117300     0.0064260
  C        0.4233030     1.8430470     0.0013400
  C        2.8326460    -1.1226230     0.0134670
  C       -2.1766910    -0.8792860    -0.0025100
  H        0.2498670    -2.0299540    -0.0200910
  H        2.5637200     1.5920050    -0.0150810
  H       -1.7471690     1.7737230     0.0102860
  H        2.6825510    -2.1081700    -0.4357140
  H        3.6321630    -0.6167660    -0.5349600
  H        3.1786260    -1.2736230     1.0416080
  H        0.4815460     2.9289630     0.0030700
  H       -2.1255320    -1.9885980    -0.0123860
units angstrom
no_reorient  #important for SAPT in psi4, default
symmetry c1  #important for SAPT in psi4, default
}

set PROPERTIES_ORIGIN ["COM"]
properties('MP2/aug-cc-pvtz', properties = ['dipole'])
--------------------------------------------------------------------------

    Molecular point group: c1
  Charge       = 0
  Multiplicity = 1
  Basis Set: AUG-CC-PVTZ
    Blend: AUG-CC-PVTZ
  Basis Set: (AUG-CC-PVTZ AUX)
    Blend: AUG-CC-PVTZ-JKFIT

    Orbital Energies [Eh]
    ---------------------

    Doubly Occupied:

       1A    -20.559735     2A    -11.340685     3A    -11.259710
       4A    -11.259246     5A    -11.254007     6A    -11.252707
       7A    -11.247421     8A    -11.246874     9A    -11.238198
      10A     -1.381113    11A     -1.178682    12A     -1.066809
      13A     -1.050297    14A     -0.945247    15A     -0.896653
      16A     -0.825713    17A     -0.784561    18A     -0.706457
      19A     -0.685300    20A     -0.644498    21A     -0.629791
      22A     -0.607339    23A     -0.591843    24A     -0.576860
      25A     -0.549364    26A     -0.547089    27A     -0.525175
      28A     -0.493887    29A     -0.491369    30A     -0.422432
      31A     -0.375600    32A     -0.325466

  @DF-RHF Final Energy:  -382.56600067825701

   => Energetics <=

    Nuclear Repulsion Energy =            396.2327724761313448
    One-Electron Energy =               -1303.6772898250014805
    Two-Electron Energy =                 524.8785166706131804
    Total Energy =                       -382.5660006782569553
  Basis Set: (AUG-CC-PVTZ AUX)
    Blend: AUG-CC-PVTZ-RI
    Molecular point group: c1

    Geometry (in Angstrom), charge = 0, multiplicity = 1:

       Center              X                  Y                   Z               Mass
    ------------   -----------------  -----------------  -----------------  -----------------
         O           -3.195197866182    -0.306131417443     0.007205141419    15.994914619570
         C            1.628149133818    -0.315208417443    -0.014928858581    12.000000000000
         C            0.376980133818    -0.940972417443    -0.009611858581    12.000000000000
         C           -0.737099166182    -0.328682717443    -0.002439858581    12.000000000000
         C            1.666463133818     1.085677582557    -0.006538858581    12.000000000000
         C           -0.749788866182     1.211520582557     0.006877141419    12.000000000000
         C            0.490340133818     1.842837582557     0.001791141419    12.000000000000
         C            2.899683133818    -1.122832417443     0.013918141419    12.000000000000
         C           -2.109653866182    -0.879495417443    -0.002058858581    12.000000000000
         H            0.316904133818    -2.030163417443    -0.019639858581     1.007825032230
         H            2.630757133818     1.591795582557    -0.014629858581     1.007825032230
         H           -1.680131866182     1.773513582557     0.010737141419     1.007825032230
         H            2.749588133818    -2.108379417443    -0.435262858581     1.007825032230
         H            3.699200133818    -0.616975417443    -0.534508858581     1.007825032230
         H            3.245663133818    -1.273832417443     1.042059141419     1.007825032230
         H            0.548583133818     2.928753582557     0.003521141419     1.007825032230
         H           -2.058494866182    -1.988807417443    -0.011934858581     1.007825032230

  Basis Set: AUG-CC-PVTZ
    Blend: AUG-CC-PVTZ
  Basis Set: (AUG-CC-PVTZ AUX)
    Blend: AUG-CC-PVTZ-JKFIT
	 Reference Energy          =    -382.5660006782570122 [Eh]
	 Singles Energy            =      -0.0000000000000000 [Eh]
	 Same-Spin Energy          =      -0.4076984789515608 [Eh]
	 Opposite-Spin Energy      =      -1.2879303175132022 [Eh]
	 Correlation Energy        =      -1.6956287964647629 [Eh]
	 Total Energy              =    -384.2616294747217580 [Eh]

	 ================> DF-SCS-MP2 Energies <==================
	-----------------------------------------------------------
	 SCS Same-Spin Scale       =       0.3333333333333333 [-]
	 SCS Opposite-Spin Scale   =       1.2000000000000000 [-]
	 SCS Same-Spin Energy      =      -0.1358994929838536 [Eh]
	 SCS Opposite-Spin Energy  =      -1.5455163810158425 [Eh]
	 SCS Correlation Energy    =      -1.6814158739996961 [Eh]
	 SCS Total Energy          =    -384.2474165522567091 [Eh]
	-----------------------------------------------------------

  Dipole Moment: [D]
     X:     3.6998      Y:    -0.4334      Z:     0.0216     Total:     3.7252

*** Psi4 exiting successfully. Buy a developer a beer!
