                               Psi4 1.3.2 release

  ==> Input File <==

--------------------------------------------------------------------------
#psi4
#
memory 32 gb

molecule  {
0 1
  O       -3.2622350    -0.3059220     0.0067540
  C        1.5611120    -0.3149990    -0.0153800
  C        0.2966257    -0.9612276    -0.0101680
  C       -0.8692280    -0.1880260    -0.0014190
  C        1.5994260     1.0858870    -0.0069900
  C       -0.8168260     1.2117300     0.0064260
  C        0.4233030     1.8430470     0.0013400
  C        2.8326460    -1.1226230     0.0134670
  C       -2.1766910    -0.8792860    -0.0025100
  H        0.2498670    -2.0299540    -0.0200910
  H        2.5637200     1.5920050    -0.0150810
  H       -1.7471690     1.7737230     0.0102860
  H        2.6825510    -2.1081700    -0.4357140
  H        3.6321630    -0.6167660    -0.5349600
  H        3.1786260    -1.2736230     1.0416080
  H        0.4815460     2.9289630     0.0030700
  H       -2.1255320    -1.9885980    -0.0123860
units angstrom
no_reorient  #important for SAPT in psi4, default
symmetry c1  #important for SAPT in psi4, default
}

set PROPERTIES_ORIGIN ["COM"]
properties('MP2/aug-cc-pvtz', properties = ['dipole'])
--------------------------------------------------------------------------

    Molecular point group: c1
  Charge       = 0
  Multiplicity = 1
  Basis Set: AUG-CC-PVTZ
    Blend: AUG-CC-PVTZ
  Basis Set: (AUG-CC-PVTZ AUX)
    Blend: AUG-CC-PVTZ-JKFIT

    Orbital Energies [Eh]
    ---------------------

    Doubly Occupied:

       1A    -20.553800     2A    -11.336065     3A    -11.261674
       4A    -11.257725     5A    -11.253536     6A    -11.253278
       7A    -11.250577     8A    -11.249241     9A    -11.237777
      10A     -1.378505    11A     -1.170896    12A     -1.064804
      13A     -1.043575    14A     -0.948018    15A     -0.890576
      16A     -0.836333    17A     -0.770386    18A     -0.710190
      19A     -0.678262    20A     -0.651770    21A     -0.618468
      22A     -0.611456    23A     -0.590227    24A     -0.582956
      25A     -0.553751    26A     -0.544143    27A     -0.518266
      28A     -0.505053    29A     -0.488123    30A     -0.427754
      31A     -0.353873    32A     -0.337836

  @DF-RHF Final Energy:  -382.59673026047273

   => Energetics <=

    Nuclear Repulsion Energy =            395.9216128944663637
    One-Electron Energy =               -1303.1788968079597453
    Two-Electron Energy =                 524.6605536530206564
    Total Energy =                       -382.5967302604727820
  Basis Set: (AUG-CC-PVTZ AUX)
    Blend: AUG-CC-PVTZ-RI
    Molecular point group: c1

    Geometry (in Angstrom), charge = 0, multiplicity = 1:

       Center              X                  Y                   Z               Mass
    ------------   -----------------  -----------------  -----------------  -----------------
         O           -3.187360722451    -0.318123939539     0.007068506906    15.994914619570
         C            1.635986277549    -0.327200939539    -0.015065493094    12.000000000000
         C            0.371499977549    -0.973429539539    -0.009853493094    12.000000000000
         C           -0.794353722451    -0.200227939539    -0.001104493094    12.000000000000
         C            1.674300277549     1.073685060461    -0.006675493094    12.000000000000
         C           -0.741951722451     1.199528060461     0.006740506906    12.000000000000
         C            0.498177277549     1.830845060461     0.001654506906    12.000000000000
         C            2.907520277549    -1.134824939539     0.013781506906    12.000000000000
         C           -2.101816722451    -0.891487939539    -0.002195493094    12.000000000000
         H            0.324741277549    -2.042155939539    -0.019776493094     1.007825032230
         H            2.638594277549     1.579803060461    -0.014766493094     1.007825032230
         H           -1.672294722451     1.761521060461     0.010600506906     1.007825032230
         H            2.757425277549    -2.120371939539    -0.435399493094     1.007825032230
         H            3.707037277549    -0.628967939539    -0.534645493094     1.007825032230
         H            3.253500277549    -1.285824939539     1.041922506906     1.007825032230
         H            0.556420277549     2.916761060461     0.003384506906     1.007825032230
         H           -2.050657722451    -2.000799939539    -0.012071493094     1.007825032230

  Basis Set: AUG-CC-PVTZ
    Blend: AUG-CC-PVTZ
  Basis Set: (AUG-CC-PVTZ AUX)
    Blend: AUG-CC-PVTZ-JKFIT
	 Reference Energy          =    -382.5967302604727251 [Eh]
	 Singles Energy            =      -0.0000000000000000 [Eh]
	 Same-Spin Energy          =      -0.4080973168654481 [Eh]
	 Opposite-Spin Energy      =      -1.2864997851551268 [Eh]
	 Correlation Energy        =      -1.6945971020205750 [Eh]
	 Total Energy              =    -384.2913273624932913 [Eh]

	 ================> DF-SCS-MP2 Energies <==================
	-----------------------------------------------------------
	 SCS Same-Spin Scale       =       0.3333333333333333 [-]
	 SCS Opposite-Spin Scale   =       1.2000000000000000 [-]
	 SCS Same-Spin Energy      =      -0.1360324389551494 [Eh]
	 SCS Opposite-Spin Energy  =      -1.5437997421861520 [Eh]
	 SCS Correlation Energy    =      -1.6798321811413013 [Eh]
	 SCS Total Energy          =    -384.2765624416140327 [Eh]
	-----------------------------------------------------------

  Dipole Moment: [D]
     X:     3.6946      Y:    -0.5045      Z:     0.0225     Total:     3.7289

*** Psi4 exiting successfully. Buy a developer a beer!
