                               Psi4 1.3.2 release

  ==> Input File <==

--------------------------------------------------------------------------
#psi4
#
memory 32 gb

molecule  {
0 1
  O       -3.2622350    -0.3059220     0.0067540
  C        1.5611120    -0.3149990    -0.0153800
  C        0.3099430    -0.9407630    -0.0100630
  C       -0.8941483    -0.1428195    -0.0009302
  C        1.5994260     1.0858870    -0.0069900
  C       -0.8168260     1.2117300     0.0064260
  C        0.4233030     1.8430470     0.0013400
  C        2.8326460    -1.1226230     0.0134670
  C       -2.1766910    -0.8792860    -0.0025100
  H        0.2498670    -2.0299540    -0.0200910
  H        2.5637200     1.5920050    -0.0150810
  H       -1.7471690     1.7737230     0.0102860
  H        2.6825510    -2.1081700    -0.4357140
  H        3.6321630    -0.6167660    -0.5349600
  H        3.1786260    -1.2736230     1.0416080
  H        0.4815460     2.9289630     0.0030700
  H       -2.1255320    -1.9885980    -0.0123860
units angstrom
no_reorient  #important for SAPT in psi4, default
symmetry c1  #important for SAPT in psi4, default
}

set PROPERTIES_ORIGIN ["COM"]
properties('MP2/aug-cc-pvtz', properties = ['dipole'])
--------------------------------------------------------------------------

    Molecular point group: c1
  Charge       = 0
  Multiplicity = 1
  Basis Set: AUG-CC-PVTZ
    Blend: AUG-CC-PVTZ
  Basis Set: (AUG-CC-PVTZ AUX)
    Blend: AUG-CC-PVTZ-JKFIT

    Orbital Energies [Eh]
    ---------------------

    Doubly Occupied:

       1A    -20.553192     2A    -11.336347     3A    -11.259588
       4A    -11.258329     5A    -11.253880     6A    -11.252096
       7A    -11.250346     8A    -11.245418     9A    -11.237543
      10A     -1.378886    11A     -1.172208    12A     -1.069454
      13A     -1.037734    14A     -0.949170    15A     -0.890556
      16A     -0.838578    17A     -0.768088    18A     -0.710041
      19A     -0.677356    20A     -0.653042    21A     -0.617401
      22A     -0.608826    23A     -0.590261    24A     -0.583379
      25A     -0.553994    26A     -0.544574    27A     -0.519854
      28A     -0.500042    29A     -0.488974    30A     -0.428937
      31A     -0.348631    32A     -0.343715

  @DF-RHF Final Energy:  -382.59433631715308

   => Energetics <=

    Nuclear Repulsion Energy =            396.2565859913743225
    One-Electron Energy =               -1303.8609656282199012
    Two-Electron Energy =                 525.0100433196924996
    Total Energy =                       -382.5943363171530791
  Basis Set: (AUG-CC-PVTZ AUX)
    Blend: AUG-CC-PVTZ-RI
    Molecular point group: c1

    Geometry (in Angstrom), charge = 0, multiplicity = 1:

       Center              X                  Y                   Z               Mass
    ------------   -----------------  -----------------  -----------------  -----------------
         O           -3.186200978306    -0.324687903492     0.007009155353    15.994914619570
         C            1.637146021694    -0.333764903492    -0.015124844647    12.000000000000
         C            0.385977021694    -0.959528903492    -0.009807844647    12.000000000000
         C           -0.818114278306    -0.161585403492    -0.000675044647    12.000000000000
         C            1.675460021694     1.067121096508    -0.006734844647    12.000000000000
         C           -0.740791978306     1.192964096508     0.006681155353    12.000000000000
         C            0.499337021694     1.824281096508     0.001595155353    12.000000000000
         C            2.908680021694    -1.141388903492     0.013722155353    12.000000000000
         C           -2.100656978306    -0.898051903492    -0.002254844647    12.000000000000
         H            0.325901021694    -2.048719903492    -0.019835844647     1.007825032230
         H            2.639754021694     1.573239096508    -0.014825844647     1.007825032230
         H           -1.671134978306     1.754957096508     0.010541155353     1.007825032230
         H            2.758585021694    -2.126935903492    -0.435458844647     1.007825032230
         H            3.708197021694    -0.635531903492    -0.534704844647     1.007825032230
         H            3.254660021694    -1.292388903492     1.041863155353     1.007825032230
         H            0.557580021694     2.910197096508     0.003325155353     1.007825032230
         H           -2.049497978306    -2.007363903492    -0.012130844647     1.007825032230

  Basis Set: AUG-CC-PVTZ
    Blend: AUG-CC-PVTZ
  Basis Set: (AUG-CC-PVTZ AUX)
    Blend: AUG-CC-PVTZ-JKFIT
	 Reference Energy          =    -382.5943363171530791 [Eh]
	 Singles Energy            =      -0.0000000000000000 [Eh]
	 Same-Spin Energy          =      -0.4081125752772087 [Eh]
	 Opposite-Spin Energy      =      -1.2865005629362549 [Eh]
	 Correlation Energy        =      -1.6946131382134637 [Eh]
	 Total Energy              =    -384.2889494553665486 [Eh]

	 ================> DF-SCS-MP2 Energies <==================
	-----------------------------------------------------------
	 SCS Same-Spin Scale       =       0.3333333333333333 [-]
	 SCS Opposite-Spin Scale   =       1.2000000000000000 [-]
	 SCS Same-Spin Energy      =      -0.1360375250924029 [Eh]
	 SCS Opposite-Spin Energy  =      -1.5438006755235059 [Eh]
	 SCS Correlation Energy    =      -1.6798382006159087 [Eh]
	 SCS Total Energy          =    -384.2741745177689836 [Eh]
	-----------------------------------------------------------

  Dipole Moment: [D]
     X:     3.6583      Y:    -0.5209      Z:     0.0223     Total:     3.6953

*** Psi4 exiting successfully. Buy a developer a beer!
