                               Psi4 1.3.2 release

  ==> Input File <==

--------------------------------------------------------------------------
#psi4
#
memory 32 gb

molecule  {
0 1
  O       -3.2622350    -0.3059220     0.0067540
  C        1.5611120    -0.3149990    -0.0153800
  C        0.3099430    -0.9407630    -0.0100630
  C       -0.8692280    -0.1880260    -0.0014190
  C        1.5994260     1.0858870    -0.0069900
  C       -0.8168260     1.2117300     0.0064260
  C        0.4233030     1.8430470     0.0013400
  C        2.8326460    -1.1226230     0.0134670
  C       -2.0882863    -0.8325462    -0.0024362
  H        0.2498670    -2.0299540    -0.0200910
  H        2.5637200     1.5920050    -0.0150810
  H       -1.7471690     1.7737230     0.0102860
  H        2.6825510    -2.1081700    -0.4357140
  H        3.6321630    -0.6167660    -0.5349600
  H        3.1786260    -1.2736230     1.0416080
  H        0.4815460     2.9289630     0.0030700
  H       -2.1255320    -1.9885980    -0.0123860
units angstrom
no_reorient  #important for SAPT in psi4, default
symmetry c1  #important for SAPT in psi4, default
}

set PROPERTIES_ORIGIN ["COM"]
properties('MP2/aug-cc-pvtz', properties = ['dipole'])
--------------------------------------------------------------------------

    Molecular point group: c1
  Charge       = 0
  Multiplicity = 1
  Basis Set: AUG-CC-PVTZ
    Blend: AUG-CC-PVTZ
  Basis Set: (AUG-CC-PVTZ AUX)
    Blend: AUG-CC-PVTZ-JKFIT

    Orbital Energies [Eh]
    ---------------------

    Doubly Occupied:

       1A    -20.542308     2A    -11.334551     3A    -11.265624
       4A    -11.263875     5A    -11.262724     6A    -11.258470
       7A    -11.254313     8A    -11.249574     9A    -11.241612
      10A     -1.335505    11A     -1.181926    12A     -1.078824
      13A     -1.053654    14A     -0.954222    15A     -0.907635
      16A     -0.840070    17A     -0.767463    18A     -0.710823
      19A     -0.683037    20A     -0.654180    21A     -0.612983
      22A     -0.595073    23A     -0.592068    24A     -0.588800
      25A     -0.555686    26A     -0.540999    27A     -0.523235
      28A     -0.507282    29A     -0.476968    30A     -0.424079
      31A     -0.357981    32A     -0.344318

  @DF-RHF Final Energy:  -382.57693825414168

   => Energetics <=

    Nuclear Repulsion Energy =            397.1883561404046645
    One-Electron Energy =               -1305.6108632299412875
    Two-Electron Energy =                 525.8455688353949427
    Total Energy =                       -382.5769382541416235
  Basis Set: (AUG-CC-PVTZ AUX)
    Blend: AUG-CC-PVTZ-RI
    Molecular point group: c1

    Geometry (in Angstrom), charge = 0, multiplicity = 1:

       Center              X                  Y                   Z               Mass
    ------------   -----------------  -----------------  -----------------  -----------------
         O           -3.197528049347    -0.324841160038     0.007050635472    15.994914619570
         C            1.625818950653    -0.333918160038    -0.015083364528    12.000000000000
         C            0.374649950653    -0.959682160038    -0.009766364528    12.000000000000
         C           -0.804521049347    -0.206945160038    -0.001122364528    12.000000000000
         C            1.664132950653     1.066967839962    -0.006693364528    12.000000000000
         C           -0.752119049347     1.192810839962     0.006722635472    12.000000000000
         C            0.488009950653     1.824127839962     0.001636635472    12.000000000000
         C            2.897352950653    -1.141542160038     0.013763635472    12.000000000000
         C           -2.023579349347    -0.851465360038    -0.002139564528    12.000000000000
         H            0.314573950653    -2.048873160038    -0.019794364528     1.007825032230
         H            2.628426950653     1.573085839962    -0.014784364528     1.007825032230
         H           -1.682462049347     1.754803839962     0.010582635472     1.007825032230
         H            2.747257950653    -2.127089160038    -0.435417364528     1.007825032230
         H            3.696869950653    -0.635685160038    -0.534663364528     1.007825032230
         H            3.243332950653    -1.292542160038     1.041904635472     1.007825032230
         H            0.546252950653     2.910043839962     0.003366635472     1.007825032230
         H           -2.060825049347    -2.007517160038    -0.012089364528     1.007825032230

  Basis Set: AUG-CC-PVTZ
    Blend: AUG-CC-PVTZ
  Basis Set: (AUG-CC-PVTZ AUX)
    Blend: AUG-CC-PVTZ-JKFIT
	 Reference Energy          =    -382.5769382541416803 [Eh]
	 Singles Energy            =      -0.0000000000000000 [Eh]
	 Same-Spin Energy          =      -0.4108874714765280 [Eh]
	 Opposite-Spin Energy      =      -1.2915611803415219 [Eh]
	 Correlation Energy        =      -1.7024486518180499 [Eh]
	 Total Energy              =    -384.2793869059597114 [Eh]

	 ================> DF-SCS-MP2 Energies <==================
	-----------------------------------------------------------
	 SCS Same-Spin Scale       =       0.3333333333333333 [-]
	 SCS Opposite-Spin Scale   =       1.2000000000000000 [-]
	 SCS Same-Spin Energy      =      -0.1369624904921760 [Eh]
	 SCS Opposite-Spin Energy  =      -1.5498734164098262 [Eh]
	 SCS Correlation Energy    =      -1.6868359069020022 [Eh]
	 SCS Total Energy          =    -384.2637741610436706 [Eh]
	-----------------------------------------------------------

  Dipole Moment: [D]
     X:     4.3805      Y:    -0.2144      Z:     0.0222     Total:     4.3858

*** Psi4 exiting successfully. Buy a developer a beer!
