                               Psi4 1.3.2 release

  ==> Input File <==

--------------------------------------------------------------------------
#psi4
#
memory 32 gb

molecule  {
0 1
  O       -3.2622350    -0.3059220     0.0067540
  C        1.6424396    -0.1998289     0.0552672
  C        0.3099430    -0.9407630    -0.0100630
  C       -0.8692280    -0.1880260    -0.0014190
  C        1.5994260     1.0858870    -0.0069900
  C       -0.8168260     1.2117300     0.0064260
  C        0.4233030     1.8430470     0.0013400
  C        2.8326460    -1.1226230     0.0134670
  C       -2.1766910    -0.8792860    -0.0025100
  H        0.2498670    -2.0299540    -0.0200910
  H        2.5637200     1.5920050    -0.0150810
  H       -1.7471690     1.7737230     0.0102860
  H        2.6825510    -2.1081700    -0.4357140
  H        3.6321630    -0.6167660    -0.5349600
  H        3.1786260    -1.2736230     1.0416080
  H        0.4815460     2.9289630     0.0030700
  H       -2.1255320    -1.9885980    -0.0123860
units angstrom
no_reorient  #important for SAPT in psi4, default
symmetry c1  #important for SAPT in psi4, default
}

set PROPERTIES_ORIGIN ["COM"]
properties('MP2/aug-cc-pvtz', properties = ['dipole'])
--------------------------------------------------------------------------

    Molecular point group: c1
  Charge       = 0
  Multiplicity = 1
  Basis Set: AUG-CC-PVTZ
    Blend: AUG-CC-PVTZ
  Basis Set: (AUG-CC-PVTZ AUX)
    Blend: AUG-CC-PVTZ-JKFIT

    Orbital Energies [Eh]
    ---------------------

    Doubly Occupied:

       1A    -20.555394     2A    -11.337232     3A    -11.270697
       4A    -11.258611     5A    -11.253594     6A    -11.249516
       7A    -11.246599     8A    -11.239424     9A    -11.237371
      10A     -1.379859    11A     -1.173884    12A     -1.075112
      13A     -1.036603    14A     -0.951248    15A     -0.883633
      16A     -0.846985    17A     -0.765811    18A     -0.707704
      19A     -0.678090    20A     -0.650164    21A     -0.619899
      22A     -0.616524    23A     -0.592329    24A     -0.580785
      25A     -0.553792    26A     -0.544560    27A     -0.523895
      28A     -0.490913    29A     -0.486930    30A     -0.427166
      31A     -0.364588    32A     -0.332519

  @DF-RHF Final Energy:  -382.57310413236854

   => Energetics <=

    Nuclear Repulsion Energy =            396.0161868863945642
    One-Electron Energy =               -1303.3157141105498340
    Two-Electron Energy =                 524.7264230917868417
    Total Energy =                       -382.5731041323684849
  Basis Set: (AUG-CC-PVTZ AUX)
    Blend: AUG-CC-PVTZ-RI
    Molecular point group: c1

    Geometry (in Angstrom), charge = 0, multiplicity = 1:

       Center              X                  Y                   Z               Mass
    ------------   -----------------  -----------------  -----------------  -----------------
         O           -3.196820678383    -0.331680911809    -0.000003323632    15.994914619570
         C            1.707853921617    -0.225587811809     0.048509876368    12.000000000000
         C            0.375357321617    -0.966521911809    -0.016820323632    12.000000000000
         C           -0.803813678383    -0.213784911809    -0.008176323632    12.000000000000
         C            1.664840321617     1.060128088191    -0.013747323632    12.000000000000
         C           -0.751411678383     1.185971088191    -0.000331323632    12.000000000000
         C            0.488717321617     1.817288088191    -0.005417323632    12.000000000000
         C            2.898060321617    -1.148381911809     0.006709676368    12.000000000000
         C           -2.111276678383    -0.905044911809    -0.009267323632    12.000000000000
         H            0.315281321617    -2.055712911809    -0.026848323632     1.007825032230
         H            2.629134321617     1.566246088191    -0.021838323632     1.007825032230
         H           -1.681754678383     1.747964088191     0.003528676368     1.007825032230
         H            2.747965321617    -2.133928911809    -0.442471323632     1.007825032230
         H            3.697577321617    -0.642524911809    -0.541717323632     1.007825032230
         H            3.244040321617    -1.299381911809     1.034850676368     1.007825032230
         H            0.546960321617     2.903204088191    -0.003687323632     1.007825032230
         H           -2.060117678383    -2.014356911809    -0.019143323632     1.007825032230

  Basis Set: AUG-CC-PVTZ
    Blend: AUG-CC-PVTZ
  Basis Set: (AUG-CC-PVTZ AUX)
    Blend: AUG-CC-PVTZ-JKFIT
	 Reference Energy          =    -382.5731041323685417 [Eh]
	 Singles Energy            =      -0.0000000000000000 [Eh]
	 Same-Spin Energy          =      -0.4072916319361367 [Eh]
	 Opposite-Spin Energy      =      -1.2871166665584974 [Eh]
	 Correlation Energy        =      -1.6944082984946340 [Eh]
	 Total Energy              =    -384.2675124308631780 [Eh]

	 ================> DF-SCS-MP2 Energies <==================
	-----------------------------------------------------------
	 SCS Same-Spin Scale       =       0.3333333333333333 [-]
	 SCS Opposite-Spin Scale   =       1.2000000000000000 [-]
	 SCS Same-Spin Energy      =      -0.1357638773120455 [Eh]
	 SCS Opposite-Spin Energy  =      -1.5445399998701970 [Eh]
	 SCS Correlation Energy    =      -1.6803038771822425 [Eh]
	 SCS Total Energy          =    -384.2534080095508102 [Eh]
	-----------------------------------------------------------

  Dipole Moment: [D]
     X:     3.6555      Y:    -0.5999      Z:    -0.0072     Total:     3.7044

*** Psi4 exiting successfully. Buy a developer a beer!
