                               Psi4 1.3.2 release

  ==> Input File <==

--------------------------------------------------------------------------
#psi4
#
memory 32 gb

molecule  {
0 1
  O       -3.2622350    -0.3059220     0.0067540
  C        1.5611120    -0.3149990    -0.0153800
  C        0.3099430    -0.9407630    -0.0100630
  C       -0.8692280    -0.1880260    -0.0014190
  C        1.5994260     1.0858870    -0.0069900
  C       -0.8168260     1.2117300     0.0064260
  C        0.4233030     1.8430470     0.0013400
  C        2.8326460    -1.1226230     0.0134670
  C       -2.1766910    -0.8792860    -0.0025100
  H        0.2498670    -2.0299540    -0.0200910
  H        2.5637200     1.5920050    -0.0150810
  H       -1.7471690     1.7737230     0.0102860
  H        2.6825510    -2.1081700    -0.4357140
  H        3.6321630    -0.6167660    -0.5349600
  H        3.1470369    -1.2598362     0.9477355
  H        0.4815460     2.9289630     0.0030700
  H       -2.1255320    -1.9885980    -0.0123860
units angstrom
no_reorient  #important for SAPT in psi4, default
symmetry c1  #important for SAPT in psi4, default
}

set PROPERTIES_ORIGIN ["COM"]
properties('MP2/aug-cc-pvtz', properties = ['dipole'])
--------------------------------------------------------------------------

    Molecular point group: c1
  Charge       = 0
  Multiplicity = 1
  Basis Set: AUG-CC-PVTZ
    Blend: AUG-CC-PVTZ
  Basis Set: (AUG-CC-PVTZ AUX)
    Blend: AUG-CC-PVTZ-JKFIT

    Orbital Energies [Eh]
    ---------------------

    Doubly Occupied:

       1A    -20.553967     2A    -11.336505     3A    -11.258648
       4A    -11.256527     5A    -11.253662     6A    -11.252484
       7A    -11.250229     8A    -11.249015     9A    -11.225632
      10A     -1.378634    11A     -1.172846    12A     -1.068011
      13A     -1.042957    14A     -0.956435    15A     -0.891801
      16A     -0.835184    17A     -0.773672    18A     -0.709546
      19A     -0.678732    20A     -0.649997    21A     -0.618950
      22A     -0.610197    23A     -0.607256    24A     -0.583030
      25A     -0.552107    26A     -0.545532    27A     -0.519853
      28A     -0.502621    29A     -0.490357    30A     -0.428254
      31A     -0.353337    32A     -0.340145

  @DF-RHF Final Energy:  -382.59169279210596

   => Energetics <=

    Nuclear Repulsion Energy =            396.6855227362667620
    One-Electron Energy =               -1304.6621851204006362
    Two-Electron Energy =                 525.3849695920279146
    Total Energy =                       -382.5916927921059596
  Basis Set: (AUG-CC-PVTZ AUX)
    Blend: AUG-CC-PVTZ-RI
    Molecular point group: c1

    Geometry (in Angstrom), charge = 0, multiplicity = 1:

       Center              X                  Y                   Z               Mass
    ------------   -----------------  -----------------  -----------------  -----------------
         O           -3.188426639187    -0.320285152708     0.007846026376    15.994914619570
         C            1.634920360813    -0.329362152708    -0.014287973624    12.000000000000
         C            0.383751360813    -0.955126152708    -0.008970973624    12.000000000000
         C           -0.795419639187    -0.202389152708    -0.000326973624    12.000000000000
         C            1.673234360813     1.071523847292    -0.005897973624    12.000000000000
         C           -0.743017639187     1.197366847292     0.007518026376    12.000000000000
         C            0.497111360813     1.828683847292     0.002432026376    12.000000000000
         C            2.906454360813    -1.136986152708     0.014559026376    12.000000000000
         C           -2.102882639187    -0.893649152708    -0.001417973624    12.000000000000
         H            0.323675360813    -2.044317152708    -0.018998973624     1.007825032230
         H            2.637528360813     1.577641847292    -0.013988973624     1.007825032230
         H           -1.673360639187     1.759359847292     0.011378026376     1.007825032230
         H            2.756359360813    -2.122533152708    -0.434621973624     1.007825032230
         H            3.705971360813    -0.631129152708    -0.533867973624     1.007825032230
         H            3.220845260813    -1.274199352708     0.948827526376     1.007825032230
         H            0.555354360813     2.914599847292     0.004162026376     1.007825032230
         H           -2.051723639187    -2.002961152708    -0.011293973624     1.007825032230

  Basis Set: AUG-CC-PVTZ
    Blend: AUG-CC-PVTZ
  Basis Set: (AUG-CC-PVTZ AUX)
    Blend: AUG-CC-PVTZ-JKFIT
	 Reference Energy          =    -382.5916927921059596 [Eh]
	 Singles Energy            =      -0.0000000000000000 [Eh]
	 Same-Spin Energy          =      -0.4081659978118164 [Eh]
	 Opposite-Spin Energy      =      -1.2859512858789757 [Eh]
	 Correlation Energy        =      -1.6941172836907921 [Eh]
	 Total Energy              =    -384.2858100757967463 [Eh]

	 ================> DF-SCS-MP2 Energies <==================
	-----------------------------------------------------------
	 SCS Same-Spin Scale       =       0.3333333333333333 [-]
	 SCS Opposite-Spin Scale   =       1.2000000000000000 [-]
	 SCS Same-Spin Energy      =      -0.1360553326039388 [Eh]
	 SCS Opposite-Spin Energy  =      -1.5431415430547708 [Eh]
	 SCS Correlation Energy    =      -1.6791968756587097 [Eh]
	 SCS Total Energy          =    -384.2708896677646635 [Eh]
	-----------------------------------------------------------

  Dipole Moment: [D]
     X:     3.7114      Y:    -0.5069      Z:     0.0457     Total:     3.7461

*** Psi4 exiting successfully. Buy a developer a beer!
