                               Psi4 1.3.2 release

  ==> Input File <==

--------------------------------------------------------------------------
#psi4
#
memory 32 gb

molecule  {
0 1
  O       -3.2622350    -0.3059220     0.0067540
  C        1.5611120    -0.3149990    -0.0153800
  C        0.3099430    -0.9407630    -0.0100630
  C       -0.8573634    -0.2109486    -0.0016639
  C        1.5994260     1.0858870    -0.0069900
  C       -0.8168260     1.2117300     0.0064260
  C        0.4233030     1.8430470     0.0013400
  C        2.8326460    -1.1226230     0.0134670
  C       -2.1766910    -0.8792860    -0.0025100
  H        0.2498670    -2.0299540    -0.0200910
  H        2.5637200     1.5920050    -0.0150810
  H       -1.7471690     1.7737230     0.0102860
  H        2.6825510    -2.1081700    -0.4357140
  H        3.6321630    -0.6167660    -0.5349600
  H        3.1786260    -1.2736230     1.0416080
  H        0.4815460     2.9289630     0.0030700
  H       -2.1255320    -1.9885980    -0.0123860
units angstrom
no_reorient  #important for SAPT in psi4, default
symmetry c1  #important for SAPT in psi4, default
}

set PROPERTIES_ORIGIN ["COM"]
properties('MP2/aug-cc-pvtz', properties = ['dipole'])
--------------------------------------------------------------------------

    Molecular point group: c1
  Charge       = 0
  Multiplicity = 1
  Basis Set: AUG-CC-PVTZ
    Blend: AUG-CC-PVTZ
  Basis Set: (AUG-CC-PVTZ AUX)
    Blend: AUG-CC-PVTZ-JKFIT

    Orbital Energies [Eh]
    ---------------------

    Doubly Occupied:

       1A    -20.554782     2A    -11.337031     3A    -11.259265
       4A    -11.255714     5A    -11.254023     6A    -11.253041
       7A    -11.251957     8A    -11.249319     9A    -11.237973
      10A     -1.378919    11A     -1.173501    12A     -1.064281
      13A     -1.045546    14A     -0.948150    15A     -0.892541
      16A     -0.832735    17A     -0.774500    18A     -0.708662
      19A     -0.680036    20A     -0.648818    21A     -0.620732
      22A     -0.608692    23A     -0.590970    24A     -0.583005
      25A     -0.552358    26A     -0.544564    27A     -0.520644
      28A     -0.502921    29A     -0.489365    30A     -0.427931
      31A     -0.356961    32A     -0.337012

  @DF-RHF Final Energy:  -382.59676938980459

   => Energetics <=

    Nuclear Repulsion Energy =            396.2185444644041468
    One-Electron Energy =               -1303.7587278156786397
    Two-Electron Energy =                 524.9434139614699006
    Total Energy =                       -382.5967693898045354
  Basis Set: (AUG-CC-PVTZ AUX)
    Blend: AUG-CC-PVTZ-RI
    Molecular point group: c1

    Geometry (in Angstrom), charge = 0, multiplicity = 1:

       Center              X                  Y                   Z               Mass
    ------------   -----------------  -----------------  -----------------  -----------------
         O           -3.189877706085    -0.317878257292     0.007082490204    15.994914619570
         C            1.633469293915    -0.326955257292    -0.015051509796    12.000000000000
         C            0.382300293915    -0.952719257292    -0.009734509796    12.000000000000
         C           -0.785006106085    -0.222904857292    -0.001335409796    12.000000000000
         C            1.671783293915     1.073930742708    -0.006661509796    12.000000000000
         C           -0.744468706085     1.199773742708     0.006754490204    12.000000000000
         C            0.495660293915     1.831090742708     0.001668490204    12.000000000000
         C            2.905003293915    -1.134579257292     0.013795490204    12.000000000000
         C           -2.104333706085    -0.891242257292    -0.002181509796    12.000000000000
         H            0.322224293915    -2.041910257292    -0.019762509796     1.007825032230
         H            2.636077293915     1.580048742708    -0.014752509796     1.007825032230
         H           -1.674811706085     1.761766742708     0.010614490204     1.007825032230
         H            2.754908293915    -2.120126257292    -0.435385509796     1.007825032230
         H            3.704520293915    -0.628722257292    -0.534631509796     1.007825032230
         H            3.250983293915    -1.285579257292     1.041936490204     1.007825032230
         H            0.553903293915     2.917006742708     0.003398490204     1.007825032230
         H           -2.053174706085    -2.000554257292    -0.012057509796     1.007825032230

  Basis Set: AUG-CC-PVTZ
    Blend: AUG-CC-PVTZ
  Basis Set: (AUG-CC-PVTZ AUX)
    Blend: AUG-CC-PVTZ-JKFIT
	 Reference Energy          =    -382.5967693898045923 [Eh]
	 Singles Energy            =      -0.0000000000000000 [Eh]
	 Same-Spin Energy          =      -0.4080935514216581 [Eh]
	 Opposite-Spin Energy      =      -1.2864630574550771 [Eh]
	 Correlation Energy        =      -1.6945566088767352 [Eh]
	 Total Energy              =    -384.2913259986813159 [Eh]

	 ================> DF-SCS-MP2 Energies <==================
	-----------------------------------------------------------
	 SCS Same-Spin Scale       =       0.3333333333333333 [-]
	 SCS Opposite-Spin Scale   =       1.2000000000000000 [-]
	 SCS Same-Spin Energy      =      -0.1360311838072193 [Eh]
	 SCS Opposite-Spin Energy  =      -1.5437556689460925 [Eh]
	 SCS Correlation Energy    =      -1.6797868527533120 [Eh]
	 SCS Total Energy          =    -384.2765562425578878 [Eh]
	-----------------------------------------------------------

  Dipole Moment: [D]
     X:     3.6931      Y:    -0.4804      Z:     0.0221     Total:     3.7243

*** Psi4 exiting successfully. Buy a developer a beer!
