                               Psi4 1.3.2 release

  ==> Input File <==

--------------------------------------------------------------------------
#psi4
#
memory 32 gb

molecule  {
0 1
  O       -3.2622350    -0.3059220     0.0067540
  C        1.5145843    -0.3967769    -0.0623503
  C        0.3099430    -0.9407630    -0.0100630
  C       -0.8692280    -0.1880260    -0.0014190
  C        1.5994260     1.0858870    -0.0069900
  C       -0.8168260     1.2117300     0.0064260
  C        0.4233030     1.8430470     0.0013400
  C        2.8326460    -1.1226230     0.0134670
  C       -2.1766910    -0.8792860    -0.0025100
  H        0.2498670    -2.0299540    -0.0200910
  H        2.5637200     1.5920050    -0.0150810
  H       -1.7471690     1.7737230     0.0102860
  H        2.6825510    -2.1081700    -0.4357140
  H        3.6321630    -0.6167660    -0.5349600
  H        3.1786260    -1.2736230     1.0416080
  H        0.4815460     2.9289630     0.0030700
  H       -2.1255320    -1.9885980    -0.0123860
units angstrom
no_reorient  #important for SAPT in psi4, default
symmetry c1  #important for SAPT in psi4, default
}

set PROPERTIES_ORIGIN ["COM"]
properties('MP2/aug-cc-pvtz', properties = ['dipole'])
--------------------------------------------------------------------------

    Molecular point group: c1
  Charge       = 0
  Multiplicity = 1
  Basis Set: AUG-CC-PVTZ
    Blend: AUG-CC-PVTZ
  Basis Set: (AUG-CC-PVTZ AUX)
    Blend: AUG-CC-PVTZ-JKFIT

    Orbital Energies [Eh]
    ---------------------

    Doubly Occupied:

       1A    -20.552430     2A    -11.335718     3A    -11.263616
       4A    -11.257813     5A    -11.253929     6A    -11.251432
       7A    -11.249736     8A    -11.245982     9A    -11.238086
      10A     -1.377410    11A     -1.174071    12A     -1.065712
      13A     -1.043492    14A     -0.950389    15A     -0.895817
      16A     -0.825353    17A     -0.775214    18A     -0.710366
      19A     -0.678046    20A     -0.649165    21A     -0.618493
      22A     -0.606759    23A     -0.592604    24A     -0.585944
      25A     -0.552465    26A     -0.544036    27A     -0.531841
      28A     -0.489602    29A     -0.483991    30A     -0.427892
      31A     -0.361362    32A     -0.334462

  @DF-RHF Final Energy:  -382.58585213283442

   => Energetics <=

    Nuclear Repulsion Energy =            396.3152065698561159
    One-Electron Energy =               -1303.9556638225369625
    Two-Electron Energy =                 525.0546051198463147
    Total Energy =                       -382.5858521328344750
  Basis Set: (AUG-CC-PVTZ AUX)
    Blend: AUG-CC-PVTZ-RI
    Molecular point group: c1

    Geometry (in Angstrom), charge = 0, multiplicity = 1:

       Center              X                  Y                   Z               Mass
    ------------   -----------------  -----------------  -----------------  -----------------
         O           -3.184041273432    -0.311995546820     0.011752791772    15.994914619570
         C            1.592778026568    -0.402850446820    -0.057351508228    12.000000000000
         C            0.388136726568    -0.946836546820    -0.005064208228    12.000000000000
         C           -0.791034273432    -0.194099546820     0.003579791772    12.000000000000
         C            1.677619726568     1.079813453180    -0.001991208228    12.000000000000
         C           -0.738632273432     1.205656453180     0.011424791772    12.000000000000
         C            0.501496726568     1.836973453180     0.006338791772    12.000000000000
         C            2.910839726568    -1.128696546820     0.018465791772    12.000000000000
         C           -2.098497273432    -0.885359546820     0.002488791772    12.000000000000
         H            0.328060726568    -2.036027546820    -0.015092208228     1.007825032230
         H            2.641913726568     1.585931453180    -0.010082208228     1.007825032230
         H           -1.668975273432     1.767649453180     0.015284791772     1.007825032230
         H            2.760744726568    -2.114243546820    -0.430715208228     1.007825032230
         H            3.710356726568    -0.622839546820    -0.529961208228     1.007825032230
         H            3.256819726568    -1.279696546820     1.046606791772     1.007825032230
         H            0.559739726568     2.922889453180     0.008068791772     1.007825032230
         H           -2.047338273432    -1.994671546820    -0.007387208228     1.007825032230

  Basis Set: AUG-CC-PVTZ
    Blend: AUG-CC-PVTZ
  Basis Set: (AUG-CC-PVTZ AUX)
    Blend: AUG-CC-PVTZ-JKFIT
	 Reference Energy          =    -382.5858521328344182 [Eh]
	 Singles Energy            =      -0.0000000000000000 [Eh]
	 Same-Spin Energy          =      -0.4080449913741332 [Eh]
	 Opposite-Spin Energy      =      -1.2869712194972913 [Eh]
	 Correlation Energy        =      -1.6950162108714246 [Eh]
	 Total Energy              =    -384.2808683437058335 [Eh]

	 ================> DF-SCS-MP2 Energies <==================
	-----------------------------------------------------------
	 SCS Same-Spin Scale       =       0.3333333333333333 [-]
	 SCS Opposite-Spin Scale   =       1.2000000000000000 [-]
	 SCS Same-Spin Energy      =      -0.1360149971247110 [Eh]
	 SCS Opposite-Spin Energy  =      -1.5443654633967496 [Eh]
	 SCS Correlation Energy    =      -1.6803804605214607 [Eh]
	 SCS Total Energy          =    -384.2662325933558805 [Eh]
	-----------------------------------------------------------

  Dipole Moment: [D]
     X:     3.6963      Y:    -0.4268      Z:     0.0418     Total:     3.7211

*** Psi4 exiting successfully. Buy a developer a beer!
