                               Psi4 1.3.2 release

  ==> Input File <==

--------------------------------------------------------------------------
#psi4
#
memory 32 gb

molecule  {
0 1
  O       -3.2622350    -0.3059220     0.0067540
  C        1.5611120    -0.3149990    -0.0153800
  C        0.3325417    -0.9840320    -0.0088643
  C       -0.8692280    -0.1880260    -0.0014190
  C        1.5994260     1.0858870    -0.0069900
  C       -0.8168260     1.2117300     0.0064260
  C        0.4233030     1.8430470     0.0013400
  C        2.8326460    -1.1226230     0.0134670
  C       -2.1766910    -0.8792860    -0.0025100
  H        0.2498670    -2.0299540    -0.0200910
  H        2.5637200     1.5920050    -0.0150810
  H       -1.7471690     1.7737230     0.0102860
  H        2.6825510    -2.1081700    -0.4357140
  H        3.6321630    -0.6167660    -0.5349600
  H        3.1786260    -1.2736230     1.0416080
  H        0.4815460     2.9289630     0.0030700
  H       -2.1255320    -1.9885980    -0.0123860
units angstrom
no_reorient  #important for SAPT in psi4, default
symmetry c1  #important for SAPT in psi4, default
}

set PROPERTIES_ORIGIN ["COM"]
properties('MP2/aug-cc-pvtz', properties = ['dipole'])
--------------------------------------------------------------------------

    Molecular point group: c1
  Charge       = 0
  Multiplicity = 1
  Basis Set: AUG-CC-PVTZ
    Blend: AUG-CC-PVTZ
  Basis Set: (AUG-CC-PVTZ AUX)
    Blend: AUG-CC-PVTZ-JKFIT

    Orbital Energies [Eh]
    ---------------------

    Doubly Occupied:

       1A    -20.553084     2A    -11.335765     3A    -11.259996
       4A    -11.257742     5A    -11.256567     6A    -11.254805
       7A    -11.251635     8A    -11.250391     9A    -11.236551
      10A     -1.377887    11A     -1.169345    12A     -1.065103
      13A     -1.041424    14A     -0.947620    15A     -0.892571
      16A     -0.837503    17A     -0.767553    18A     -0.710839
      19A     -0.680132    20A     -0.651610    21A     -0.618603
      22A     -0.611855    23A     -0.590042    24A     -0.584786
      25A     -0.552668    26A     -0.542487    27A     -0.522611
      28A     -0.500716    29A     -0.487450    30A     -0.427262
      31A     -0.349833    32A     -0.340984

  @DF-RHF Final Energy:  -382.59401252717043

   => Energetics <=

    Nuclear Repulsion Energy =            395.5509616923139902
    One-Electron Energy =               -1302.4351109667411492
    Two-Electron Energy =                 524.2901367472567244
    Total Energy =                       -382.5940125271704346
  Basis Set: (AUG-CC-PVTZ AUX)
    Blend: AUG-CC-PVTZ-RI
    Molecular point group: c1

    Geometry (in Angstrom), charge = 0, multiplicity = 1:

       Center              X                  Y                   Z               Mass
    ------------   -----------------  -----------------  -----------------  -----------------
         O           -3.190950601856    -0.315844592009     0.006938199361    15.994914619570
         C            1.632396398144    -0.324921592009    -0.015195800639    12.000000000000
         C            0.403826098144    -0.993954592009    -0.008680100639    12.000000000000
         C           -0.797943601856    -0.197948592009    -0.001234800639    12.000000000000
         C            1.670710398144     1.075964407991    -0.006805800639    12.000000000000
         C           -0.745541601856     1.201807407991     0.006610199361    12.000000000000
         C            0.494587398144     1.833124407991     0.001524199361    12.000000000000
         C            2.903930398144    -1.132545592009     0.013651199361    12.000000000000
         C           -2.105406601856    -0.889208592009    -0.002325800639    12.000000000000
         H            0.321151398144    -2.039876592009    -0.019906800639     1.007825032230
         H            2.635004398144     1.582082407991    -0.014896800639     1.007825032230
         H           -1.675884601856     1.763800407991     0.010470199361     1.007825032230
         H            2.753835398144    -2.118092592009    -0.435529800639     1.007825032230
         H            3.703447398144    -0.626688592009    -0.534775800639     1.007825032230
         H            3.249910398144    -1.283545592009     1.041792199361     1.007825032230
         H            0.552830398144     2.919040407991     0.003254199361     1.007825032230
         H           -2.054247601856    -1.998520592009    -0.012201800639     1.007825032230

  Basis Set: AUG-CC-PVTZ
    Blend: AUG-CC-PVTZ
  Basis Set: (AUG-CC-PVTZ AUX)
    Blend: AUG-CC-PVTZ-JKFIT
	 Reference Energy          =    -382.5940125271704346 [Eh]
	 Singles Energy            =      -0.0000000000000000 [Eh]
	 Same-Spin Energy          =      -0.4081892642827151 [Eh]
	 Opposite-Spin Energy      =      -1.2867569510614520 [Eh]
	 Correlation Energy        =      -1.6949462153441672 [Eh]
	 Total Energy              =    -384.2889587425145805 [Eh]

	 ================> DF-SCS-MP2 Energies <==================
	-----------------------------------------------------------
	 SCS Same-Spin Scale       =       0.3333333333333333 [-]
	 SCS Opposite-Spin Scale   =       1.2000000000000000 [-]
	 SCS Same-Spin Energy      =      -0.1360630880942383 [Eh]
	 SCS Opposite-Spin Energy  =      -1.5441083412737424 [Eh]
	 SCS Correlation Energy    =      -1.6801714293679808 [Eh]
	 SCS Total Energy          =    -384.2741839565384225 [Eh]
	-----------------------------------------------------------

  Dipole Moment: [D]
     X:     3.6876      Y:    -0.4776      Z:     0.0210     Total:     3.7185

*** Psi4 exiting successfully. Buy a developer a beer!
