                               Psi4 1.3.2 release

  ==> Input File <==

--------------------------------------------------------------------------
#psi4
#
memory 32 gb

molecule  {
0 1
  O       -3.2622350    -0.3059220     0.0067540
  C        1.5611120    -0.3149990    -0.0153800
  C        0.2693444    -0.8519914    -0.0124784
  C       -0.8692280    -0.1880260    -0.0014190
  C        1.5994260     1.0858870    -0.0069900
  C       -0.8168260     1.2117300     0.0064260
  C        0.4233030     1.8430470     0.0013400
  C        2.8326460    -1.1226230     0.0134670
  C       -2.1766910    -0.8792860    -0.0025100
  H        0.2498670    -2.0299540    -0.0200910
  H        2.5637200     1.5920050    -0.0150810
  H       -1.7471690     1.7737230     0.0102860
  H        2.6825510    -2.1081700    -0.4357140
  H        3.6321630    -0.6167660    -0.5349600
  H        3.1786260    -1.2736230     1.0416080
  H        0.4815460     2.9289630     0.0030700
  H       -2.1255320    -1.9885980    -0.0123860
units angstrom
no_reorient  #important for SAPT in psi4, default
symmetry c1  #important for SAPT in psi4, default
}

set PROPERTIES_ORIGIN ["COM"]
properties('MP2/aug-cc-pvtz', properties = ['dipole'])
--------------------------------------------------------------------------

    Molecular point group: c1
  Charge       = 0
  Multiplicity = 1
  Basis Set: AUG-CC-PVTZ
    Blend: AUG-CC-PVTZ
  Basis Set: (AUG-CC-PVTZ AUX)
    Blend: AUG-CC-PVTZ-JKFIT

    Orbital Energies [Eh]
    ---------------------

    Doubly Occupied:

       1A    -20.556810     2A    -11.338941     3A    -11.258638
       4A    -11.255903     5A    -11.252724     6A    -11.249247
       7A    -11.247125     8A    -11.244010     9A    -11.240511
      10A     -1.381081    11A     -1.182219    12A     -1.070265
      13A     -1.044288    14A     -0.950496    15A     -0.891454
      16A     -0.829928    17A     -0.784012    18A     -0.707562
      19A     -0.679540    20A     -0.646244    21A     -0.623880
      22A     -0.601528    23A     -0.592540    24A     -0.579341
      25A     -0.553057    26A     -0.549205    27A     -0.521715
      28A     -0.493476    29A     -0.492572    30A     -0.430477
      31A     -0.361929    32A     -0.337100

  @DF-RHF Final Energy:  -382.58589095328273

   => Energetics <=

    Nuclear Repulsion Energy =            397.6623983539274150
    One-Electron Energy =               -1306.6009410268743522
    Two-Electron Energy =                 526.3526517196642089
    Total Energy =                       -382.5858909532827283
  Basis Set: (AUG-CC-PVTZ AUX)
    Blend: AUG-CC-PVTZ-RI
    Molecular point group: c1

    Geometry (in Angstrom), charge = 0, multiplicity = 1:

       Center              X                  Y                   Z               Mass
    ------------   -----------------  -----------------  -----------------  -----------------
         O           -3.184633899392    -0.329042326458     0.007299436224    15.994914619570
         C            1.638713100608    -0.338119326458    -0.014834563776    12.000000000000
         C            0.346945500608    -0.875111726458    -0.011932963776    12.000000000000
         C           -0.791626899392    -0.211146326458    -0.000873563776    12.000000000000
         C            1.677027100608     1.062766673542    -0.006444563776    12.000000000000
         C           -0.739224899392     1.188609673542     0.006971436224    12.000000000000
         C            0.500904100608     1.819926673542     0.001885436224    12.000000000000
         C            2.910247100608    -1.145743326458     0.014012436224    12.000000000000
         C           -2.099089899392    -0.902406326458    -0.001964563776    12.000000000000
         H            0.327468100608    -2.053074326458    -0.019545563776     1.007825032230
         H            2.641321100608     1.568884673542    -0.014535563776     1.007825032230
         H           -1.669567899392     1.750602673542     0.010831436224     1.007825032230
         H            2.760152100608    -2.131290326458    -0.435168563776     1.007825032230
         H            3.709764100608    -0.639886326458    -0.534414563776     1.007825032230
         H            3.256227100608    -1.296743326458     1.042153436224     1.007825032230
         H            0.559147100608     2.905842673542     0.003615436224     1.007825032230
         H           -2.047930899392    -2.011718326458    -0.011840563776     1.007825032230

  Basis Set: AUG-CC-PVTZ
    Blend: AUG-CC-PVTZ
  Basis Set: (AUG-CC-PVTZ AUX)
    Blend: AUG-CC-PVTZ-JKFIT
	 Reference Energy          =    -382.5858909532827283 [Eh]
	 Singles Energy            =      -0.0000000000000000 [Eh]
	 Same-Spin Energy          =      -0.4082891665437991 [Eh]
	 Opposite-Spin Energy      =      -1.2867824649931798 [Eh]
	 Correlation Energy        =      -1.6950716315369789 [Eh]
	 Total Energy              =    -384.2809625848196902 [Eh]

	 ================> DF-SCS-MP2 Energies <==================
	-----------------------------------------------------------
	 SCS Same-Spin Scale       =       0.3333333333333333 [-]
	 SCS Opposite-Spin Scale   =       1.2000000000000000 [-]
	 SCS Same-Spin Energy      =      -0.1360963888479330 [Eh]
	 SCS Opposite-Spin Energy  =      -1.5441389579918157 [Eh]
	 SCS Correlation Energy    =      -1.6802353468397486 [Eh]
	 SCS Total Energy          =    -384.2661263001224938 [Eh]
	-----------------------------------------------------------

  Dipole Moment: [D]
     X:     3.6660      Y:    -0.4871      Z:     0.0246     Total:     3.6983

*** Psi4 exiting successfully. Buy a developer a beer!
