                               Psi4 1.3.2 release

  ==> Input File <==

--------------------------------------------------------------------------
#psi4
#
memory 32 gb

molecule  {
0 1
  O       -3.2622350    -0.3059220     0.0067540
  C        1.5611120    -0.3149990    -0.0153800
  C        0.3099430    -0.9407630    -0.0100630
  C       -0.8692280    -0.1880260    -0.0014190
  C        1.5994260     1.0858870    -0.0069900
  C       -0.8168260     1.2117300     0.0064260
  C        0.4233030     1.8430470     0.0013400
  C        2.8326460    -1.1226230     0.0134670
  C       -2.2651122    -0.8325836    -0.0017554
  H        0.2498670    -2.0299540    -0.0200910
  H        2.5637200     1.5920050    -0.0150810
  H       -1.7471690     1.7737230     0.0102860
  H        2.6825510    -2.1081700    -0.4357140
  H        3.6321630    -0.6167660    -0.5349600
  H        3.1786260    -1.2736230     1.0416080
  H        0.4815460     2.9289630     0.0030700
  H       -2.1255320    -1.9885980    -0.0123860
units angstrom
no_reorient  #important for SAPT in psi4, default
symmetry c1  #important for SAPT in psi4, default
}

set PROPERTIES_ORIGIN ["COM"]
properties('MP2/aug-cc-pvtz', properties = ['dipole'])
--------------------------------------------------------------------------

    Molecular point group: c1
  Charge       = 0
  Multiplicity = 1
  Basis Set: AUG-CC-PVTZ
    Blend: AUG-CC-PVTZ
  Basis Set: (AUG-CC-PVTZ AUX)
    Blend: AUG-CC-PVTZ-JKFIT

    Orbital Energies [Eh]
    ---------------------

    Doubly Occupied:

       1A    -20.564079     2A    -11.334156     3A    -11.256391
       4A    -11.252315     5A    -11.249974     6A    -11.248728
       7A    -11.246475     8A    -11.244392     9A    -11.235305
      10A     -1.456225    11A     -1.167622    12A     -1.060388
      13A     -1.034264    14A     -0.945449    15A     -0.876016
      16A     -0.828337    17A     -0.766809    18A     -0.709614
      19A     -0.685563    20A     -0.659089    21A     -0.635217
      22A     -0.609397    23A     -0.590379    24A     -0.580972
      25A     -0.579341    26A     -0.550002    27A     -0.520923
      28A     -0.499634    29A     -0.496825    30A     -0.411120
      31A     -0.350387    32A     -0.336904

  @DF-RHF Final Energy:  -382.58985044117156

   => Energetics <=

    Nuclear Repulsion Energy =            396.8004232918278262
    One-Electron Energy =               -1304.8159605860594183
    Two-Electron Energy =                 525.4256868530599149
    Total Energy =                       -382.5898504411716203
  Basis Set: (AUG-CC-PVTZ AUX)
    Blend: AUG-CC-PVTZ-RI
    Molecular point group: c1

    Geometry (in Angstrom), charge = 0, multiplicity = 1:

       Center              X                  Y                   Z               Mass
    ------------   -----------------  -----------------  -----------------  -----------------
         O           -3.179853930387    -0.324837421830     0.006982588086    15.994914619570
         C            1.643493069613    -0.333914421830    -0.015151411914    12.000000000000
         C            0.392324069613    -0.959678421830    -0.009834411914    12.000000000000
         C           -0.786846930387    -0.206941421830    -0.001190411914    12.000000000000
         C            1.681807069613     1.066971578170    -0.006761411914    12.000000000000
         C           -0.734444930387     1.192814578170     0.006654588086    12.000000000000
         C            0.505684069613     1.824131578170     0.001568588086    12.000000000000
         C            2.915027069613    -1.141538421830     0.013695588086    12.000000000000
         C           -2.182731130387    -0.851499021830    -0.001526811914    12.000000000000
         H            0.332248069613    -2.048869421830    -0.019862411914     1.007825032230
         H            2.646101069613     1.573089578170    -0.014852411914     1.007825032230
         H           -1.664787930387     1.754807578170     0.010514588086     1.007825032230
         H            2.764932069613    -2.127085421830    -0.435485411914     1.007825032230
         H            3.714544069613    -0.635681421830    -0.534731411914     1.007825032230
         H            3.261007069613    -1.292538421830     1.041836588086     1.007825032230
         H            0.563927069613     2.910047578170     0.003298588086     1.007825032230
         H           -2.043150930387    -2.007513421830    -0.012157411914     1.007825032230

  Basis Set: AUG-CC-PVTZ
    Blend: AUG-CC-PVTZ
  Basis Set: (AUG-CC-PVTZ AUX)
    Blend: AUG-CC-PVTZ-JKFIT
	 Reference Energy          =    -382.5898504411715635 [Eh]
	 Singles Energy            =      -0.0000000000000000 [Eh]
	 Same-Spin Energy          =      -0.4057297640067544 [Eh]
	 Opposite-Spin Energy      =      -1.2807361482816786 [Eh]
	 Correlation Energy        =      -1.6864659122884329 [Eh]
	 Total Energy              =    -384.2763163534600039 [Eh]

	 ================> DF-SCS-MP2 Energies <==================
	-----------------------------------------------------------
	 SCS Same-Spin Scale       =       0.3333333333333333 [-]
	 SCS Opposite-Spin Scale   =       1.2000000000000000 [-]
	 SCS Same-Spin Energy      =      -0.1352432546689181 [Eh]
	 SCS Opposite-Spin Energy  =      -1.5368833779380142 [Eh]
	 SCS Correlation Energy    =      -1.6721266326069324 [Eh]
	 SCS Total Energy          =    -384.2619770737784961 [Eh]
	-----------------------------------------------------------

  Dipole Moment: [D]
     X:     3.0318      Y:    -0.3509      Z:     0.0258     Total:     3.0522

*** Psi4 exiting successfully. Buy a developer a beer!
