                               Psi4 1.3.2 release

  ==> Input File <==

--------------------------------------------------------------------------
#psi4
#
memory 32 gb

molecule  {
0 1
  O       -3.2622350    -0.3059220     0.0067540
  C        1.5867142    -0.2755614     0.0081722
  C        0.3099430    -0.9407630    -0.0100630
  C       -0.8692280    -0.1880260    -0.0014190
  C        1.5994260     1.0858870    -0.0069900
  C       -0.8168260     1.2117300     0.0064260
  C        0.4233030     1.8430470     0.0013400
  C        2.8326460    -1.1226230     0.0134670
  C       -2.1766910    -0.8792860    -0.0025100
  H        0.2498670    -2.0299540    -0.0200910
  H        2.5637200     1.5920050    -0.0150810
  H       -1.7471690     1.7737230     0.0102860
  H        2.6825510    -2.1081700    -0.4357140
  H        3.6321630    -0.6167660    -0.5349600
  H        3.1786260    -1.2736230     1.0416080
  H        0.4815460     2.9289630     0.0030700
  H       -2.1255320    -1.9885980    -0.0123860
units angstrom
no_reorient  #important for SAPT in psi4, default
symmetry c1  #important for SAPT in psi4, default
}

set PROPERTIES_ORIGIN ["COM"]
properties('MP2/aug-cc-pvtz', properties = ['dipole'])
--------------------------------------------------------------------------

    Molecular point group: c1
  Charge       = 0
  Multiplicity = 1
  Basis Set: AUG-CC-PVTZ
    Blend: AUG-CC-PVTZ
  Basis Set: (AUG-CC-PVTZ AUX)
    Blend: AUG-CC-PVTZ-JKFIT

    Orbital Energies [Eh]
    ---------------------

    Doubly Occupied:

       1A    -20.554750     2A    -11.337003     3A    -11.262212
       4A    -11.259098     5A    -11.253156     6A    -11.250180
       7A    -11.248565     8A    -11.248095     9A    -11.238121
      10A     -1.379309    11A     -1.172872    12A     -1.068155
      13A     -1.041147    14A     -0.948769    15A     -0.889303
      16A     -0.839135    17A     -0.770347    18A     -0.708532
      19A     -0.679062    20A     -0.650341    21A     -0.619459
      22A     -0.611084    23A     -0.590963    24A     -0.582122
      25A     -0.553226    26A     -0.544559    27A     -0.516995
      28A     -0.504635    29A     -0.489525    30A     -0.428377
      31A     -0.354865    32A     -0.338637

  @DF-RHF Final Energy:  -382.59511937781440

   => Energetics <=

    Nuclear Repulsion Energy =            396.1675314744901470
    One-Electron Energy =               -1303.6601001712344896
    Two-Electron Energy =                 524.8974493189299437
    Total Energy =                       -382.5951193778143988
  Basis Set: (AUG-CC-PVTZ AUX)
    Blend: AUG-CC-PVTZ-RI
    Molecular point group: c1

    Geometry (in Angstrom), charge = 0, multiplicity = 1:

       Center              X                  Y                   Z               Mass
    ------------   -----------------  -----------------  -----------------  -----------------
         O           -3.191250807970    -0.324111289858     0.004703920231    15.994914619570
         C            1.657698392030    -0.293750689858     0.006122120231    12.000000000000
         C            0.380927192030    -0.958952289858    -0.012113079769    12.000000000000
         C           -0.798243807970    -0.206215289858    -0.003469079769    12.000000000000
         C            1.670410192030     1.067697710142    -0.009040079769    12.000000000000
         C           -0.745841807970     1.193540710142     0.004375920231    12.000000000000
         C            0.494287192030     1.824857710142    -0.000710079769    12.000000000000
         C            2.903630192030    -1.140812289858     0.011416920231    12.000000000000
         C           -2.105706807970    -0.897475289858    -0.004560079769    12.000000000000
         H            0.320851192030    -2.048143289858    -0.022141079769     1.007825032230
         H            2.634704192030     1.573815710142    -0.017131079769     1.007825032230
         H           -1.676184807970     1.755533710142     0.008235920231     1.007825032230
         H            2.753535192030    -2.126359289858    -0.437764079769     1.007825032230
         H            3.703147192030    -0.634955289858    -0.537010079769     1.007825032230
         H            3.249610192030    -1.291812289858     1.039557920231     1.007825032230
         H            0.552530192030     2.910773710142     0.001019920231     1.007825032230
         H           -2.054547807970    -2.006787289858    -0.014436079769     1.007825032230

  Basis Set: AUG-CC-PVTZ
    Blend: AUG-CC-PVTZ
  Basis Set: (AUG-CC-PVTZ AUX)
    Blend: AUG-CC-PVTZ-JKFIT
	 Reference Energy          =    -382.5951193778143988 [Eh]
	 Singles Energy            =      -0.0000000000000000 [Eh]
	 Same-Spin Energy          =      -0.4079510709751914 [Eh]
	 Opposite-Spin Energy      =      -1.2864240242757263 [Eh]
	 Correlation Energy        =      -1.6943750952509178 [Eh]
	 Total Energy              =    -384.2894944730653037 [Eh]

	 ================> DF-SCS-MP2 Energies <==================
	-----------------------------------------------------------
	 SCS Same-Spin Scale       =       0.3333333333333333 [-]
	 SCS Opposite-Spin Scale   =       1.2000000000000000 [-]
	 SCS Same-Spin Energy      =      -0.1359836903250638 [Eh]
	 SCS Opposite-Spin Energy  =      -1.5437088291308716 [Eh]
	 SCS Correlation Energy    =      -1.6796925194559353 [Eh]
	 SCS Total Energy          =    -384.2748118972703537 [Eh]
	-----------------------------------------------------------

  Dipole Moment: [D]
     X:     3.6744      Y:    -0.5290      Z:     0.0121     Total:     3.7123

*** Psi4 exiting successfully. Buy a developer a beer!
