                               Psi4 1.3.2 release

  ==> Input File <==

--------------------------------------------------------------------------
#psi4
#
memory 32 gb

molecule  {
0 1
  O       -3.2815858    -0.3441557     0.0064896
  C        1.5611120    -0.3149990    -0.0153800
  C        0.3099430    -0.9407630    -0.0100630
  C       -0.8692280    -0.1880260    -0.0014190
  C        1.5994260     1.0858870    -0.0069900
  C       -0.8168260     1.2117300     0.0064260
  C        0.4233030     1.8430470     0.0013400
  C        2.8326460    -1.1226230     0.0134670
  C       -2.1766910    -0.8792860    -0.0025100
  H        0.2498670    -2.0299540    -0.0200910
  H        2.5637200     1.5920050    -0.0150810
  H       -1.7471690     1.7737230     0.0102860
  H        2.6825510    -2.1081700    -0.4357140
  H        3.6321630    -0.6167660    -0.5349600
  H        3.1786260    -1.2736230     1.0416080
  H        0.4815460     2.9289630     0.0030700
  H       -2.1255320    -1.9885980    -0.0123860
units angstrom
no_reorient  #important for SAPT in psi4, default
symmetry c1  #important for SAPT in psi4, default
}

set PROPERTIES_ORIGIN ["COM"]
properties('MP2/aug-cc-pvtz', properties = ['dipole'])
--------------------------------------------------------------------------

    Molecular point group: c1
  Charge       = 0
  Multiplicity = 1
  Basis Set: AUG-CC-PVTZ
    Blend: AUG-CC-PVTZ
  Basis Set: (AUG-CC-PVTZ AUX)
    Blend: AUG-CC-PVTZ-JKFIT

    Orbital Energies [Eh]
    ---------------------

    Doubly Occupied:

       1A    -20.553902     2A    -11.336151     3A    -11.259973
       4A    -11.257827     5A    -11.254842     6A    -11.254073
       7A    -11.251500     8A    -11.250133     9A    -11.238331
      10A     -1.378126    11A     -1.173849    12A     -1.066727
      13A     -1.043756    14A     -0.949274    15A     -0.892082
      16A     -0.835112    17A     -0.772382    18A     -0.709361
      19A     -0.679047    20A     -0.651141    21A     -0.618628
      22A     -0.609609    23A     -0.591255    24A     -0.584239
      25A     -0.553519    26A     -0.544170    27A     -0.520857
      28A     -0.503589    29A     -0.489734    30A     -0.427370
      31A     -0.354409    32A     -0.340535

  @DF-RHF Final Energy:  -382.59753982074324

   => Energetics <=

    Nuclear Repulsion Energy =            395.8686482412459213
    One-Electron Energy =               -1303.0413679270127432
    Two-Electron Energy =                 524.5751798650236424
    Total Energy =                       -382.5975398207432363
  Basis Set: (AUG-CC-PVTZ AUX)
    Blend: AUG-CC-PVTZ-RI
    Molecular point group: c1

    Geometry (in Angstrom), charge = 0, multiplicity = 1:

       Center              X                  Y                   Z               Mass
    ------------   -----------------  -----------------  -----------------  -----------------
         O           -3.205464563492    -0.353309354161     0.006828837182    15.994914619570
         C            1.637233236508    -0.324152654161    -0.015040762818    12.000000000000
         C            0.386064236508    -0.949916654161    -0.009723762818    12.000000000000
         C           -0.793106763492    -0.197179654161    -0.001079762818    12.000000000000
         C            1.675547236508     1.076733345839    -0.006650762818    12.000000000000
         C           -0.740704763492     1.202576345839     0.006765237182    12.000000000000
         C            0.499424236508     1.833893345839     0.001679237182    12.000000000000
         C            2.908767236508    -1.131776654161     0.013806237182    12.000000000000
         C           -2.100569763492    -0.888439654161    -0.002170762818    12.000000000000
         H            0.325988236508    -2.039107654161    -0.019751762818     1.007825032230
         H            2.639841236508     1.582851345839    -0.014741762818     1.007825032230
         H           -1.671047763492     1.764569345839     0.010625237182     1.007825032230
         H            2.758672236508    -2.117323654161    -0.435374762818     1.007825032230
         H            3.708284236508    -0.625919654161    -0.534620762818     1.007825032230
         H            3.254747236508    -1.282776654161     1.041947237182     1.007825032230
         H            0.557667236508     2.919809345839     0.003409237182     1.007825032230
         H           -2.049410763492    -1.997751654161    -0.012046762818     1.007825032230

  Basis Set: AUG-CC-PVTZ
    Blend: AUG-CC-PVTZ
  Basis Set: (AUG-CC-PVTZ AUX)
    Blend: AUG-CC-PVTZ-JKFIT
	 Reference Energy          =    -382.5975398207432363 [Eh]
	 Singles Energy            =      -0.0000000000000000 [Eh]
	 Same-Spin Energy          =      -0.4080713229288702 [Eh]
	 Opposite-Spin Energy      =      -1.2863849785471801 [Eh]
	 Correlation Energy        =      -1.6944563014760503 [Eh]
	 Total Energy              =    -384.2919961222193024 [Eh]

	 ================> DF-SCS-MP2 Energies <==================
	-----------------------------------------------------------
	 SCS Same-Spin Scale       =       0.3333333333333333 [-]
	 SCS Opposite-Spin Scale   =       1.2000000000000000 [-]
	 SCS Same-Spin Energy      =      -0.1360237743096234 [Eh]
	 SCS Opposite-Spin Energy  =      -1.5436619742566162 [Eh]
	 SCS Correlation Energy    =      -1.6796857485662395 [Eh]
	 SCS Total Energy          =    -384.2772255693094507 [Eh]
	-----------------------------------------------------------

  Dipole Moment: [D]
     X:     3.7672      Y:    -0.4071      Z:     0.0226     Total:     3.7892

*** Psi4 exiting successfully. Buy a developer a beer!
