                               Psi4 1.3.2 release

  ==> Input File <==

--------------------------------------------------------------------------
#psi4
#
memory 32 gb

molecule  {
0 1
  O       -3.2622350    -0.3059220     0.0067540
  C        1.5611120    -0.3149990    -0.0153800
  C        0.3099430    -0.9407630    -0.0100630
  C       -0.8692280    -0.1880260    -0.0014190
  C        1.5994260     1.0858870    -0.0069900
  C       -0.8168260     1.2117300     0.0064260
  C        0.4233030     1.8430470     0.0013400
  C        2.6638525    -1.0154126     0.0096376
  C       -2.1766910    -0.8792860    -0.0025100
  H        0.2498670    -2.0299540    -0.0200910
  H        2.5637200     1.5920050    -0.0150810
  H       -1.7471690     1.7737230     0.0102860
  H        2.6825510    -2.1081700    -0.4357140
  H        3.6321630    -0.6167660    -0.5349600
  H        3.1786260    -1.2736230     1.0416080
  H        0.4815460     2.9289630     0.0030700
  H       -2.1255320    -1.9885980    -0.0123860
units angstrom
no_reorient  #important for SAPT in psi4, default
symmetry c1  #important for SAPT in psi4, default
}

set PROPERTIES_ORIGIN ["COM"]
properties('MP2/aug-cc-pvtz', properties = ['dipole'])
--------------------------------------------------------------------------

    Molecular point group: c1
  Charge       = 0
  Multiplicity = 1
  Basis Set: AUG-CC-PVTZ
    Blend: AUG-CC-PVTZ
  Basis Set: (AUG-CC-PVTZ AUX)
    Blend: AUG-CC-PVTZ-JKFIT

    Orbital Energies [Eh]
    ---------------------

    Doubly Occupied:

       1A    -20.554997     2A    -11.337455     3A    -11.258070
       4A    -11.255041     5A    -11.253679     6A    -11.251540
       7A    -11.250256     8A    -11.248729     9A    -11.246679
      10A     -1.379595    11A     -1.185225    12A     -1.093030
      13A     -1.045537    14A     -0.944932    15A     -0.894239
      16A     -0.834664    17A     -0.773250    18A     -0.711913
      19A     -0.683133    20A     -0.662001    21A     -0.625854
      22A     -0.618577    23A     -0.603880    24A     -0.581814
      25A     -0.539729    26A     -0.536676    27A     -0.521457
      28A     -0.488779    29A     -0.479175    30A     -0.429009
      31A     -0.354892    32A     -0.331505

  @DF-RHF Final Energy:  -382.54513778986876

   => Energetics <=

    Nuclear Repulsion Energy =            399.8037894847918778
    One-Electron Energy =               -1310.7472275299162447
    Two-Electron Energy =                 528.3983002552555490
    Total Energy =                       -382.5451377898688179
  Basis Set: (AUG-CC-PVTZ AUX)
    Blend: AUG-CC-PVTZ-RI
    Molecular point group: c1

    Geometry (in Angstrom), charge = 0, multiplicity = 1:

       Center              X                  Y                   Z               Mass
    ------------   -----------------  -----------------  -----------------  -----------------
         O           -3.171820550710    -0.330885323127     0.007440768485    15.994914619570
         C            1.651526449290    -0.339962323127    -0.014693231515    12.000000000000
         C            0.400357449290    -0.965726323127    -0.009376231515    12.000000000000
         C           -0.778813550710    -0.212989323127    -0.000732231515    12.000000000000
         C            1.689840449290     1.060923676873    -0.006303231515    12.000000000000
         C           -0.726411550710     1.186766676873     0.007112768485    12.000000000000
         C            0.513717449290     1.818083676873     0.002026768485    12.000000000000
         C            2.754266949290    -1.040375923127     0.010324368485    12.000000000000
         C           -2.086276550710    -0.904249323127    -0.001823231515    12.000000000000
         H            0.340281449290    -2.054917323127    -0.019404231515     1.007825032230
         H            2.654134449290     1.567041676873    -0.014394231515     1.007825032230
         H           -1.656754550710     1.748759676873     0.010972768485     1.007825032230
         H            2.772965449290    -2.133133323127    -0.435027231515     1.007825032230
         H            3.722577449290    -0.641729323127    -0.534273231515     1.007825032230
         H            3.269040449290    -1.298586323127     1.042294768485     1.007825032230
         H            0.571960449290     2.903999676873     0.003756768485     1.007825032230
         H           -2.035117550710    -2.013561323127    -0.011699231515     1.007825032230

  Basis Set: AUG-CC-PVTZ
    Blend: AUG-CC-PVTZ
  Basis Set: (AUG-CC-PVTZ AUX)
    Blend: AUG-CC-PVTZ-JKFIT
	 Reference Energy          =    -382.5451377898687610 [Eh]
	 Singles Energy            =      -0.0000000000000000 [Eh]
	 Same-Spin Energy          =      -0.4116403934635248 [Eh]
	 Opposite-Spin Energy      =      -1.2910361031248960 [Eh]
	 Correlation Energy        =      -1.7026764965884209 [Eh]
	 Total Energy              =    -384.2478142864571851 [Eh]

	 ================> DF-SCS-MP2 Energies <==================
	-----------------------------------------------------------
	 SCS Same-Spin Scale       =       0.3333333333333333 [-]
	 SCS Opposite-Spin Scale   =       1.2000000000000000 [-]
	 SCS Same-Spin Energy      =      -0.1372134644878416 [Eh]
	 SCS Opposite-Spin Energy  =      -1.5492433237498753 [Eh]
	 SCS Correlation Energy    =      -1.6864567882377168 [Eh]
	 SCS Total Energy          =    -384.2315945781064670 [Eh]
	-----------------------------------------------------------

  Dipole Moment: [D]
     X:     3.6662      Y:    -0.4908      Z:     0.0359     Total:     3.6991

*** Psi4 exiting successfully. Buy a developer a beer!
