                               Psi4 1.3.2 release

  ==> Input File <==

--------------------------------------------------------------------------
#psi4
#
memory 32 gb

molecule  {
0 1
  O       -3.2995904    -0.3830414     0.0062143
  C        1.5611120    -0.3149990    -0.0153800
  C        0.3099430    -0.9407630    -0.0100630
  C       -0.8692280    -0.1880260    -0.0014190
  C        1.5994260     1.0858870    -0.0069900
  C       -0.8168260     1.2117300     0.0064260
  C        0.4233030     1.8430470     0.0013400
  C        2.8326460    -1.1226230     0.0134670
  C       -2.1766910    -0.8792860    -0.0025100
  H        0.2498670    -2.0299540    -0.0200910
  H        2.5637200     1.5920050    -0.0150810
  H       -1.7471690     1.7737230     0.0102860
  H        2.6825510    -2.1081700    -0.4357140
  H        3.6321630    -0.6167660    -0.5349600
  H        3.1786260    -1.2736230     1.0416080
  H        0.4815460     2.9289630     0.0030700
  H       -2.1255320    -1.9885980    -0.0123860
units angstrom
no_reorient  #important for SAPT in psi4, default
symmetry c1  #important for SAPT in psi4, default
}

set PROPERTIES_ORIGIN ["COM"]
properties('MP2/aug-cc-pvtz', properties = ['dipole'])
--------------------------------------------------------------------------

    Molecular point group: c1
  Charge       = 0
  Multiplicity = 1
  Basis Set: AUG-CC-PVTZ
    Blend: AUG-CC-PVTZ
  Basis Set: (AUG-CC-PVTZ AUX)
    Blend: AUG-CC-PVTZ-JKFIT

    Orbital Energies [Eh]
    ---------------------

    Doubly Occupied:

       1A    -20.553651     2A    -11.335650     3A    -11.260687
       4A    -11.258709     5A    -11.255658     6A    -11.255405
       7A    -11.252503     8A    -11.250916     9A    -11.238783
      10A     -1.377552    11A     -1.174735    12A     -1.067620
      13A     -1.044503    14A     -0.949940    15A     -0.892313
      16A     -0.835580    17A     -0.772425    18A     -0.709617
      19A     -0.679119    20A     -0.652052    21A     -0.618082
      22A     -0.610190    23A     -0.591729    24A     -0.584955
      25A     -0.554077    26A     -0.543951    27A     -0.521542
      28A     -0.504376    29A     -0.490259    30A     -0.426052
      31A     -0.355213    32A     -0.341413

  @DF-RHF Final Energy:  -382.59680963370107

   => Energetics <=

    Nuclear Repulsion Energy =            395.5296984170926748
    One-Electron Energy =               -1302.3345024906479921
    Two-Electron Energy =                 524.2079944398542466
    Total Energy =                       -382.5968096337010138
  Basis Set: (AUG-CC-PVTZ AUX)
    Blend: AUG-CC-PVTZ-RI
    Molecular point group: c1

    Geometry (in Angstrom), charge = 0, multiplicity = 1:

       Center              X                  Y                   Z               Mass
    ------------   -----------------  -----------------  -----------------  -----------------
         O           -3.221070462836    -0.387014425093     0.006590214603    15.994914619570
         C            1.639631937164    -0.318972025093    -0.015004085397    12.000000000000
         C            0.388462937164    -0.944736025093    -0.009687085397    12.000000000000
         C           -0.790708062836    -0.191999025093    -0.001043085397    12.000000000000
         C            1.677945937164     1.081913974907    -0.006614085397    12.000000000000
         C           -0.738306062836     1.207756974907     0.006801914603    12.000000000000
         C            0.501822937164     1.839073974907     0.001715914603    12.000000000000
         C            2.911165937164    -1.126596025093     0.013842914603    12.000000000000
         C           -2.098171062836    -0.883259025093    -0.002134085397    12.000000000000
         H            0.328386937164    -2.033927025093    -0.019715085397     1.007825032230
         H            2.642239937164     1.588031974907    -0.014705085397     1.007825032230
         H           -1.668649062836     1.769749974907     0.010661914603     1.007825032230
         H            2.761070937164    -2.112143025093    -0.435338085397     1.007825032230
         H            3.710682937164    -0.620739025093    -0.534584085397     1.007825032230
         H            3.257145937164    -1.277596025093     1.041983914603     1.007825032230
         H            0.560065937164     2.924989974907     0.003445914603     1.007825032230
         H           -2.047012062836    -1.992571025093    -0.012010085397     1.007825032230

  Basis Set: AUG-CC-PVTZ
    Blend: AUG-CC-PVTZ
  Basis Set: (AUG-CC-PVTZ AUX)
    Blend: AUG-CC-PVTZ-JKFIT
	 Reference Energy          =    -382.5968096337010707 [Eh]
	 Singles Energy            =      -0.0000000000000000 [Eh]
	 Same-Spin Energy          =      -0.4080350491808657 [Eh]
	 Opposite-Spin Energy      =      -1.2864082367378322 [Eh]
	 Correlation Energy        =      -1.6944432859186980 [Eh]
	 Total Energy              =    -384.2912529196197511 [Eh]

	 ================> DF-SCS-MP2 Energies <==================
	-----------------------------------------------------------
	 SCS Same-Spin Scale       =       0.3333333333333333 [-]
	 SCS Opposite-Spin Scale   =       1.2000000000000000 [-]
	 SCS Same-Spin Energy      =      -0.1360116830602885 [Eh]
	 SCS Opposite-Spin Energy  =      -1.5436898840853985 [Eh]
	 SCS Correlation Energy    =      -1.6797015671456870 [Eh]
	 SCS Total Energy          =    -384.2765112008467554 [Eh]
	-----------------------------------------------------------

  Dipole Moment: [D]
     X:     3.8456      Y:    -0.3200      Z:     0.0231     Total:     3.8590

*** Psi4 exiting successfully. Buy a developer a beer!
