                               Psi4 1.4a3.dev225

  ==> Input File <==

--------------------------------------------------------------------------
#psi4
#
memory 32 gb

molecule  {
0 1
  O       -3.2622200    -0.3059070     0.0064780
  C        1.5611130    -0.3149950    -0.0153890
  C        0.3099490    -0.9407980    -0.0100380
  C       -0.8691990    -0.1880560    -0.0012000
  C        1.5993970     1.0858760    -0.0071180
  C       -0.8168460     1.2117110     0.0065060
  C        0.4232600     1.8430520     0.0014160
  C        2.8326670    -1.1225680     0.0134080
  C       -2.1324797    -0.9026411    -0.0027616
  H        0.2498950    -2.0299870    -0.0199420
  H        2.5636680     1.5920400    -0.0152260
  H       -1.7472230     1.7736450     0.0105140
  H        2.6826800    -2.1080670    -0.4359240
  H        3.6322070    -0.6166190    -0.5349020
  H        3.1786010    -1.2737110     1.0415460
  H        0.4815700     2.9289630     0.0030200
  H       -2.1255450    -1.9886100    -0.0120270
units angstrom
no_reorient  #important for SAPT in psi4, default
symmetry c1  #important for SAPT in psi4, default
}

set PROPERTIES_ORIGIN ["COM"]
properties('MP2/aug-cc-pvtz', properties = ['dipole'])
--------------------------------------------------------------------------

    Molecular point group: c1
  Charge       = 0
  Multiplicity = 1
  Basis Set: AUG-CC-PVTZ
    Blend: AUG-CC-PVTZ
  Basis Set: (AUG-CC-PVTZ AUX)
    Blend: AUG-CC-PVTZ-JKFIT

    Orbital Energies [Eh]
    ---------------------

    Doubly Occupied:

       1A    -20.549342     2A    -11.337714     3A    -11.260749
       4A    -11.259218     5A    -11.256840     6A    -11.253971
       7A    -11.252851     8A    -11.251338     9A    -11.239131
      10A     -1.345262    11A     -1.175603    12A     -1.068852
      13A     -1.047305    14A     -0.950189    15A     -0.899265
      16A     -0.837715    17A     -0.775661    18A     -0.710744
      19A     -0.679679    20A     -0.651708    21A     -0.610106
      22A     -0.603837    23A     -0.592069    24A     -0.585129
      25A     -0.554514    26A     -0.535869    27A     -0.519748
      28A     -0.504083    29A     -0.480005    30A     -0.432133
      31A     -0.354667    32A     -0.340789

  @DF-RHF Final Energy:  -382.58818516590702

   => Energetics <=

    Nuclear Repulsion Energy =            396.0503487532486133
    One-Electron Energy =               -1303.4448960451923085
    Two-Electron Energy =                 524.8063621260366745
    Total Energy =                       -382.5881851659070207
  Basis Set: (AUG-CC-PVTZ AUX)
    Blend: AUG-CC-PVTZ-RI
    Molecular point group: c1

    Geometry (in Angstrom), charge = 0, multiplicity = 1:

       Center              X                  Y                   Z               Mass
    ------------   -----------------  -----------------  -----------------  -----------------
         O           -3.193095006520    -0.317819549098     0.006820795328    15.994914619570
         C            1.630237993480    -0.326907549098    -0.015046204672    12.000000000000
         C            0.379073993480    -0.952710549098    -0.009695204672    12.000000000000
         C           -0.800074006520    -0.199968549098    -0.000857204672    12.000000000000
         C            1.668521993480     1.073963450902    -0.006775204672    12.000000000000
         C           -0.747721006520     1.199798450902     0.006848795328    12.000000000000
         C            0.492384993480     1.831139450902     0.001758795328    12.000000000000
         C            2.901791993480    -1.134480549098     0.013750795328    12.000000000000
         C           -2.063354706520    -0.914553649098    -0.002418804672    12.000000000000
         H            0.319019993480    -2.041899549098    -0.019599204672     1.007825032230
         H            2.632792993480     1.580127450902    -0.014883204672     1.007825032230
         H           -1.678098006520     1.761732450902     0.010856795328     1.007825032230
         H            2.751804993480    -2.119979549098    -0.435581204672     1.007825032230
         H            3.701331993480    -0.628531549098    -0.534559204672     1.007825032230
         H            3.247725993480    -1.285623549098     1.041888795328     1.007825032230
         H            0.550694993480     2.917050450902     0.003362795328     1.007825032230
         H           -2.056420006520    -2.000522549098    -0.011684204672     1.007825032230

  Basis Set: AUG-CC-PVTZ
    Blend: AUG-CC-PVTZ
  Basis Set: (AUG-CC-PVTZ AUX)
    Blend: AUG-CC-PVTZ-JKFIT
	 Reference Energy          =    -382.5881851659070207 [Eh]
	 Singles Energy            =      -0.0000000000000000 [Eh]
	 Same-Spin Energy          =      -0.4096260402177636 [Eh]
	 Opposite-Spin Energy      =      -1.2897668313042305 [Eh]
	 Correlation Energy        =      -1.6993928715219941 [Eh]
	 Total Energy              =    -384.2875780374290002 [Eh]

	 ================> DF-SCS-MP2 Energies <==================
	-----------------------------------------------------------
	 SCS Same-Spin Scale       =       0.3333333333333333 [-]
	 SCS Opposite-Spin Scale   =       1.2000000000000000 [-]
	 SCS Same-Spin Energy      =      -0.1365420134059212 [Eh]
	 SCS Opposite-Spin Energy  =      -1.5477201975650765 [Eh]
	 SCS Correlation Energy    =      -1.6842622109709977 [Eh]
	 SCS Total Energy          =    -384.2724473768780058 [Eh]
	-----------------------------------------------------------

  Dipole Moment: [D]
     X:     3.9528      Y:    -0.5269      Z:     0.0216     Total:     3.9878

*** Psi4 exiting successfully. Buy a developer a beer!
