                               Psi4 1.3.2 release

  ==> Input File <==

--------------------------------------------------------------------------
#psi4
#
memory 32 gb

molecule  {
0 1
  O       -3.1963496    -0.1955943     0.0074782
  C        1.5611120    -0.3149990    -0.0153800
  C        0.3099430    -0.9407630    -0.0100630
  C       -0.8692280    -0.1880260    -0.0014190
  C        1.5994260     1.0858870    -0.0069900
  C       -0.8168260     1.2117300     0.0064260
  C        0.4233030     1.8430470     0.0013400
  C        2.8326460    -1.1226230     0.0134670
  C       -2.1766910    -0.8792860    -0.0025100
  H        0.2498670    -2.0299540    -0.0200910
  H        2.5637200     1.5920050    -0.0150810
  H       -1.7471690     1.7737230     0.0102860
  H        2.6825510    -2.1081700    -0.4357140
  H        3.6321630    -0.6167660    -0.5349600
  H        3.1786260    -1.2736230     1.0416080
  H        0.4815460     2.9289630     0.0030700
  H       -2.1255320    -1.9885980    -0.0123860
units angstrom
no_reorient  #important for SAPT in psi4, default
symmetry c1  #important for SAPT in psi4, default
}

set PROPERTIES_ORIGIN ["COM"]
properties('MP2/aug-cc-pvtz', properties = ['dipole'])
--------------------------------------------------------------------------

    Molecular point group: c1
  Charge       = 0
  Multiplicity = 1
  Basis Set: AUG-CC-PVTZ
    Blend: AUG-CC-PVTZ
  Basis Set: (AUG-CC-PVTZ AUX)
    Blend: AUG-CC-PVTZ-JKFIT

    Orbital Energies [Eh]
    ---------------------

    Doubly Occupied:

       1A    -20.554633     2A    -11.338403     3A    -11.256801
       4A    -11.253844     5A    -11.251212     6A    -11.248650
       7A    -11.247598     8A    -11.246012     9A    -11.236291
      10A     -1.381389    11A     -1.169905    12A     -1.062751
      13A     -1.040388    14A     -0.946327    15A     -0.891124
      16A     -0.833096    17A     -0.771927    18A     -0.708439
      19A     -0.679179    20A     -0.646954    21A     -0.620892
      22A     -0.606878    23A     -0.589144    24A     -0.581072
      25A     -0.551088    26A     -0.545532    27A     -0.517477
      28A     -0.500086    29A     -0.487267    30A     -0.430043
      31A     -0.350866    32A     -0.336591

  @DF-RHF Final Energy:  -382.59449125623416

   => Energetics <=

    Nuclear Repulsion Energy =            397.4237467742948411
    One-Electron Energy =               -1306.2727577518689941
    Two-Electron Energy =                 526.2545197213399888
    Total Energy =                       -382.5944912562341642
  Basis Set: (AUG-CC-PVTZ AUX)
    Blend: AUG-CC-PVTZ-RI
    Molecular point group: c1

    Geometry (in Angstrom), charge = 0, multiplicity = 1:

       Center              X                  Y                   Z               Mass
    ------------   -----------------  -----------------  -----------------  -----------------
         O           -3.131584135289    -0.224540358753     0.007685728870    15.994914619570
         C            1.625877464711    -0.343945058753    -0.015172471130    12.000000000000
         C            0.374708464711    -0.969709058753    -0.009855471130    12.000000000000
         C           -0.804462535289    -0.216972058753    -0.001211471130    12.000000000000
         C            1.664191464711     1.056940941247    -0.006782471130    12.000000000000
         C           -0.752060535289     1.182783941247     0.006633528870    12.000000000000
         C            0.488068464711     1.814100941247     0.001547528870    12.000000000000
         C            2.897411464711    -1.151569058753     0.013674528870    12.000000000000
         C           -2.111925535289    -0.908232058753    -0.002302471130    12.000000000000
         H            0.314632464711    -2.058900058753    -0.019883471130     1.007825032230
         H            2.628485464711     1.563058941247    -0.014873471130     1.007825032230
         H           -1.682403535289     1.744776941247     0.010493528870     1.007825032230
         H            2.747316464711    -2.137116058753    -0.435506471130     1.007825032230
         H            3.696928464711    -0.645712058753    -0.534752471130     1.007825032230
         H            3.243391464711    -1.302569058753     1.041815528870     1.007825032230
         H            0.546311464711     2.900016941247     0.003277528870     1.007825032230
         H           -2.060766535289    -2.017544058753    -0.012178471130     1.007825032230

  Basis Set: AUG-CC-PVTZ
    Blend: AUG-CC-PVTZ
  Basis Set: (AUG-CC-PVTZ AUX)
    Blend: AUG-CC-PVTZ-JKFIT
	 Reference Energy          =    -382.5944912562341642 [Eh]
	 Singles Energy            =      -0.0000000000000000 [Eh]
	 Same-Spin Energy          =      -0.4084200327909457 [Eh]
	 Opposite-Spin Energy      =      -1.2866804855715503 [Eh]
	 Correlation Energy        =      -1.6951005183624961 [Eh]
	 Total Energy              =    -384.2895917745966585 [Eh]

	 ================> DF-SCS-MP2 Energies <==================
	-----------------------------------------------------------
	 SCS Same-Spin Scale       =       0.3333333333333333 [-]
	 SCS Opposite-Spin Scale   =       1.2000000000000000 [-]
	 SCS Same-Spin Energy      =      -0.1361400109303152 [Eh]
	 SCS Opposite-Spin Energy  =      -1.5440165826858603 [Eh]
	 SCS Correlation Energy    =      -1.6801565936161755 [Eh]
	 SCS Total Energy          =    -384.2746478498503393 [Eh]
	-----------------------------------------------------------

  Dipole Moment: [D]
     X:     3.4070      Y:    -0.7440      Z:     0.0209     Total:     3.4874

*** Psi4 exiting successfully. Buy a developer a beer!
