                               Psi4 1.3.2 release

  ==> Input File <==

--------------------------------------------------------------------------
#psi4
#
memory 32 gb

molecule  {
0 1
  O       -3.2622350    -0.3059220     0.0067540
  C        1.5737214    -0.2951542    -0.0036065
  C        0.3099430    -0.9407630    -0.0100630
  C       -0.8692280    -0.1880260    -0.0014190
  C        1.5994260     1.0858870    -0.0069900
  C       -0.8168260     1.2117300     0.0064260
  C        0.4233030     1.8430470     0.0013400
  C        2.8326460    -1.1226230     0.0134670
  C       -2.1766910    -0.8792860    -0.0025100
  H        0.2498670    -2.0299540    -0.0200910
  H        2.5637200     1.5920050    -0.0150810
  H       -1.7471690     1.7737230     0.0102860
  H        2.6825510    -2.1081700    -0.4357140
  H        3.6321630    -0.6167660    -0.5349600
  H        3.1786260    -1.2736230     1.0416080
  H        0.4815460     2.9289630     0.0030700
  H       -2.1255320    -1.9885980    -0.0123860
units angstrom
no_reorient  #important for SAPT in psi4, default
symmetry c1  #important for SAPT in psi4, default
}

set PROPERTIES_ORIGIN ["COM"]
properties('MP2/aug-cc-pvtz', properties = ['dipole'])
--------------------------------------------------------------------------

    Molecular point group: c1
  Charge       = 0
  Multiplicity = 1
  Basis Set: AUG-CC-PVTZ
    Blend: AUG-CC-PVTZ
  Basis Set: (AUG-CC-PVTZ AUX)
    Blend: AUG-CC-PVTZ-JKFIT

    Orbital Energies [Eh]
    ---------------------

    Doubly Occupied:

       1A    -20.554462     2A    -11.336855     3A    -11.259989
       4A    -11.258809     5A    -11.252955     6A    -11.251463
       7A    -11.250023     8A    -11.248829     9A    -11.237958
      10A     -1.379069    11A     -1.172853    12A     -1.066831
      13A     -1.042141    14A     -0.948582    15A     -0.890611
      16A     -0.836914    17A     -0.771364    18A     -0.708813
      19A     -0.679080    20A     -0.650285    21A     -0.619333
      22A     -0.609964    23A     -0.590798    24A     -0.582772
      25A     -0.553082    26A     -0.544505    27A     -0.517673
      28A     -0.504930    29A     -0.489349    30A     -0.428437
      31A     -0.353698    32A     -0.339509

  @DF-RHF Final Energy:  -382.59711476681389

   => Energetics <=

    Nuclear Repulsion Energy =            396.1985235541802126
    One-Electron Energy =               -1303.7274035614896093
    Two-Electron Energy =                 524.9317652404955652
    Total Energy =                       -382.5971147668138883
  Basis Set: (AUG-CC-PVTZ AUX)
    Blend: AUG-CC-PVTZ-RI
    Molecular point group: c1

    Geometry (in Angstrom), charge = 0, multiplicity = 1:

       Center              X                  Y                   Z               Mass
    ------------   -----------------  -----------------  -----------------  -----------------
         O           -3.189952150404    -0.322152948473     0.005881225959    15.994914619570
         C            1.646004249596    -0.311385148473    -0.004479274041    12.000000000000
         C            0.382225849596    -0.956993948473    -0.010935774041    12.000000000000
         C           -0.796945150404    -0.204256948473    -0.002291774041    12.000000000000
         C            1.671708849596     1.069656051527    -0.007862774041    12.000000000000
         C           -0.744543150404     1.195499051527     0.005553225959    12.000000000000
         C            0.495585849596     1.826816051527     0.000467225959    12.000000000000
         C            2.904928849596    -1.138853948473     0.012594225959    12.000000000000
         C           -2.104408150404    -0.895516948473    -0.003382774041    12.000000000000
         H            0.322149849596    -2.046184948473    -0.020963774041     1.007825032230
         H            2.636002849596     1.575774051527    -0.015953774041     1.007825032230
         H           -1.674886150404     1.757492051527     0.009413225959     1.007825032230
         H            2.754833849596    -2.124400948473    -0.436586774041     1.007825032230
         H            3.704445849596    -0.632996948473    -0.535832774041     1.007825032230
         H            3.250908849596    -1.289853948473     1.040735225959     1.007825032230
         H            0.553828849596     2.912732051527     0.002197225959     1.007825032230
         H           -2.053249150404    -2.004828948473    -0.013258774041     1.007825032230

  Basis Set: AUG-CC-PVTZ
    Blend: AUG-CC-PVTZ
  Basis Set: (AUG-CC-PVTZ AUX)
    Blend: AUG-CC-PVTZ-JKFIT
	 Reference Energy          =    -382.5971147668138883 [Eh]
	 Singles Energy            =      -0.0000000000000000 [Eh]
	 Same-Spin Energy          =      -0.4080573055700774 [Eh]
	 Opposite-Spin Energy      =      -1.2863846873791609 [Eh]
	 Correlation Energy        =      -1.6944419929492383 [Eh]
	 Total Energy              =    -384.2915567597631252 [Eh]

	 ================> DF-SCS-MP2 Energies <==================
	-----------------------------------------------------------
	 SCS Same-Spin Scale       =       0.3333333333333333 [-]
	 SCS Opposite-Spin Scale   =       1.2000000000000000 [-]
	 SCS Same-Spin Energy      =      -0.1360191018566924 [Eh]
	 SCS Opposite-Spin Energy  =      -1.5436616248549930 [Eh]
	 SCS Correlation Energy    =      -1.6796807267116856 [Eh]
	 SCS Total Energy          =    -384.2767954935255830 [Eh]
	-----------------------------------------------------------

  Dipole Moment: [D]
     X:     3.6795      Y:    -0.5109      Z:     0.0171     Total:     3.7148

*** Psi4 exiting successfully. Buy a developer a beer!
