                               Psi4 1.4a3.dev225

  ==> Input File <==

--------------------------------------------------------------------------
#psi4
#
memory 32 gb

molecule  {
0 1
  O       -3.2622200    -0.3059070     0.0064780
  C        1.5611130    -0.3149950    -0.0153890
  C        0.3099490    -0.9407980    -0.0100380
  C       -0.8691990    -0.1880560    -0.0012000
  C        1.5993970     1.0858760    -0.0071180
  C       -0.8168460     1.2117110     0.0065060
  C        0.4232600     1.8430520     0.0014160
  C        2.8326670    -1.1225680     0.0134080
  C       -2.1766900    -0.8792890    -0.0024000
  H        0.2498950    -2.0299870    -0.0199420
  H        2.5636680     1.5920400    -0.0152260
  H       -1.7472230     1.7736450     0.0105140
  H        2.6826800    -2.1080670    -0.4359240
  H        3.6322070    -0.6166190    -0.5349020
  H        3.1849180    -1.2764710     1.0603204
  H        0.4815700     2.9289630     0.0030200
  H       -2.1255450    -1.9886100    -0.0120270
units angstrom
no_reorient  #important for SAPT in psi4, default
symmetry c1  #important for SAPT in psi4, default
}

set PROPERTIES_ORIGIN ["COM"]
properties('MP2/aug-cc-pvtz', properties = ['dipole'])
--------------------------------------------------------------------------

    Molecular point group: c1
  Charge       = 0
  Multiplicity = 1
  Basis Set: AUG-CC-PVTZ
    Blend: AUG-CC-PVTZ
  Basis Set: (AUG-CC-PVTZ AUX)
    Blend: AUG-CC-PVTZ-JKFIT

    Orbital Energies [Eh]
    ---------------------

    Doubly Occupied:

       1A    -20.554173     2A    -11.336722     3A    -11.259363
       4A    -11.257003     5A    -11.254079     6A    -11.252792
       7A    -11.250566     8A    -11.249337     9A    -11.240233
      10A     -1.378841    11A     -1.172969    12A     -1.065500
      13A     -1.042999    14A     -0.947303    15A     -0.891866
      16A     -0.834558    17A     -0.772107    18A     -0.709076
      19A     -0.679085    20A     -0.650242    21A     -0.619255
      22A     -0.609044    23A     -0.587448    24A     -0.583511
      25A     -0.553146    26A     -0.544108    27A     -0.520179
      28A     -0.502816    29A     -0.488863    30A     -0.428474
      31A     -0.353633    32A     -0.339515

  @DF-RHF Final Energy:  -382.59718346462029

   => Energetics <=

    Nuclear Repulsion Energy =            396.1426090379017069
    One-Electron Energy =               -1303.6219726070373781
    Two-Electron Energy =                 524.8821801045154416
    Total Energy =                       -382.5971834646202296
  Basis Set: (AUG-CC-PVTZ AUX)
    Blend: AUG-CC-PVTZ-RI
    Molecular point group: c1

    Geometry (in Angstrom), charge = 0, multiplicity = 1:

       Center              X                  Y                   Z               Mass
    ------------   -----------------  -----------------  -----------------  -----------------
         O           -3.188729122636    -0.320130471518     0.006627050603    15.994914619570
         C            1.634603877364    -0.329218471518    -0.015239949397    12.000000000000
         C            0.383439877364    -0.955021471518    -0.009888949397    12.000000000000
         C           -0.795708122636    -0.202279471518    -0.001050949397    12.000000000000
         C            1.672887877364     1.071652528482    -0.006968949397    12.000000000000
         C           -0.743355122636     1.197487528482     0.006655050603    12.000000000000
         C            0.496750877364     1.828828528482     0.001565050603    12.000000000000
         C            2.906157877364    -1.136791471518     0.013557050603    12.000000000000
         C           -2.103199122636    -0.893512471518    -0.002250949397    12.000000000000
         H            0.323385877364    -2.044210471518    -0.019792949397     1.007825032230
         H            2.637158877364     1.577816528482    -0.015076949397     1.007825032230
         H           -1.673732122636     1.759421528482     0.010663050603     1.007825032230
         H            2.756170877364    -2.122290471518    -0.435774949397     1.007825032230
         H            3.705697877364    -0.630842471518    -0.534752949397     1.007825032230
         H            3.258408877364    -1.290694471518     1.060469450603     1.007825032230
         H            0.555060877364     2.914739528482     0.003169050603     1.007825032230
         H           -2.052054122636    -2.002833471518    -0.011877949397     1.007825032230

  Basis Set: AUG-CC-PVTZ
    Blend: AUG-CC-PVTZ
  Basis Set: (AUG-CC-PVTZ AUX)
    Blend: AUG-CC-PVTZ-JKFIT
	 Reference Energy          =    -382.5971834646202865 [Eh]
	 Singles Energy            =      -0.0000000000000000 [Eh]
	 Same-Spin Energy          =      -0.4081228438386977 [Eh]
	 Opposite-Spin Energy      =      -1.2865162318264711 [Eh]
	 Correlation Energy        =      -1.6946390756651688 [Eh]
	 Total Energy              =    -384.2918225402854659 [Eh]

	 ================> DF-SCS-MP2 Energies <==================
	-----------------------------------------------------------
	 SCS Same-Spin Scale       =       0.3333333333333333 [-]
	 SCS Opposite-Spin Scale   =       1.2000000000000000 [-]
	 SCS Same-Spin Energy      =      -0.1360409479462326 [Eh]
	 SCS Opposite-Spin Energy  =      -1.5438194781917653 [Eh]
	 SCS Correlation Energy    =      -1.6798604261379979 [Eh]
	 SCS Total Energy          =    -384.2770438907583070 [Eh]
	-----------------------------------------------------------

  Dipole Moment: [D]
     X:     3.6768      Y:    -0.4896      Z:     0.0165     Total:     3.7093

*** Psi4 exiting successfully. Buy a developer a beer!
