                               Psi4 1.3.2 release

  ==> Input File <==

--------------------------------------------------------------------------
#psi4
#
memory 32 gb

molecule  {
0 1
  O       -3.2622350    -0.3059220     0.0067540
  C        1.5611120    -0.3149990    -0.0153800
  C        0.2247969    -1.0598954    -0.0106526
  C       -0.8692280    -0.1880260    -0.0014190
  C        1.5994260     1.0858870    -0.0069900
  C       -0.8168260     1.2117300     0.0064260
  C        0.4233030     1.8430470     0.0013400
  C        2.8326460    -1.1226230     0.0134670
  C       -2.1766910    -0.8792860    -0.0025100
  H        0.2498670    -2.0299540    -0.0200910
  H        2.5637200     1.5920050    -0.0150810
  H       -1.7471690     1.7737230     0.0102860
  H        2.6825510    -2.1081700    -0.4357140
  H        3.6321630    -0.6167660    -0.5349600
  H        3.1786260    -1.2736230     1.0416080
  H        0.4815460     2.9289630     0.0030700
  H       -2.1255320    -1.9885980    -0.0123860
units angstrom
no_reorient  #important for SAPT in psi4, default
symmetry c1  #important for SAPT in psi4, default
}

set PROPERTIES_ORIGIN ["COM"]
properties('MP2/aug-cc-pvtz', properties = ['dipole'])
--------------------------------------------------------------------------

    Molecular point group: c1
  Charge       = 0
  Multiplicity = 1
  Basis Set: AUG-CC-PVTZ
    Blend: AUG-CC-PVTZ
  Basis Set: (AUG-CC-PVTZ AUX)
    Blend: AUG-CC-PVTZ-JKFIT

    Orbital Energies [Eh]
    ---------------------

    Doubly Occupied:

       1A    -20.551983     2A    -11.333067     3A    -11.273448
       4A    -11.261975     5A    -11.257528     6A    -11.253305
       7A    -11.251154     8A    -11.248023     9A    -11.237737
      10A     -1.376980    11A     -1.163029    12A     -1.062399
      13A     -1.045971    14A     -0.947032    15A     -0.886031
      16A     -0.844832    17A     -0.762935    18A     -0.720269
      19A     -0.674305    20A     -0.661754    21A     -0.619627
      22A     -0.614768    23A     -0.588232    24A     -0.581606
      25A     -0.556462    26A     -0.543031    27A     -0.518024
      28A     -0.498953    29A     -0.483790    30A     -0.423726
      31A     -0.357421    32A     -0.329101

  @DF-RHF Final Energy:  -382.56879847818828

   => Energetics <=

    Nuclear Repulsion Energy =            394.5217723317540504
    One-Electron Energy =               -1300.3241482965709110
    Two-Electron Energy =                 523.2335774866285192
    Total Energy =                       -382.5687984781883415
  Basis Set: (AUG-CC-PVTZ AUX)
    Blend: AUG-CC-PVTZ-RI
    Molecular point group: c1

    Geometry (in Angstrom), charge = 0, multiplicity = 1:

       Center              X                  Y                   Z               Mass
    ------------   -----------------  -----------------  -----------------  -----------------
         O           -3.180181283489    -0.308261886329     0.007116943691    15.994914619570
         C            1.643165716511    -0.317338886329    -0.015017056309    12.000000000000
         C            0.306850616511    -1.062235286329    -0.010289656309    12.000000000000
         C           -0.787174283489    -0.190365886329    -0.001056056309    12.000000000000
         C            1.681479716511     1.083547113671    -0.006627056309    12.000000000000
         C           -0.734772283489     1.209390113671     0.006788943691    12.000000000000
         C            0.505356716511     1.840707113671     0.001702943691    12.000000000000
         C            2.914699716511    -1.124962886329     0.013829943691    12.000000000000
         C           -2.094637283489    -0.881625886329    -0.002147056309    12.000000000000
         H            0.331920716511    -2.032293886329    -0.019728056309     1.007825032230
         H            2.645773716511     1.589665113671    -0.014718056309     1.007825032230
         H           -1.665115283489     1.771383113671     0.010648943691     1.007825032230
         H            2.764604716511    -2.110509886329    -0.435351056309     1.007825032230
         H            3.714216716511    -0.619105886329    -0.534597056309     1.007825032230
         H            3.260679716511    -1.275962886329     1.041970943691     1.007825032230
         H            0.563599716511     2.926623113671     0.003432943691     1.007825032230
         H           -2.043478283489    -1.990937886329    -0.012023056309     1.007825032230

  Basis Set: AUG-CC-PVTZ
    Blend: AUG-CC-PVTZ
  Basis Set: (AUG-CC-PVTZ AUX)
    Blend: AUG-CC-PVTZ-JKFIT
	 Reference Energy          =    -382.5687984781882847 [Eh]
	 Singles Energy            =      -0.0000000000000000 [Eh]
	 Same-Spin Energy          =      -0.4081774536752824 [Eh]
	 Opposite-Spin Energy      =      -1.2882419784473305 [Eh]
	 Correlation Energy        =      -1.6964194321226129 [Eh]
	 Total Energy              =    -384.2652179103109233 [Eh]

	 ================> DF-SCS-MP2 Energies <==================
	-----------------------------------------------------------
	 SCS Same-Spin Scale       =       0.3333333333333333 [-]
	 SCS Opposite-Spin Scale   =       1.2000000000000000 [-]
	 SCS Same-Spin Energy      =      -0.1360591512250941 [Eh]
	 SCS Opposite-Spin Energy  =      -1.5458903741367964 [Eh]
	 SCS Correlation Energy    =      -1.6819495253618906 [Eh]
	 SCS Total Energy          =    -384.2507480035501999 [Eh]
	-----------------------------------------------------------

  Dipole Moment: [D]
     X:     3.7416      Y:    -0.5210      Z:     0.0250     Total:     3.7778

*** Psi4 exiting successfully. Buy a developer a beer!
