                               Psi4 1.4a3.dev225

  ==> Input File <==

--------------------------------------------------------------------------
#psi4
#
memory 32 gb

molecule  {
0 1
  O       -3.2622200    -0.3059070     0.0064780
  C        1.5611130    -0.3149950    -0.0153890
  C        0.3099490    -0.9407980    -0.0100380
  C       -0.8691990    -0.1880560    -0.0012000
  C        1.5993970     1.0858760    -0.0071180
  C       -0.8168460     1.2117110     0.0065060
  C        0.4232600     1.8430520     0.0014160
  C        2.7904676    -1.0957669     0.0124523
  C       -2.1766900    -0.8792890    -0.0024000
  H        0.2498950    -2.0299870    -0.0199420
  H        2.5636680     1.5920400    -0.0152260
  H       -1.7472230     1.7736450     0.0105140
  H        2.6826800    -2.1080670    -0.4359240
  H        3.6322070    -0.6166190    -0.5349020
  H        3.1786010    -1.2737110     1.0415460
  H        0.4815700     2.9289630     0.0030200
  H       -2.1255450    -1.9886100    -0.0120270
units angstrom
no_reorient  #important for SAPT in psi4, default
symmetry c1  #important for SAPT in psi4, default
}

set PROPERTIES_ORIGIN ["COM"]
properties('MP2/aug-cc-pvtz', properties = ['dipole'])
--------------------------------------------------------------------------

    Molecular point group: c1
  Charge       = 0
  Multiplicity = 1
  Basis Set: AUG-CC-PVTZ
    Blend: AUG-CC-PVTZ
  Basis Set: (AUG-CC-PVTZ AUX)
    Blend: AUG-CC-PVTZ-JKFIT

    Orbital Energies [Eh]
    ---------------------

    Doubly Occupied:

       1A    -20.554305     2A    -11.336830     3A    -11.257611
       4A    -11.256407     5A    -11.254034     6A    -11.252913
       7A    -11.250689     8A    -11.249460     9A    -11.239651
      10A     -1.378959    11A     -1.174908    12A     -1.071347
      13A     -1.043617    14A     -0.947147    15A     -0.892290
      16A     -0.834738    17A     -0.772834    18A     -0.709699
      19A     -0.679794    20A     -0.652010    21A     -0.619420
      22A     -0.610553    23A     -0.591448    24A     -0.586290
      25A     -0.545288    26A     -0.543313    27A     -0.519228
      28A     -0.506673    29A     -0.487387    30A     -0.428637
      31A     -0.353831    32A     -0.338333

  @DF-RHF Final Energy:  -382.59437642259348

   => Energetics <=

    Nuclear Repulsion Energy =            397.0628962331913954
    One-Electron Energy =               -1305.4352611299873388
    Two-Electron Energy =                 525.7779884742025160
    Total Energy =                       -382.5943764225934274
  Basis Set: (AUG-CC-PVTZ AUX)
    Blend: AUG-CC-PVTZ-RI
    Molecular point group: c1

    Geometry (in Angstrom), charge = 0, multiplicity = 1:

       Center              X                  Y                   Z               Mass
    ------------   -----------------  -----------------  -----------------  -----------------
         O           -3.184458176072    -0.322832466453     0.006880176867    15.994914619570
         C            1.638874823928    -0.331920466453    -0.014986823133    12.000000000000
         C            0.387710823928    -0.957723466453    -0.009635823133    12.000000000000
         C           -0.791437176072    -0.204981466453    -0.000797823133    12.000000000000
         C            1.677158823928     1.068950533547    -0.006715823133    12.000000000000
         C           -0.739084176072     1.194785533547     0.006908176867    12.000000000000
         C            0.501021823928     1.826126533547     0.001818176867    12.000000000000
         C            2.868229423928    -1.112692366453     0.012854476867    12.000000000000
         C           -2.098928176072    -0.896214466453    -0.001997823133    12.000000000000
         H            0.327656823928    -2.046912466453    -0.019539823133     1.007825032230
         H            2.641429823928     1.575114533547    -0.014823823133     1.007825032230
         H           -1.669461176072     1.756719533547     0.010916176867     1.007825032230
         H            2.760441823928    -2.124992466453    -0.435521823133     1.007825032230
         H            3.709968823928    -0.633544466453    -0.534499823133     1.007825032230
         H            3.256362823928    -1.290636466453     1.041948176867     1.007825032230
         H            0.559331823928     2.912037533547     0.003422176867     1.007825032230
         H           -2.047783176072    -2.005535466453    -0.011624823133     1.007825032230

  Basis Set: AUG-CC-PVTZ
    Blend: AUG-CC-PVTZ
  Basis Set: (AUG-CC-PVTZ AUX)
    Blend: AUG-CC-PVTZ-JKFIT
	 Reference Energy          =    -382.5943764225934842 [Eh]
	 Singles Energy            =      -0.0000000000000000 [Eh]
	 Same-Spin Energy          =      -0.4086515954929566 [Eh]
	 Opposite-Spin Energy      =      -1.2869566046641008 [Eh]
	 Correlation Energy        =      -1.6956082001570574 [Eh]
	 Total Energy              =    -384.2899846227505236 [Eh]

	 ================> DF-SCS-MP2 Energies <==================
	-----------------------------------------------------------
	 SCS Same-Spin Scale       =       0.3333333333333333 [-]
	 SCS Opposite-Spin Scale   =       1.2000000000000000 [-]
	 SCS Same-Spin Energy      =      -0.1362171984976522 [Eh]
	 SCS Opposite-Spin Energy  =      -1.5443479255969208 [Eh]
	 SCS Correlation Energy    =      -1.6805651240945729 [Eh]
	 SCS Total Energy          =    -384.2749415466880691 [Eh]
	-----------------------------------------------------------

  Dipole Moment: [D]
     X:     3.6868      Y:    -0.4961      Z:     0.0251     Total:     3.7202

*** Psi4 exiting successfully. Buy a developer a beer!
