                               Psi4 1.3.2 release

  ==> Input File <==

--------------------------------------------------------------------------
#psi4
#
memory 32 gb

molecule  {
0 1
  O       -3.2622350    -0.3059220     0.0067540
  C        1.5611120    -0.3149990    -0.0153800
  C        0.3099430    -0.9407630    -0.0100630
  C       -0.8692280    -0.1880260    -0.0014190
  C        1.5994260     1.0858870    -0.0069900
  C       -0.8168260     1.2117300     0.0064260
  C        0.4233030     1.8430470     0.0013400
  C        2.8326460    -1.1226230     0.0134670
  C       -2.1766910    -0.8792860    -0.0025100
  H        0.2498670    -2.0299540    -0.0200910
  H        2.5637200     1.5920050    -0.0150810
  H       -1.7471690     1.7737230     0.0102860
  H        2.6825510    -2.1081700    -0.4357140
  H        3.6321630    -0.6167660    -0.5349600
  H        3.1154478    -1.2460494     0.8538629
  H        0.4815460     2.9289630     0.0030700
  H       -2.1255320    -1.9885980    -0.0123860
units angstrom
no_reorient  #important for SAPT in psi4, default
symmetry c1  #important for SAPT in psi4, default
}

set PROPERTIES_ORIGIN ["COM"]
properties('MP2/aug-cc-pvtz', properties = ['dipole'])
--------------------------------------------------------------------------

    Molecular point group: c1
  Charge       = 0
  Multiplicity = 1
  Basis Set: AUG-CC-PVTZ
    Blend: AUG-CC-PVTZ
  Basis Set: (AUG-CC-PVTZ AUX)
    Blend: AUG-CC-PVTZ-JKFIT

    Orbital Energies [Eh]
    ---------------------

    Doubly Occupied:

       1A    -20.553885     2A    -11.336419     3A    -11.258248
       4A    -11.256347     5A    -11.253533     6A    -11.252356
       7A    -11.250123     8A    -11.248907     9A    -11.213413
      10A     -1.378556    11A     -1.173051    12A     -1.071936
      13A     -1.043159    14A     -0.966772    15A     -0.891884
      16A     -0.836061    17A     -0.775603    18A     -0.710405
      19A     -0.678590    20A     -0.650190    21A     -0.627086
      22A     -0.618634    23A     -0.608322    24A     -0.582744
      25A     -0.551652    26A     -0.546161    27A     -0.519730
      28A     -0.502627    29A     -0.491152    30A     -0.428167
      31A     -0.353217    32A     -0.340734

  @DF-RHF Final Energy:  -382.56400177510011

   => Energetics <=

    Nuclear Repulsion Energy =            397.2128687676162144
    One-Electron Energy =               -1305.6144147426450672
    Two-Electron Energy =                 525.8375441999287432
    Total Energy =                       -382.5640017751001096
  Basis Set: (AUG-CC-PVTZ AUX)
    Blend: AUG-CC-PVTZ-RI
    Molecular point group: c1

    Geometry (in Angstrom), charge = 0, multiplicity = 1:

       Center              X                  Y                   Z               Mass
    ------------   -----------------  -----------------  -----------------  -----------------
         O           -3.188161463901    -0.320400886256     0.008634041656    15.994914619570
         C            1.635185536099    -0.329477886256    -0.013499958344    12.000000000000
         C            0.384016536099    -0.955241886256    -0.008182958344    12.000000000000
         C           -0.795154463901    -0.202504886256     0.000461041656    12.000000000000
         C            1.673499536099     1.071408113744    -0.005109958344    12.000000000000
         C           -0.742752463901     1.197251113744     0.008306041656    12.000000000000
         C            0.497376536099     1.828568113744     0.003220041656    12.000000000000
         C            2.906719536099    -1.137101886256     0.015347041656    12.000000000000
         C           -2.102617463901    -0.893764886256    -0.000629958344    12.000000000000
         H            0.323940536099    -2.044432886256    -0.018210958344     1.007825032230
         H            2.637793536099     1.577526113744    -0.013200958344     1.007825032230
         H           -1.673095463901     1.759244113744     0.012166041656     1.007825032230
         H            2.756624536099    -2.122648886256    -0.433833958344     1.007825032230
         H            3.706236536099    -0.631244886256    -0.533079958344     1.007825032230
         H            3.189521336099    -1.260528286256     0.855742941656     1.007825032230
         H            0.555619536099     2.914484113744     0.004950041656     1.007825032230
         H           -2.051458463901    -2.003076886256    -0.010505958344     1.007825032230

  Basis Set: AUG-CC-PVTZ
    Blend: AUG-CC-PVTZ
  Basis Set: (AUG-CC-PVTZ AUX)
    Blend: AUG-CC-PVTZ-JKFIT
	 Reference Energy          =    -382.5640017751001096 [Eh]
	 Singles Energy            =      -0.0000000000000000 [Eh]
	 Same-Spin Energy          =      -0.4082574321498720 [Eh]
	 Opposite-Spin Energy      =      -1.2858209468488657 [Eh]
	 Correlation Energy        =      -1.6940783789987377 [Eh]
	 Total Energy              =    -384.2580801540988205 [Eh]

	 ================> DF-SCS-MP2 Energies <==================
	-----------------------------------------------------------
	 SCS Same-Spin Scale       =       0.3333333333333333 [-]
	 SCS Opposite-Spin Scale   =       1.2000000000000000 [-]
	 SCS Same-Spin Energy      =      -0.1360858107166240 [Eh]
	 SCS Opposite-Spin Energy  =      -1.5429851362186389 [Eh]
	 SCS Correlation Energy    =      -1.6790709469352629 [Eh]
	 SCS Total Energy          =    -384.2430727220353788 [Eh]
	-----------------------------------------------------------

  Dipole Moment: [D]
     X:     3.7245      Y:    -0.5135      Z:     0.0562     Total:     3.7601

*** Psi4 exiting successfully. Buy a developer a beer!
