                               Psi4 1.3.2 release

  ==> Input File <==

--------------------------------------------------------------------------
#psi4
#
memory 32 gb

molecule  {
0 1
  O       -3.2622350    -0.3059220     0.0067540
  C        1.5611120    -0.3149990    -0.0153800
  C        0.3821699    -0.8133834    -0.0093787
  C       -0.8692280    -0.1880260    -0.0014190
  C        1.5994260     1.0858870    -0.0069900
  C       -0.8168260     1.2117300     0.0064260
  C        0.4233030     1.8430470     0.0013400
  C        2.8326460    -1.1226230     0.0134670
  C       -2.1766910    -0.8792860    -0.0025100
  H        0.2498670    -2.0299540    -0.0200910
  H        2.5637200     1.5920050    -0.0150810
  H       -1.7471690     1.7737230     0.0102860
  H        2.6825510    -2.1081700    -0.4357140
  H        3.6321630    -0.6167660    -0.5349600
  H        3.1786260    -1.2736230     1.0416080
  H        0.4815460     2.9289630     0.0030700
  H       -2.1255320    -1.9885980    -0.0123860
units angstrom
no_reorient  #important for SAPT in psi4, default
symmetry c1  #important for SAPT in psi4, default
}

set PROPERTIES_ORIGIN ["COM"]
properties('MP2/aug-cc-pvtz', properties = ['dipole'])
--------------------------------------------------------------------------

    Molecular point group: c1
  Charge       = 0
  Multiplicity = 1
  Basis Set: AUG-CC-PVTZ
    Blend: AUG-CC-PVTZ
  Basis Set: (AUG-CC-PVTZ AUX)
    Blend: AUG-CC-PVTZ-JKFIT

    Orbital Energies [Eh]
    ---------------------

    Doubly Occupied:

       1A    -20.555925     2A    -11.340328     3A    -11.257945
       4A    -11.253847     5A    -11.253480     6A    -11.250960
       7A    -11.247818     8A    -11.243618     9A    -11.239071
      10A     -1.380439    11A     -1.188883    12A     -1.074636
      13A     -1.039290    14A     -0.954678    15A     -0.899239
      16A     -0.825927    17A     -0.785777    18A     -0.708375
      19A     -0.681637    20A     -0.645029    21A     -0.623239
      22A     -0.596590    23A     -0.595360    24A     -0.586182
      25A     -0.548142    26A     -0.546670    27A     -0.530075
      28A     -0.497014    29A     -0.474991    30A     -0.431757
      31A     -0.359781    32A     -0.345317

  @DF-RHF Final Energy:  -382.57031550368123

   => Energetics <=

    Nuclear Repulsion Energy =            398.2204858590505410
    One-Electron Energy =               -1307.6575674969860756
    Two-Electron Energy =                 526.8667661342542488
    Total Energy =                       -382.5703155036812859
  Basis Set: (AUG-CC-PVTZ AUX)
    Blend: AUG-CC-PVTZ-RI
    Molecular point group: c1

    Geometry (in Angstrom), charge = 0, multiplicity = 1:

       Center              X                  Y                   Z               Mass
    ------------   -----------------  -----------------  -----------------  -----------------
         O           -3.195911044362    -0.332901276899     0.006989614719    15.994914619570
         C            1.627435955638    -0.341978276899    -0.015144385281    12.000000000000
         C            0.448493855638    -0.840362676899    -0.009143085281    12.000000000000
         C           -0.802904044362    -0.215005276899    -0.001183385281    12.000000000000
         C            1.665749955638     1.058907723101    -0.006754385281    12.000000000000
         C           -0.750502044362     1.184750723101     0.006661614719    12.000000000000
         C            0.489626955638     1.816067723101     0.001575614719    12.000000000000
         C            2.898969955638    -1.149602276899     0.013702614719    12.000000000000
         C           -2.110367044362    -0.906265276899    -0.002274385281    12.000000000000
         H            0.316190955638    -2.056933276899    -0.019855385281     1.007825032230
         H            2.630043955638     1.565025723101    -0.014845385281     1.007825032230
         H           -1.680845044362     1.746743723101     0.010521614719     1.007825032230
         H            2.748874955638    -2.135149276899    -0.435478385281     1.007825032230
         H            3.698486955638    -0.643745276899    -0.534724385281     1.007825032230
         H            3.244949955638    -1.300602276899     1.041843614719     1.007825032230
         H            0.547869955638     2.901983723101     0.003305614719     1.007825032230
         H           -2.059208044362    -2.015577276899    -0.012150385281     1.007825032230

  Basis Set: AUG-CC-PVTZ
    Blend: AUG-CC-PVTZ
  Basis Set: (AUG-CC-PVTZ AUX)
    Blend: AUG-CC-PVTZ-JKFIT
	 Reference Energy          =    -382.5703155036812291 [Eh]
	 Singles Energy            =      -0.0000000000000000 [Eh]
	 Same-Spin Energy          =      -0.4086168003205851 [Eh]
	 Opposite-Spin Energy      =      -1.2873605704038393 [Eh]
	 Correlation Energy        =      -1.6959773707244243 [Eh]
	 Total Energy              =    -384.2662928744056785 [Eh]

	 ================> DF-SCS-MP2 Energies <==================
	-----------------------------------------------------------
	 SCS Same-Spin Scale       =       0.3333333333333333 [-]
	 SCS Opposite-Spin Scale   =       1.2000000000000000 [-]
	 SCS Same-Spin Energy      =      -0.1362056001068617 [Eh]
	 SCS Opposite-Spin Energy  =      -1.5448326844846072 [Eh]
	 SCS Correlation Energy    =      -1.6810382845914689 [Eh]
	 SCS Total Energy          =    -384.2513537882726951 [Eh]
	-----------------------------------------------------------

  Dipole Moment: [D]
     X:     3.6248      Y:    -0.3481      Z:     0.0210     Total:     3.6416

*** Psi4 exiting successfully. Buy a developer a beer!
