                               Psi4 1.3.2 release

  ==> Input File <==

--------------------------------------------------------------------------
#psi4
#
memory 32 gb

molecule  {
0 1
  O       -3.2622350    -0.3059220     0.0067540
  C        1.5611120    -0.3149990    -0.0153800
  C        0.3099430    -0.9407630    -0.0100630
  C       -0.9486445    -0.0551523     0.0000410
  C        1.5994260     1.0858870    -0.0069900
  C       -0.8168260     1.2117300     0.0064260
  C        0.4233030     1.8430470     0.0013400
  C        2.8326460    -1.1226230     0.0134670
  C       -2.1766910    -0.8792860    -0.0025100
  H        0.2498670    -2.0299540    -0.0200910
  H        2.5637200     1.5920050    -0.0150810
  H       -1.7471690     1.7737230     0.0102860
  H        2.6825510    -2.1081700    -0.4357140
  H        3.6321630    -0.6167660    -0.5349600
  H        3.1786260    -1.2736230     1.0416080
  H        0.4815460     2.9289630     0.0030700
  H       -2.1255320    -1.9885980    -0.0123860
units angstrom
no_reorient  #important for SAPT in psi4, default
symmetry c1  #important for SAPT in psi4, default
}

set PROPERTIES_ORIGIN ["COM"]
properties('MP2/aug-cc-pvtz', properties = ['dipole'])
--------------------------------------------------------------------------

    Molecular point group: c1
  Charge       = 0
  Multiplicity = 1
  Basis Set: AUG-CC-PVTZ
    Blend: AUG-CC-PVTZ
  Basis Set: (AUG-CC-PVTZ AUX)
    Blend: AUG-CC-PVTZ-JKFIT

    Orbital Energies [Eh]
    ---------------------

    Doubly Occupied:

       1A    -20.552761     2A    -11.337220     3A    -11.261351
       4A    -11.257542     5A    -11.253518     6A    -11.250826
       7A    -11.249989     8A    -11.236584     9A    -11.235021
      10A     -1.380473    11A     -1.172532    12A     -1.077895
      13A     -1.028516    14A     -0.948986    15A     -0.888401
      16A     -0.846420    17A     -0.760739    18A     -0.712208
      19A     -0.677720    20A     -0.657238    21A     -0.618418
      22A     -0.605956    23A     -0.588964    24A     -0.579287
      25A     -0.555375    26A     -0.546546    27A     -0.520600
      28A     -0.489345    29A     -0.487786    30A     -0.427412
      31A     -0.358912    32A     -0.334519

  @DF-RHF Final Energy:  -382.56695860941664

   => Energetics <=

    Nuclear Repulsion Energy =            396.3627204656604590
    One-Electron Energy =               -1304.0612388384770384
    Two-Electron Energy =                 525.1315597633999914
    Total Energy =                       -382.5669586094165879
  Basis Set: (AUG-CC-PVTZ AUX)
    Blend: AUG-CC-PVTZ-RI
    Molecular point group: c1

    Geometry (in Angstrom), charge = 0, multiplicity = 1:

       Center              X                  Y                   Z               Mass
    ------------   -----------------  -----------------  -----------------  -----------------
         O           -3.180753969007    -0.333450423699     0.006912081879    15.994914619570
         C            1.642593030993    -0.342527423699    -0.015221918121    12.000000000000
         C            0.391424030993    -0.968291423699    -0.009904918121    12.000000000000
         C           -0.867163469007    -0.082680723699     0.000199081879    12.000000000000
         C            1.680907030993     1.058358576301    -0.006831918121    12.000000000000
         C           -0.735344969007     1.184201576301     0.006584081879    12.000000000000
         C            0.504784030993     1.815518576301     0.001498081879    12.000000000000
         C            2.914127030993    -1.150151423699     0.013625081879    12.000000000000
         C           -2.095209969007    -0.906814423699    -0.002351918121    12.000000000000
         H            0.331348030993    -2.057482423699    -0.019932918121     1.007825032230
         H            2.645201030993     1.564476576301    -0.014922918121     1.007825032230
         H           -1.665687969007     1.746194576301     0.010444081879     1.007825032230
         H            2.764032030993    -2.135698423699    -0.435555918121     1.007825032230
         H            3.713644030993    -0.644294423699    -0.534801918121     1.007825032230
         H            3.260107030993    -1.301151423699     1.041766081879     1.007825032230
         H            0.563027030993     2.901434576301     0.003228081879     1.007825032230
         H           -2.044050969007    -2.016126423699    -0.012227918121     1.007825032230

  Basis Set: AUG-CC-PVTZ
    Blend: AUG-CC-PVTZ
  Basis Set: (AUG-CC-PVTZ AUX)
    Blend: AUG-CC-PVTZ-JKFIT
	 Reference Energy          =    -382.5669586094166448 [Eh]
	 Singles Energy            =      -0.0000000000000000 [Eh]
	 Same-Spin Energy          =      -0.4078260370872837 [Eh]
	 Opposite-Spin Energy      =      -1.2875535666773663 [Eh]
	 Correlation Energy        =      -1.6953796037646500 [Eh]
	 Total Energy              =    -384.2623382131812946 [Eh]

	 ================> DF-SCS-MP2 Energies <==================
	-----------------------------------------------------------
	 SCS Same-Spin Scale       =       0.3333333333333333 [-]
	 SCS Opposite-Spin Scale   =       1.2000000000000000 [-]
	 SCS Same-Spin Energy      =      -0.1359420123624279 [Eh]
	 SCS Opposite-Spin Energy  =      -1.5450642800128396 [Eh]
	 SCS Correlation Energy    =      -1.6810062923752676 [Eh]
	 SCS Total Energy          =    -384.2479649017919314 [Eh]
	-----------------------------------------------------------

  Dipole Moment: [D]
     X:     3.5695      Y:    -0.5803      Z:     0.0225     Total:     3.6164

*** Psi4 exiting successfully. Buy a developer a beer!
