                               Psi4 1.3.2 release

  ==> Input File <==

--------------------------------------------------------------------------
#psi4
#
memory 32 gb

molecule  {
0 1
  O       -3.2622350    -0.3059220     0.0067540
  C        1.5611120    -0.3149990    -0.0153800
  C        0.2829532    -0.9814566    -0.0102704
  C       -0.8692280    -0.1880260    -0.0014190
  C        1.5994260     1.0858870    -0.0069900
  C       -0.8168260     1.2117300     0.0064260
  C        0.4233030     1.8430470     0.0013400
  C        2.8326460    -1.1226230     0.0134670
  C       -2.1766910    -0.8792860    -0.0025100
  H        0.2498670    -2.0299540    -0.0200910
  H        2.5637200     1.5920050    -0.0150810
  H       -1.7471690     1.7737230     0.0102860
  H        2.6825510    -2.1081700    -0.4357140
  H        3.6321630    -0.6167660    -0.5349600
  H        3.1786260    -1.2736230     1.0416080
  H        0.4815460     2.9289630     0.0030700
  H       -2.1255320    -1.9885980    -0.0123860
units angstrom
no_reorient  #important for SAPT in psi4, default
symmetry c1  #important for SAPT in psi4, default
}

set PROPERTIES_ORIGIN ["COM"]
properties('MP2/aug-cc-pvtz', properties = ['dipole'])
--------------------------------------------------------------------------

    Molecular point group: c1
  Charge       = 0
  Multiplicity = 1
  Basis Set: AUG-CC-PVTZ
    Blend: AUG-CC-PVTZ
  Basis Set: (AUG-CC-PVTZ AUX)
    Blend: AUG-CC-PVTZ-JKFIT

    Orbital Energies [Eh]
    ---------------------

    Doubly Occupied:

       1A    -20.553459     2A    -11.335456     3A    -11.264148
       4A    -11.258527     5A    -11.253937     6A    -11.253118
       7A    -11.250866     8A    -11.249038     9A    -11.237726
      10A     -1.378210    11A     -1.169030    12A     -1.063973
      13A     -1.044152    14A     -0.947584    15A     -0.889369
      16A     -0.838074    17A     -0.768587    18A     -0.711593
      19A     -0.677445    20A     -0.653589    21A     -0.617742
      22A     -0.613712    23A     -0.589745    24A     -0.582500
      25A     -0.554484    26A     -0.543876    27A     -0.516767
      28A     -0.506355    29A     -0.487137    30A     -0.427041
      31A     -0.354362    32A     -0.336019

  @DF-RHF Final Energy:  -382.59420967439610

   => Energetics <=

    Nuclear Repulsion Energy =            395.6245129391143109
    One-Electron Energy =               -1302.5821990017159351
    Two-Electron Energy =                 524.3634763882055267
    Total Energy =                       -382.5942096743960974
  Basis Set: (AUG-CC-PVTZ AUX)
    Blend: AUG-CC-PVTZ-RI
    Molecular point group: c1

    Geometry (in Angstrom), charge = 0, multiplicity = 1:

       Center              X                  Y                   Z               Mass
    ------------   -----------------  -----------------  -----------------  -----------------
         O           -3.185994127448    -0.316102008632     0.007078742001    15.994914619570
         C            1.637352872552    -0.325179008632    -0.015055257999    12.000000000000
         C            0.359194072552    -0.991636608632    -0.009945657999    12.000000000000
         C           -0.792987127448    -0.198206008632    -0.001094257999    12.000000000000
         C            1.675666872552     1.075706991368    -0.006665257999    12.000000000000
         C           -0.740585127448     1.201549991368     0.006750742001    12.000000000000
         C            0.499543872552     1.832866991368     0.001664742001    12.000000000000
         C            2.908886872552    -1.132803008632     0.013791742001    12.000000000000
         C           -2.100450127448    -0.889466008632    -0.002185257999    12.000000000000
         H            0.326107872552    -2.040134008632    -0.019766257999     1.007825032230
         H            2.639960872552     1.581824991368    -0.014756257999     1.007825032230
         H           -1.670928127448     1.763542991368     0.010610742001     1.007825032230
         H            2.758791872552    -2.118350008632    -0.435389257999     1.007825032230
         H            3.708403872552    -0.626946008632    -0.534635257999     1.007825032230
         H            3.254866872552    -1.283803008632     1.041932742001     1.007825032230
         H            0.557786872552     2.918782991368     0.003394742001     1.007825032230
         H           -2.049291127448    -1.998778008632    -0.012061257999     1.007825032230

  Basis Set: AUG-CC-PVTZ
    Blend: AUG-CC-PVTZ
  Basis Set: (AUG-CC-PVTZ AUX)
    Blend: AUG-CC-PVTZ-JKFIT
	 Reference Energy          =    -382.5942096743960974 [Eh]
	 Singles Energy            =      -0.0000000000000000 [Eh]
	 Same-Spin Energy          =      -0.4080816023364680 [Eh]
	 Opposite-Spin Energy      =      -1.2866831084750578 [Eh]
	 Correlation Energy        =      -1.6947647108115258 [Eh]
	 Total Energy              =    -384.2889743852076094 [Eh]

	 ================> DF-SCS-MP2 Energies <==================
	-----------------------------------------------------------
	 SCS Same-Spin Scale       =       0.3333333333333333 [-]
	 SCS Opposite-Spin Scale   =       1.2000000000000000 [-]
	 SCS Same-Spin Energy      =      -0.1360272007788226 [Eh]
	 SCS Opposite-Spin Energy  =      -1.5440197301700693 [Eh]
	 SCS Correlation Energy    =      -1.6800469309488919 [Eh]
	 SCS Total Energy          =    -384.2742566053449877 [Eh]
	-----------------------------------------------------------

  Dipole Moment: [D]
     X:     3.7048      Y:    -0.5128      Z:     0.0229     Total:     3.7401

*** Psi4 exiting successfully. Buy a developer a beer!
