                               Psi4 1.4a2.dev612

  ==> Input File <==

--------------------------------------------------------------------------
#psi4
#
memory 32 gb

molecule  {
0 1
  C        0.7388790     0.0000080     0.0000160
  C       -0.7388790     0.0000070    -0.0000030
  C        1.4536770     1.1178580    -0.4583850
  C       -1.4536820     1.1178570     0.4583930
  C        1.4536730    -1.1178550     0.4583870
  C       -1.4536670    -1.1178570    -0.4583770
  C        2.8487180     1.1182580    -0.4560040
  C       -2.8487240     1.1182560     0.4559960
  C        2.8487140    -1.1182560     0.4560110
  C       -2.8487090    -1.1182580    -0.4560170
  C        3.5507430    -0.0000070    -0.0000130
  C       -3.5507430    -0.0000100    -0.0000010
  H        0.9093800     1.9786560    -0.8416800
  H       -0.9080402     2.0374662     0.7037174
  H        0.9093690    -1.9786310     0.8417230
  H       -0.9093580    -1.9786330    -0.8417070
  H        3.3890490     1.9888130    -0.8209640
  H       -3.3890590     1.9888070     0.8209600
  H        3.3890420    -1.9888210     0.8209520
  H       -3.3890330    -1.9888240    -0.8209630
  H        4.6380810    -0.0000130    -0.0000190
  H       -4.6380810    -0.0000130    -0.0000170
units angstrom
no_reorient  #important for SAPT in psi4, default
symmetry c1  #important for SAPT in psi4, default
}

set PROPERTIES_ORIGIN ["COM"]
properties('MP2/aug-cc-pvtz', properties = ['dipole'])
--------------------------------------------------------------------------

    Molecular point group: c1
  Charge       = 0
  Multiplicity = 1
  Basis Set: AUG-CC-PVTZ
    Blend: AUG-CC-PVTZ
  Basis Set: (AUG-CC-PVTZ AUX)
    Blend: AUG-CC-PVTZ-JKFIT

    Orbital Energies [Eh]
    ---------------------

    Doubly Occupied:

       1A    -11.247706     2A    -11.246946     3A    -11.239229
       4A    -11.239181     5A    -11.238980     6A    -11.238916
       7A    -11.237594     8A    -11.236936     9A    -11.236892
      10A    -11.236766    11A    -11.236465    12A    -11.236357
      13A     -1.169632    14A     -1.140460    15A     -1.054047
      16A     -1.019474    17A     -1.011288    18A     -0.982083
      19A     -0.852147    20A     -0.841813    21A     -0.811526
      22A     -0.789413    23A     -0.717686    24A     -0.680860
      25A     -0.654424    26A     -0.639283    27A     -0.616140
      28A     -0.608998    29A     -0.591044    30A     -0.584648
      31A     -0.582481    32A     -0.521631    33A     -0.516682
      34A     -0.503238    35A     -0.492014    36A     -0.484769
      37A     -0.483243    38A     -0.366426    39A     -0.339174
      40A     -0.338039    41A     -0.303699

  @DF-RHF Final Energy:  -460.39904705096973

   => Energetics <=

    Nuclear Repulsion Energy =            599.3329318175980234
    One-Electron Energy =               -1810.3272987283771727
    Two-Electron Energy =                 750.5953198598094787
    Total Energy =                       -460.3990470509697843
  Basis Set: (AUG-CC-PVTZ AUX)
    Blend: AUG-CC-PVTZ-RI
    Molecular point group: c1

    Geometry (in Angstrom), charge = 0, multiplicity = 1:

       Center              X                  Y                   Z               Mass
    ------------   -----------------  -----------------  -----------------  -----------------
         C            0.738870170965    -0.000376735471     0.000918407935    12.000000000000
         C           -0.738887829035    -0.000377735471     0.000899407935    12.000000000000
         C            1.453668170965     1.117473264529    -0.457482592065    12.000000000000
         C           -1.453690829035     1.117472264529     0.459295407935    12.000000000000
         C            1.453664170965    -1.118239735471     0.459289407935    12.000000000000
         C           -1.453675829035    -1.118241735471    -0.457474592065    12.000000000000
         C            2.848709170965     1.117873264529    -0.455101592065    12.000000000000
         C           -2.848732829035     1.117871264529     0.456898407935    12.000000000000
         C            2.848705170965    -1.118640735471     0.456913407935    12.000000000000
         C           -2.848717829035    -1.118642735471    -0.455114592065    12.000000000000
         C            3.550734170965    -0.000391735471     0.000889407935    12.000000000000
         C           -3.550751829035    -0.000394735471     0.000901407935    12.000000000000
         H            0.909371170965     1.978271264529    -0.840777592065     1.007825032230
         H           -0.908049029035     2.037081464529     0.704619807935     1.007825032230
         H            0.909360170965    -1.979015735471     0.842625407935     1.007825032230
         H           -0.909366829035    -1.979017735471    -0.840804592065     1.007825032230
         H            3.389040170965     1.988428264529    -0.820061592065     1.007825032230
         H           -3.389067829035     1.988422264529     0.821862407935     1.007825032230
         H            3.389033170965    -1.989205735471     0.821854407935     1.007825032230
         H           -3.389041829035    -1.989208735471    -0.820060592065     1.007825032230
         H            4.638072170965    -0.000397735471     0.000883407935     1.007825032230
         H           -4.638089829035    -0.000397735471     0.000885407935     1.007825032230

  Basis Set: AUG-CC-PVTZ
    Blend: AUG-CC-PVTZ
  Basis Set: (AUG-CC-PVTZ AUX)
    Blend: AUG-CC-PVTZ-JKFIT
	 Reference Energy          =    -460.3990470509697275 [Eh]
	 Singles Energy            =      -0.0000000000000000 [Eh]
	 Same-Spin Energy          =      -0.5213683863410963 [Eh]
	 Opposite-Spin Energy      =      -1.6234140170235465 [Eh]
	 Correlation Energy        =      -2.1447824033646428 [Eh]
	 Total Energy              =    -462.5438294543343432 [Eh]

	 ================> DF-SCS-MP2 Energies <==================
	-----------------------------------------------------------
	 SCS Same-Spin Scale       =       0.3333333333333333 [-]
	 SCS Opposite-Spin Scale   =       1.2000000000000000 [-]
	 SCS Same-Spin Energy      =      -0.1737894621136988 [Eh]
	 SCS Opposite-Spin Energy  =      -1.9480968204282556 [Eh]
	 SCS Correlation Energy    =      -2.1218862825419542 [Eh]
	 SCS Total Energy          =    -462.5209333335116639 [Eh]
	-----------------------------------------------------------

  Dipole Moment: [D]
     X:    -0.0024      Y:     0.0185      Z:    -0.0832     Total:     0.0853

*** Psi4 exiting successfully. Buy a developer a beer!
