                               Psi4 1.4a2.dev612

  ==> Input File <==

--------------------------------------------------------------------------
#psi4
#
memory 32 gb

molecule  {
0 1
  C        0.7388790     0.0000080     0.0000160
  C       -0.7388790     0.0000070    -0.0000030
  C        1.4536770     1.1178580    -0.4583850
  C       -1.4536820     1.1178570     0.4583930
  C        1.4536730    -1.1368250     0.4121253
  C       -1.4536670    -1.1178570    -0.4583770
  C        2.8487180     1.1182580    -0.4560040
  C       -2.8487240     1.1182560     0.4559960
  C        2.8487140    -1.1182560     0.4560110
  C       -2.8487090    -1.1182580    -0.4560170
  C        3.5507430    -0.0000070    -0.0000130
  C       -3.5507430    -0.0000100    -0.0000010
  H        0.9093800     1.9786560    -0.8416800
  H       -0.9093900     1.9786530     0.8417000
  H        0.9093690    -1.9786310     0.8417230
  H       -0.9093580    -1.9786330    -0.8417070
  H        3.3890490     1.9888130    -0.8209640
  H       -3.3890590     1.9888070     0.8209600
  H        3.3890420    -1.9888210     0.8209520
  H       -3.3890330    -1.9888240    -0.8209630
  H        4.6380810    -0.0000130    -0.0000190
  H       -4.6380810    -0.0000130    -0.0000170
units angstrom
no_reorient  #important for SAPT in psi4, default
symmetry c1  #important for SAPT in psi4, default
}

set PROPERTIES_ORIGIN ["COM"]
properties('MP2/aug-cc-pvtz', properties = ['dipole'])
--------------------------------------------------------------------------

    Molecular point group: c1
  Charge       = 0
  Multiplicity = 1
  Basis Set: AUG-CC-PVTZ
    Blend: AUG-CC-PVTZ
  Basis Set: (AUG-CC-PVTZ AUX)
    Blend: AUG-CC-PVTZ-JKFIT

    Orbital Energies [Eh]
    ---------------------

    Doubly Occupied:

       1A    -11.247706     2A    -11.246874     3A    -11.239356
       4A    -11.239092     5A    -11.239038     6A    -11.238770
       7A    -11.236996     8A    -11.236792     9A    -11.236776
      10A    -11.236634    11A    -11.236406    12A    -11.236272
      13A     -1.169531    14A     -1.140370    15A     -1.053979
      16A     -1.019434    17A     -1.011250    18A     -0.982015
      19A     -0.852064    20A     -0.841838    21A     -0.811598
      22A     -0.789341    23A     -0.717568    24A     -0.681130
      25A     -0.654242    26A     -0.639365    27A     -0.616392
      28A     -0.608405    29A     -0.590710    30A     -0.584417
      31A     -0.583350    32A     -0.521569    33A     -0.515043
      34A     -0.504326    35A     -0.490713    36A     -0.484719
      37A     -0.484506    38A     -0.367182    39A     -0.339560
      40A     -0.337750    41A     -0.303057

  @DF-RHF Final Energy:  -460.39954412830826

   => Energetics <=

    Nuclear Repulsion Energy =            599.3398905115997195
    One-Electron Energy =               -1810.3465982117538715
    Two-Electron Energy =                 750.6071635718457173
    Total Energy =                       -460.3995441283083210
  Basis Set: (AUG-CC-PVTZ AUX)
    Blend: AUG-CC-PVTZ-RI
    Molecular point group: c1

    Geometry (in Angstrom), charge = 0, multiplicity = 1:

       Center              X                  Y                   Z               Mass
    ------------   -----------------  -----------------  -----------------  -----------------
         C            0.738879000000     0.001485392471     0.003618841519    12.000000000000
         C           -0.738879000000     0.001484392471     0.003599841519    12.000000000000
         C            1.453677000000     1.119335392471    -0.454782158481    12.000000000000
         C           -1.453682000000     1.119334392471     0.461995841519    12.000000000000
         C            1.453673000000    -1.135347607529     0.415728141519    12.000000000000
         C           -1.453667000000    -1.116379607529    -0.454774158481    12.000000000000
         C            2.848718000000     1.119735392471    -0.452401158481    12.000000000000
         C           -2.848724000000     1.119733392471     0.459598841519    12.000000000000
         C            2.848714000000    -1.116778607529     0.459613841519    12.000000000000
         C           -2.848709000000    -1.116780607529    -0.452414158481    12.000000000000
         C            3.550743000000     0.001470392471     0.003589841519    12.000000000000
         C           -3.550743000000     0.001467392471     0.003601841519    12.000000000000
         H            0.909380000000     1.980133392471    -0.838077158481     1.007825032230
         H           -0.909390000000     1.980130392471     0.845302841519     1.007825032230
         H            0.909369000000    -1.977153607529     0.845325841519     1.007825032230
         H           -0.909358000000    -1.977155607529    -0.838104158481     1.007825032230
         H            3.389049000000     1.990290392471    -0.817361158481     1.007825032230
         H           -3.389059000000     1.990284392471     0.824562841519     1.007825032230
         H            3.389042000000    -1.987343607529     0.824554841519     1.007825032230
         H           -3.389033000000    -1.987346607529    -0.817360158481     1.007825032230
         H            4.638081000000     0.001464392471     0.003583841519     1.007825032230
         H           -4.638081000000     0.001464392471     0.003585841519     1.007825032230

  Basis Set: AUG-CC-PVTZ
    Blend: AUG-CC-PVTZ
  Basis Set: (AUG-CC-PVTZ AUX)
    Blend: AUG-CC-PVTZ-JKFIT
	 Reference Energy          =    -460.3995441283082641 [Eh]
	 Singles Energy            =      -0.0000000000000000 [Eh]
	 Same-Spin Energy          =      -0.5213698763420245 [Eh]
	 Opposite-Spin Energy      =      -1.6233839142558735 [Eh]
	 Correlation Energy        =      -2.1447537905978979 [Eh]
	 Total Energy              =    -462.5442979189061816 [Eh]

	 ================> DF-SCS-MP2 Energies <==================
	-----------------------------------------------------------
	 SCS Same-Spin Scale       =       0.3333333333333333 [-]
	 SCS Opposite-Spin Scale   =       1.2000000000000000 [-]
	 SCS Same-Spin Energy      =      -0.1737899587806748 [Eh]
	 SCS Opposite-Spin Energy  =      -1.9480606971070480 [Eh]
	 SCS Correlation Energy    =      -2.1218506558877230 [Eh]
	 SCS Total Energy          =    -462.5213947841959907 [Eh]
	-----------------------------------------------------------

  Dipole Moment: [D]
     X:     0.0126      Y:     0.0145      Z:     0.0208     Total:     0.0283

*** Psi4 exiting successfully. Buy a developer a beer!
