                               Psi4 1.4a2.dev612

  ==> Input File <==

--------------------------------------------------------------------------
#psi4
#
memory 32 gb

molecule  {
0 1
  C        0.7388790     0.0000080     0.0000160
  C       -0.7388790     0.0000070    -0.0000030
  C        1.4536770     1.1178580    -0.4583850
  C       -1.4536820     1.1178570     0.4583930
  C        1.4536732    -1.2316748     0.1808171
  C       -1.4536670    -1.1178570    -0.4583770
  C        2.8487180     1.1182580    -0.4560040
  C       -2.8487240     1.1182560     0.4559960
  C        2.8487140    -1.1182560     0.4560110
  C       -2.8487090    -1.1182580    -0.4560170
  C        3.5507430    -0.0000070    -0.0000130
  C       -3.5507430    -0.0000100    -0.0000010
  H        0.9093800     1.9786560    -0.8416800
  H       -0.9093900     1.9786530     0.8417000
  H        0.9093690    -1.9786310     0.8417230
  H       -0.9093580    -1.9786330    -0.8417070
  H        3.3890490     1.9888130    -0.8209640
  H       -3.3890590     1.9888070     0.8209600
  H        3.3890420    -1.9888210     0.8209520
  H       -3.3890330    -1.9888240    -0.8209630
  H        4.6380810    -0.0000130    -0.0000190
  H       -4.6380810    -0.0000130    -0.0000170
units angstrom
no_reorient  #important for SAPT in psi4, default
symmetry c1  #important for SAPT in psi4, default
}

set PROPERTIES_ORIGIN ["COM"]
properties('MP2/aug-cc-pvtz', properties = ['dipole'])
--------------------------------------------------------------------------

    Molecular point group: c1
  Charge       = 0
  Multiplicity = 1
  Basis Set: AUG-CC-PVTZ
    Blend: AUG-CC-PVTZ
  Basis Set: (AUG-CC-PVTZ AUX)
    Blend: AUG-CC-PVTZ-JKFIT

    Orbital Energies [Eh]
    ---------------------

    Doubly Occupied:

       1A    -11.255212     2A    -11.247224     3A    -11.246863
       4A    -11.243958     5A    -11.243602     6A    -11.239068
       7A    -11.238608     8A    -11.237218     9A    -11.236650
      10A    -11.236378    11A    -11.236210    12A    -11.235991
      13A     -1.168352    14A     -1.139264    15A     -1.054053
      16A     -1.018334    17A     -1.009179    18A     -0.980758
      19A     -0.850924    20A     -0.841732    21A     -0.809456
      22A     -0.786835    23A     -0.715855    24A     -0.678396
      25A     -0.653568    26A     -0.637932    27A     -0.615091
      28A     -0.602569    29A     -0.589159    30A     -0.583664
      31A     -0.579110    32A     -0.521244    33A     -0.512407
      34A     -0.503201    35A     -0.490070    36A     -0.482674
      37A     -0.477528    38A     -0.370120    39A     -0.339417
      40A     -0.338073    41A     -0.299337

  @DF-RHF Final Energy:  -460.37126704459541

   => Energetics <=

    Nuclear Repulsion Energy =            598.4538759293316161
    One-Electron Energy =               -1808.5597225736653400
    Two-Electron Energy =                 749.7345795997382538
    Total Energy =                       -460.3712670445954700
  Basis Set: (AUG-CC-PVTZ AUX)
    Blend: AUG-CC-PVTZ-RI
    Molecular point group: c1

    Geometry (in Angstrom), charge = 0, multiplicity = 1:

       Center              X                  Y                   Z               Mass
    ------------   -----------------  -----------------  -----------------  -----------------
         C            0.738878984423     0.008872532431     0.021633703410    12.000000000000
         C           -0.738879015577     0.008871532431     0.021614703410    12.000000000000
         C            1.453676984423     1.126722532431    -0.436767296590    12.000000000000
         C           -1.453682015577     1.126721532431     0.480010703410    12.000000000000
         C            1.453673184423    -1.222810267569     0.202434803410    12.000000000000
         C           -1.453667015577    -1.108992467569    -0.436759296590    12.000000000000
         C            2.848717984423     1.127122532431    -0.434386296590    12.000000000000
         C           -2.848724015577     1.127120532431     0.477613703410    12.000000000000
         C            2.848713984423    -1.109391467569     0.477628703410    12.000000000000
         C           -2.848709015577    -1.109393467569    -0.434399296590    12.000000000000
         C            3.550742984423     0.008857532431     0.021604703410    12.000000000000
         C           -3.550743015577     0.008854532431     0.021616703410    12.000000000000
         H            0.909379984423     1.987520532431    -0.820062296590     1.007825032230
         H           -0.909390015577     1.987517532431     0.863317703410     1.007825032230
         H            0.909368984423    -1.969766467569     0.863340703410     1.007825032230
         H           -0.909358015577    -1.969768467569    -0.820089296590     1.007825032230
         H            3.389048984423     1.997677532431    -0.799346296590     1.007825032230
         H           -3.389059015577     1.997671532431     0.842577703410     1.007825032230
         H            3.389041984423    -1.979956467569     0.842569703410     1.007825032230
         H           -3.389033015577    -1.979959467569    -0.799345296590     1.007825032230
         H            4.638080984423     0.008851532431     0.021598703410     1.007825032230
         H           -4.638081015577     0.008851532431     0.021600703410     1.007825032230

  Basis Set: AUG-CC-PVTZ
    Blend: AUG-CC-PVTZ
  Basis Set: (AUG-CC-PVTZ AUX)
    Blend: AUG-CC-PVTZ-JKFIT
	 Reference Energy          =    -460.3712670445954132 [Eh]
	 Singles Energy            =      -0.0000000000000000 [Eh]
	 Same-Spin Energy          =      -0.5228729244640987 [Eh]
	 Opposite-Spin Energy      =      -1.6277893747757322 [Eh]
	 Correlation Energy        =      -2.1506622992398308 [Eh]
	 Total Energy              =    -462.5219293438352679 [Eh]

	 ================> DF-SCS-MP2 Energies <==================
	-----------------------------------------------------------
	 SCS Same-Spin Scale       =       0.3333333333333333 [-]
	 SCS Opposite-Spin Scale   =       1.2000000000000000 [-]
	 SCS Same-Spin Energy      =      -0.1742909748213662 [Eh]
	 SCS Opposite-Spin Energy  =      -1.9533472497308786 [Eh]
	 SCS Correlation Energy    =      -2.1276382245522449 [Eh]
	 SCS Total Energy          =    -462.4989052691476559 [Eh]
	-----------------------------------------------------------

  Dipole Moment: [D]
     X:     0.1233      Y:     0.2080      Z:     0.0831     Total:     0.2557

*** Psi4 exiting successfully. Buy a developer a beer!
