                               Psi4 1.4a2.dev612

  ==> Input File <==

--------------------------------------------------------------------------
#psi4
#
memory 32 gb

molecule  {
0 1
  C        0.7388790     0.0000080     0.0000160
  C       -0.7388790     0.0000070    -0.0000030
  C        1.4536770     1.1178580    -0.4583850
  C       -1.4536820     1.1178570     0.4583930
  C        1.4536732    -1.2127048     0.2270787
  C       -1.4536670    -1.1178570    -0.4583770
  C        2.8487180     1.1182580    -0.4560040
  C       -2.8487240     1.1182560     0.4559960
  C        2.8487140    -1.1182560     0.4560110
  C       -2.8487090    -1.1182580    -0.4560170
  C        3.5507430    -0.0000070    -0.0000130
  C       -3.5507430    -0.0000100    -0.0000010
  H        0.9093800     1.9786560    -0.8416800
  H       -0.9093900     1.9786530     0.8417000
  H        0.9093690    -1.9786310     0.8417230
  H       -0.9093580    -1.9786330    -0.8417070
  H        3.3890490     1.9888130    -0.8209640
  H       -3.3890590     1.9888070     0.8209600
  H        3.3890420    -1.9888210     0.8209520
  H       -3.3890330    -1.9888240    -0.8209630
  H        4.6380810    -0.0000130    -0.0000190
  H       -4.6380810    -0.0000130    -0.0000170
units angstrom
no_reorient  #important for SAPT in psi4, default
symmetry c1  #important for SAPT in psi4, default
}

set PROPERTIES_ORIGIN ["COM"]
properties('MP2/aug-cc-pvtz', properties = ['dipole'])
--------------------------------------------------------------------------

    Molecular point group: c1
  Charge       = 0
  Multiplicity = 1
  Basis Set: AUG-CC-PVTZ
    Blend: AUG-CC-PVTZ
  Basis Set: (AUG-CC-PVTZ AUX)
    Blend: AUG-CC-PVTZ-JKFIT

    Orbital Energies [Eh]
    ---------------------

    Doubly Occupied:

       1A    -11.252939     2A    -11.247186     3A    -11.244611
       4A    -11.242465     5A    -11.241653     6A    -11.239023
       7A    -11.238634     8A    -11.237039     9A    -11.236567
      10A    -11.236508    11A    -11.236206    12A    -11.236178
      13A     -1.168707    14A     -1.139599    15A     -1.054032
      16A     -1.018641    17A     -1.009847    18A     -0.981168
      19A     -0.851247    20A     -0.841865    21A     -0.809959
      22A     -0.787556    23A     -0.716262    24A     -0.679012
      25A     -0.653761    26A     -0.638459    27A     -0.615362
      28A     -0.604053    29A     -0.589393    30A     -0.583854
      31A     -0.580738    32A     -0.521322    33A     -0.513075
      34A     -0.503703    35A     -0.490094    36A     -0.483331
      37A     -0.480062    38A     -0.369700    39A     -0.339446
      40A     -0.337984    41A     -0.300053

  @DF-RHF Final Energy:  -460.38021386279672

   => Energetics <=

    Nuclear Repulsion Energy =            598.7374511478273007
    One-Electron Energy =               -1809.1327426860045762
    Two-Electron Energy =                 750.0150776753806667
    Total Energy =                       -460.3802138627967224
  Basis Set: (AUG-CC-PVTZ AUX)
    Blend: AUG-CC-PVTZ-RI
    Molecular point group: c1

    Geometry (in Angstrom), charge = 0, multiplicity = 1:

       Center              X                  Y                   Z               Mass
    ------------   -----------------  -----------------  -----------------  -----------------
         C            0.738878984423     0.007395101324     0.018030734147    12.000000000000
         C           -0.738879015577     0.007394101324     0.018011734147    12.000000000000
         C            1.453676984423     1.125245101324    -0.440370265853    12.000000000000
         C           -1.453682015577     1.125244101324     0.476407734147    12.000000000000
         C            1.453673184423    -1.205317698676     0.245093434147    12.000000000000
         C           -1.453667015577    -1.110469898676    -0.440362265853    12.000000000000
         C            2.848717984423     1.125645101324    -0.437989265853    12.000000000000
         C           -2.848724015577     1.125643101324     0.474010734147    12.000000000000
         C            2.848713984423    -1.110868898676     0.474025734147    12.000000000000
         C           -2.848709015577    -1.110870898676    -0.438002265853    12.000000000000
         C            3.550742984423     0.007380101324     0.018001734147    12.000000000000
         C           -3.550743015577     0.007377101324     0.018013734147    12.000000000000
         H            0.909379984423     1.986043101324    -0.823665265853     1.007825032230
         H           -0.909390015577     1.986040101324     0.859714734147     1.007825032230
         H            0.909368984423    -1.971243898676     0.859737734147     1.007825032230
         H           -0.909358015577    -1.971245898676    -0.823692265853     1.007825032230
         H            3.389048984423     1.996200101324    -0.802949265853     1.007825032230
         H           -3.389059015577     1.996194101324     0.838974734147     1.007825032230
         H            3.389041984423    -1.981433898676     0.838966734147     1.007825032230
         H           -3.389033015577    -1.981436898676    -0.802948265853     1.007825032230
         H            4.638080984423     0.007374101324     0.017995734147     1.007825032230
         H           -4.638081015577     0.007374101324     0.017997734147     1.007825032230

  Basis Set: AUG-CC-PVTZ
    Blend: AUG-CC-PVTZ
  Basis Set: (AUG-CC-PVTZ AUX)
    Blend: AUG-CC-PVTZ-JKFIT
	 Reference Energy          =    -460.3802138627967224 [Eh]
	 Singles Energy            =      -0.0000000000000000 [Eh]
	 Same-Spin Energy          =      -0.5224436171924979 [Eh]
	 Opposite-Spin Energy      =      -1.6264776756115733 [Eh]
	 Correlation Energy        =      -2.1489212928040713 [Eh]
	 Total Energy              =    -462.5291351556007839 [Eh]

	 ================> DF-SCS-MP2 Energies <==================
	-----------------------------------------------------------
	 SCS Same-Spin Scale       =       0.3333333333333333 [-]
	 SCS Opposite-Spin Scale   =       1.2000000000000000 [-]
	 SCS Same-Spin Energy      =      -0.1741478723974993 [Eh]
	 SCS Opposite-Spin Energy  =      -1.9517732107338879 [Eh]
	 SCS Correlation Energy    =      -2.1259210831313871 [Eh]
	 SCS Total Energy          =    -462.5061349459281246 [Eh]
	-----------------------------------------------------------

  Dipole Moment: [D]
     X:     0.0952      Y:     0.1540      Z:     0.0755     Total:     0.1962

*** Psi4 exiting successfully. Buy a developer a beer!
