                               Psi4 1.4a2.dev612

  ==> Input File <==

--------------------------------------------------------------------------
#psi4
#
memory 32 gb

molecule  {
0 1
  C        0.7388790     0.0000080     0.0000160
  C       -0.7388790     0.0000070    -0.0000030
  C        1.4536770     1.1178580    -0.4583850
  C       -1.4536820     1.1178570     0.4583930
  C        1.4536731    -1.1747649     0.3196020
  C       -1.4536670    -1.1178570    -0.4583770
  C        2.8487180     1.1182580    -0.4560040
  C       -2.8487240     1.1182560     0.4559960
  C        2.8487140    -1.1182560     0.4560110
  C       -2.8487090    -1.1182580    -0.4560170
  C        3.5507430    -0.0000070    -0.0000130
  C       -3.5507430    -0.0000100    -0.0000010
  H        0.9093800     1.9786560    -0.8416800
  H       -0.9093900     1.9786530     0.8417000
  H        0.9093690    -1.9786310     0.8417230
  H       -0.9093580    -1.9786330    -0.8417070
  H        3.3890490     1.9888130    -0.8209640
  H       -3.3890590     1.9888070     0.8209600
  H        3.3890420    -1.9888210     0.8209520
  H       -3.3890330    -1.9888240    -0.8209630
  H        4.6380810    -0.0000130    -0.0000190
  H       -4.6380810    -0.0000130    -0.0000170
units angstrom
no_reorient  #important for SAPT in psi4, default
symmetry c1  #important for SAPT in psi4, default
}

set PROPERTIES_ORIGIN ["COM"]
properties('MP2/aug-cc-pvtz', properties = ['dipole'])
--------------------------------------------------------------------------

    Molecular point group: c1
  Charge       = 0
  Multiplicity = 1
  Basis Set: AUG-CC-PVTZ
    Blend: AUG-CC-PVTZ
  Basis Set: (AUG-CC-PVTZ AUX)
    Blend: AUG-CC-PVTZ-JKFIT

    Orbital Energies [Eh]
    ---------------------

    Doubly Occupied:

       1A    -11.249467     2A    -11.247095     3A    -11.241162
       4A    -11.240293     5A    -11.238994     6A    -11.238695
       7A    -11.238611     8A    -11.236815     9A    -11.236722
      10A    -11.236533    11A    -11.236420    12A    -11.236212
      13A     -1.169261    14A     -1.140109    15A     -1.054008
      16A     -1.019172    17A     -1.010773    18A     -0.981730
      19A     -0.851771    20A     -0.841979    21A     -0.810861
      22A     -0.788708    23A     -0.717054    24A     -0.680235
      25A     -0.654081    26A     -0.639208    27A     -0.615936
      28A     -0.606571    29A     -0.590103    30A     -0.584163
      31A     -0.582737    32A     -0.521435    33A     -0.514257
      34A     -0.504311    35A     -0.490294    36A     -0.484183
      37A     -0.483329    38A     -0.368632    39A     -0.339520
      40A     -0.337859    41A     -0.301540

  @DF-RHF Final Energy:  -460.39312119742101

   => Energetics <=

    Nuclear Repulsion Energy =            599.1488935348935456
    One-Electron Energy =               -1809.9623539121578233
    Two-Electron Energy =                 750.4203391798431539
    Total Energy =                       -460.3931211974210100
  Basis Set: (AUG-CC-PVTZ AUX)
    Blend: AUG-CC-PVTZ-RI
    Molecular point group: c1

    Geometry (in Angstrom), charge = 0, multiplicity = 1:

       Center              X                  Y                   Z               Mass
    ------------   -----------------  -----------------  -----------------  -----------------
         C            0.738878992212     0.004440246897     0.010824787833    12.000000000000
         C           -0.738879007788     0.004439246897     0.010805787833    12.000000000000
         C            1.453676992212     1.122290246897    -0.447576212167    12.000000000000
         C           -1.453682007788     1.122289246897     0.469201787833    12.000000000000
         C            1.453673092212    -1.170332653103     0.330410787833    12.000000000000
         C           -1.453667007788    -1.113424753103    -0.447568212167    12.000000000000
         C            2.848717992212     1.122690246897    -0.445195212167    12.000000000000
         C           -2.848724007788     1.122688246897     0.466804787833    12.000000000000
         C            2.848713992212    -1.113823753103     0.466819787833    12.000000000000
         C           -2.848709007788    -1.113825753103    -0.445208212167    12.000000000000
         C            3.550742992212     0.004425246897     0.010795787833    12.000000000000
         C           -3.550743007788     0.004422246897     0.010807787833    12.000000000000
         H            0.909379992212     1.983088246897    -0.830871212167     1.007825032230
         H           -0.909390007788     1.983085246897     0.852508787833     1.007825032230
         H            0.909368992212    -1.974198753103     0.852531787833     1.007825032230
         H           -0.909358007788    -1.974200753103    -0.830898212167     1.007825032230
         H            3.389048992212     1.993245246897    -0.810155212167     1.007825032230
         H           -3.389059007788     1.993239246897     0.831768787833     1.007825032230
         H            3.389041992212    -1.984388753103     0.831760787833     1.007825032230
         H           -3.389033007788    -1.984391753103    -0.810154212167     1.007825032230
         H            4.638080992212     0.004419246897     0.010789787833     1.007825032230
         H           -4.638081007788     0.004419246897     0.010791787833     1.007825032230

  Basis Set: AUG-CC-PVTZ
    Blend: AUG-CC-PVTZ
  Basis Set: (AUG-CC-PVTZ AUX)
    Blend: AUG-CC-PVTZ-JKFIT
	 Reference Energy          =    -460.3931211974210100 [Eh]
	 Singles Energy            =      -0.0000000000000000 [Eh]
	 Same-Spin Energy          =      -0.5217654047243941 [Eh]
	 Opposite-Spin Energy      =      -1.6244552095986351 [Eh]
	 Correlation Energy        =      -2.1462206143230294 [Eh]
	 Total Energy              =    -462.5393418117440660 [Eh]

	 ================> DF-SCS-MP2 Energies <==================
	-----------------------------------------------------------
	 SCS Same-Spin Scale       =       0.3333333333333333 [-]
	 SCS Opposite-Spin Scale   =       1.2000000000000000 [-]
	 SCS Same-Spin Energy      =      -0.1739218015747980 [Eh]
	 SCS Opposite-Spin Energy  =      -1.9493462515183619 [Eh]
	 SCS Correlation Energy    =      -2.1232680530931600 [Eh]
	 SCS Total Energy          =    -462.5163892505141803 [Eh]
	-----------------------------------------------------------

  Dipole Moment: [D]
     X:     0.0477      Y:     0.0683      Z:     0.0532     Total:     0.0988

*** Psi4 exiting successfully. Buy a developer a beer!
