                               Psi4 1.4a2.dev612

  ==> Input File <==

--------------------------------------------------------------------------
#psi4
#
memory 32 gb

molecule  {
0 1
  C        0.7388790     0.0000080     0.0000160
  C       -0.7388790     0.0000070    -0.0000030
  C        1.4536770     1.1178580    -0.4583850
  C       -1.4536820     1.1178570     0.4583930
  C        1.4536730    -1.1178550     0.4583870
  C       -1.4536670    -1.1178570    -0.4583770
  C        2.8487180     1.1182580    -0.4560040
  C       -2.8487240     1.1182560     0.4559960
  C        2.8487140    -1.1182560     0.4560110
  C       -2.8487090    -1.1182580    -0.4560170
  C        3.5507430    -0.0000070    -0.0000130
  C       -3.5507430    -0.0000100    -0.0000010
  H        0.9093800     1.9786560    -0.8416800
  H       -0.9093900     1.9786530     0.8417000
  H        0.9093690    -1.9786310     0.8417230
  H       -0.9093580    -1.9786330    -0.8417070
  H        3.3890490     1.9888130    -0.8209640
  H       -3.3890590     1.9888070     0.8209600
  H        3.3890420    -1.9888210     0.8209520
  H       -3.3890330    -1.9888240    -0.8209630
  H        4.6380810    -0.0000130    -0.0000190
  H       -4.6380810    -0.0000130    -0.0000170
units angstrom
no_reorient  #important for SAPT in psi4, default
symmetry c1  #important for SAPT in psi4, default
}

set PROPERTIES_ORIGIN ["COM"]
properties('MP2/aug-cc-pvtz', properties = ['dipole'])
--------------------------------------------------------------------------

    Molecular point group: c1
  Charge       = 0
  Multiplicity = 1
  Basis Set: AUG-CC-PVTZ
    Blend: AUG-CC-PVTZ
  Basis Set: (AUG-CC-PVTZ AUX)
    Blend: AUG-CC-PVTZ-JKFIT

    Orbital Energies [Eh]
    ---------------------

    Doubly Occupied:

       1A    -11.247491     2A    -11.246732     3A    -11.239083
       4A    -11.239083     5A    -11.238817     6A    -11.238817
       7A    -11.236834     8A    -11.236833     9A    -11.236713
      10A    -11.236708    11A    -11.236335    12A    -11.236334
      13A     -1.169541    14A     -1.140400    15A     -1.053955
      16A     -1.019427    17A     -1.011346    18A     -0.982067
      19A     -0.852105    20A     -0.841659    21A     -0.811895
      22A     -0.789427    23A     -0.717641    24A     -0.681365
      25A     -0.654247    26A     -0.639180    27A     -0.616523
      28A     -0.609063    29A     -0.590811    30A     -0.584462
      31A     -0.583361    32A     -0.521654    33A     -0.515234
      34A     -0.504105    35A     -0.490959    36A     -0.484868
      37A     -0.484510    38A     -0.366291    39A     -0.339562
      40A     -0.337680    41A     -0.303814

  @DF-RHF Final Energy:  -460.40038747249730

   => Energetics <=

    Nuclear Repulsion Energy =            599.3496730495166958
    One-Electron Energy =               -1810.3662584666078601
    Two-Electron Energy =                 750.6161979445938641
    Total Energy =                       -460.4003874724973002
  Basis Set: (AUG-CC-PVTZ AUX)
    Blend: AUG-CC-PVTZ-RI
    Molecular point group: c1

    Geometry (in Angstrom), charge = 0, multiplicity = 1:

       Center              X                  Y                   Z               Mass
    ------------   -----------------  -----------------  -----------------  -----------------
         C            0.738879000000     0.000007961363     0.000015864467    12.000000000000
         C           -0.738879000000     0.000006961363    -0.000003135533    12.000000000000
         C            1.453677000000     1.117857961363    -0.458385135533    12.000000000000
         C           -1.453682000000     1.117856961363     0.458392864467    12.000000000000
         C            1.453673000000    -1.117855038637     0.458386864467    12.000000000000
         C           -1.453667000000    -1.117857038637    -0.458377135533    12.000000000000
         C            2.848718000000     1.118257961363    -0.456004135533    12.000000000000
         C           -2.848724000000     1.118255961363     0.455995864467    12.000000000000
         C            2.848714000000    -1.118256038637     0.456010864467    12.000000000000
         C           -2.848709000000    -1.118258038637    -0.456017135533    12.000000000000
         C            3.550743000000    -0.000007038637    -0.000013135533    12.000000000000
         C           -3.550743000000    -0.000010038637    -0.000001135533    12.000000000000
         H            0.909380000000     1.978655961363    -0.841680135533     1.007825032230
         H           -0.909390000000     1.978652961363     0.841699864467     1.007825032230
         H            0.909369000000    -1.978631038637     0.841722864467     1.007825032230
         H           -0.909358000000    -1.978633038637    -0.841707135533     1.007825032230
         H            3.389049000000     1.988812961363    -0.820964135533     1.007825032230
         H           -3.389059000000     1.988806961363     0.820959864467     1.007825032230
         H            3.389042000000    -1.988821038637     0.820951864467     1.007825032230
         H           -3.389033000000    -1.988824038637    -0.820963135533     1.007825032230
         H            4.638081000000    -0.000013038637    -0.000019135533     1.007825032230
         H           -4.638081000000    -0.000013038637    -0.000017135533     1.007825032230

  Basis Set: AUG-CC-PVTZ
    Blend: AUG-CC-PVTZ
  Basis Set: (AUG-CC-PVTZ AUX)
    Blend: AUG-CC-PVTZ-JKFIT
	 Reference Energy          =    -460.4003874724973002 [Eh]
	 Singles Energy            =      -0.0000000000000000 [Eh]
	 Same-Spin Energy          =      -0.5212895870751016 [Eh]
	 Opposite-Spin Energy      =      -1.6232321070998679 [Eh]
	 Correlation Energy        =      -2.1445216941749696 [Eh]
	 Total Energy              =    -462.5449091666722552 [Eh]

	 ================> DF-SCS-MP2 Energies <==================
	-----------------------------------------------------------
	 SCS Same-Spin Scale       =       0.3333333333333333 [-]
	 SCS Opposite-Spin Scale   =       1.2000000000000000 [-]
	 SCS Same-Spin Energy      =      -0.1737631956917005 [Eh]
	 SCS Opposite-Spin Energy  =      -1.9478785285198414 [Eh]
	 SCS Correlation Energy    =      -2.1216417242115422 [Eh]
	 SCS Total Energy          =    -462.5220291967088428 [Eh]
	-----------------------------------------------------------

  Dipole Moment: [D]
     X:    -0.0000      Y:     0.0000      Z:    -0.0000     Total:     0.0000

*** Psi4 exiting successfully. Buy a developer a beer!
