                               Psi4 1.4a2.dev612

  ==> Input File <==

--------------------------------------------------------------------------
#psi4
#
memory 32 gb

molecule  {
0 1
  C        0.7388790     0.0000080     0.0000160
  C       -0.7388790     0.0000070    -0.0000030
  C        1.4536770     1.1178580    -0.4583850
  C       -1.4536820     1.1178570     0.4583930
  C        1.4536731    -1.1557949     0.3658637
  C       -1.4536670    -1.1178570    -0.4583770
  C        2.8487180     1.1182580    -0.4560040
  C       -2.8487240     1.1182560     0.4559960
  C        2.8487140    -1.1182560     0.4560110
  C       -2.8487090    -1.1182580    -0.4560170
  C        3.5507430    -0.0000070    -0.0000130
  C       -3.5507430    -0.0000100    -0.0000010
  H        0.9093800     1.9786560    -0.8416800
  H       -0.9093900     1.9786530     0.8417000
  H        0.9093690    -1.9786310     0.8417230
  H       -0.9093580    -1.9786330    -0.8417070
  H        3.3890490     1.9888130    -0.8209640
  H       -3.3890590     1.9888070     0.8209600
  H        3.3890420    -1.9888210     0.8209520
  H       -3.3890330    -1.9888240    -0.8209630
  H        4.6380810    -0.0000130    -0.0000190
  H       -4.6380810    -0.0000130    -0.0000170
units angstrom
no_reorient  #important for SAPT in psi4, default
symmetry c1  #important for SAPT in psi4, default
}

set PROPERTIES_ORIGIN ["COM"]
properties('MP2/aug-cc-pvtz', properties = ['dipole'])
--------------------------------------------------------------------------

    Molecular point group: c1
  Charge       = 0
  Multiplicity = 1
  Basis Set: AUG-CC-PVTZ
    Blend: AUG-CC-PVTZ
  Basis Set: (AUG-CC-PVTZ AUX)
    Blend: AUG-CC-PVTZ-JKFIT

    Orbital Energies [Eh]
    ---------------------

    Doubly Occupied:

       1A    -11.248346     2A    -11.247017     3A    -11.240034
       4A    -11.239589     5A    -11.239007     6A    -11.238730
       7A    -11.237602     8A    -11.236784     9A    -11.236771
      10A    -11.236572    11A    -11.236446    12A    -11.236232
      13A     -1.169436    14A     -1.140272    15A     -1.053996
      16A     -1.019346    17A     -1.011061    18A     -0.981903
      19A     -0.851951    20A     -0.841944    21A     -0.811252
      22A     -0.789098    23A     -0.717363    24A     -0.680744
      25A     -0.654184    26A     -0.639370    27A     -0.616190
      28A     -0.607574    29A     -0.590458    30A     -0.584309
      31A     -0.583167    32A     -0.521495    33A     -0.514713
      34A     -0.504394    35A     -0.490482    36A     -0.484433
      37A     -0.484194    38A     -0.367960    39A     -0.339546
      40A     -0.337807    41A     -0.302298

  @DF-RHF Final Energy:  -460.39712962695825

   => Energetics <=

    Nuclear Repulsion Energy =            599.2726857948257475
    One-Electron Energy =               -1810.2114935738250097
    Two-Electron Energy =                 750.5416781520410723
    Total Energy =                       -460.3971296269581899
  Basis Set: (AUG-CC-PVTZ AUX)
    Blend: AUG-CC-PVTZ-RI
    Molecular point group: c1

    Geometry (in Angstrom), charge = 0, multiplicity = 1:

       Center              X                  Y                   Z               Mass
    ------------   -----------------  -----------------  -----------------  -----------------
         C            0.738878992212     0.002962815790     0.007221810782    12.000000000000
         C           -0.738879007788     0.002961815790     0.007202810782    12.000000000000
         C            1.453676992212     1.120812815790    -0.451179189218    12.000000000000
         C           -1.453682007788     1.120811815790     0.465598810782    12.000000000000
         C            1.453673092212    -1.152840084210     0.373069510782    12.000000000000
         C           -1.453667007788    -1.114902184210    -0.451171189218    12.000000000000
         C            2.848717992212     1.121212815790    -0.448798189218    12.000000000000
         C           -2.848724007788     1.121210815790     0.463201810782    12.000000000000
         C            2.848713992212    -1.115301184210     0.463216810782    12.000000000000
         C           -2.848709007788    -1.115303184210    -0.448811189218    12.000000000000
         C            3.550742992212     0.002947815790     0.007192810782    12.000000000000
         C           -3.550743007788     0.002944815790     0.007204810782    12.000000000000
         H            0.909379992212     1.981610815790    -0.834474189218     1.007825032230
         H           -0.909390007788     1.981607815790     0.848905810782     1.007825032230
         H            0.909368992212    -1.975676184210     0.848928810782     1.007825032230
         H           -0.909358007788    -1.975678184210    -0.834501189218     1.007825032230
         H            3.389048992212     1.991767815790    -0.813758189218     1.007825032230
         H           -3.389059007788     1.991761815790     0.828165810782     1.007825032230
         H            3.389041992212    -1.985866184210     0.828157810782     1.007825032230
         H           -3.389033007788    -1.985869184210    -0.813757189218     1.007825032230
         H            4.638080992212     0.002941815790     0.007186810782     1.007825032230
         H           -4.638081007788     0.002941815790     0.007188810782     1.007825032230

  Basis Set: AUG-CC-PVTZ
    Blend: AUG-CC-PVTZ
  Basis Set: (AUG-CC-PVTZ AUX)
    Blend: AUG-CC-PVTZ-JKFIT
	 Reference Energy          =    -460.3971296269582467 [Eh]
	 Singles Energy            =      -0.0000000000000000 [Eh]
	 Same-Spin Energy          =      -0.5215299427495876 [Eh]
	 Opposite-Spin Energy      =      -1.6237881893990074 [Eh]
	 Correlation Energy        =      -2.1453181321485948 [Eh]
	 Total Energy              =    -462.5424477591068353 [Eh]

	 ================> DF-SCS-MP2 Energies <==================
	-----------------------------------------------------------
	 SCS Same-Spin Scale       =       0.3333333333333333 [-]
	 SCS Opposite-Spin Scale   =       1.2000000000000000 [-]
	 SCS Same-Spin Energy      =      -0.1738433142498625 [Eh]
	 SCS Opposite-Spin Energy  =      -1.9485458272788088 [Eh]
	 SCS Correlation Energy    =      -2.1223891415286715 [Eh]
	 SCS Total Energy          =    -462.5195187684869325 [Eh]
	-----------------------------------------------------------

  Dipole Moment: [D]
     X:     0.0286      Y:     0.0373      Z:     0.0384     Total:     0.0607

*** Psi4 exiting successfully. Buy a developer a beer!
