                               Psi4 1.4a2.dev612

  ==> Input File <==

--------------------------------------------------------------------------
#psi4
#
memory 32 gb

molecule  {
0 1
  C        0.7388790     0.0000080     0.0000160
  C       -0.7388790     0.0000070    -0.0000030
  C        1.4536770     1.1178580    -0.4583850
  C       -1.4536820     1.1178570     0.4583930
  C        1.4536730    -1.1178550     0.4583870
  C       -1.4536670    -1.1178570    -0.4583770
  C        2.8487180     1.1182580    -0.4560040
  C       -2.8487240     1.1182560     0.4559960
  C        2.8487140    -1.1182560     0.4560110
  C       -2.8487090    -1.1182580    -0.4560170
  C        3.5507430    -0.0000070    -0.0000130
  C       -3.5507430    -0.0000100    -0.0000010
  H        0.9093800     1.9786560    -0.8416800
  H       -0.9089401     1.9982574     0.7957058
  H        0.9093690    -1.9786310     0.8417230
  H       -0.9093580    -1.9786330    -0.8417070
  H        3.3890490     1.9888130    -0.8209640
  H       -3.3890590     1.9888070     0.8209600
  H        3.3890420    -1.9888210     0.8209520
  H       -3.3890330    -1.9888240    -0.8209630
  H        4.6380810    -0.0000130    -0.0000190
  H       -4.6380810    -0.0000130    -0.0000170
units angstrom
no_reorient  #important for SAPT in psi4, default
symmetry c1  #important for SAPT in psi4, default
}

set PROPERTIES_ORIGIN ["COM"]
properties('MP2/aug-cc-pvtz', properties = ['dipole'])
--------------------------------------------------------------------------

    Molecular point group: c1
  Charge       = 0
  Multiplicity = 1
  Basis Set: AUG-CC-PVTZ
    Blend: AUG-CC-PVTZ
  Basis Set: (AUG-CC-PVTZ AUX)
    Blend: AUG-CC-PVTZ-JKFIT

    Orbital Energies [Eh]
    ---------------------

    Doubly Occupied:

       1A    -11.247543     2A    -11.246783     3A    -11.239118
       4A    -11.239082     5A    -11.238856     6A    -11.238816
       7A    -11.236904     8A    -11.236857     9A    -11.236766
      10A    -11.236735    11A    -11.236357    12A    -11.236343
      13A     -1.169568    14A     -1.140412    15A     -1.053978
      16A     -1.019465    17A     -1.011344    18A     -0.982075
      19A     -0.852131    20A     -0.841755    21A     -0.811824
      22A     -0.789436    23A     -0.717718    24A     -0.681285
      25A     -0.654383    26A     -0.639206    27A     -0.616455
      28A     -0.609033    29A     -0.590954    30A     -0.584529
      31A     -0.583165    32A     -0.521607    33A     -0.515740
      34A     -0.503841    35A     -0.491296    36A     -0.484617
      37A     -0.484485    38A     -0.366333    39A     -0.339443
      40A     -0.337815    41A     -0.303772

  @DF-RHF Final Energy:  -460.40026960431953

   => Energetics <=

    Nuclear Repulsion Energy =            599.3534231689800436
    One-Electron Energy =               -1810.3717376406045787
    Two-Electron Energy =                 750.6180448673050023
    Total Energy =                       -460.4002696043195328
  Basis Set: (AUG-CC-PVTZ AUX)
    Blend: AUG-CC-PVTZ-RI
    Molecular point group: c1

    Geometry (in Angstrom), charge = 0, multiplicity = 1:

       Center              X                  Y                   Z               Mass
    ------------   -----------------  -----------------  -----------------  -----------------
         C            0.738876057206    -0.000120270915     0.000316712290    12.000000000000
         C           -0.738881942794    -0.000121270915     0.000297712290    12.000000000000
         C            1.453674057206     1.117729729085    -0.458084287710    12.000000000000
         C           -1.453684942794     1.117728729085     0.458693712290    12.000000000000
         C            1.453670057206    -1.117983270915     0.458687712290    12.000000000000
         C           -1.453669942794    -1.117985270915    -0.458076287710    12.000000000000
         C            2.848715057206     1.118129729085    -0.455703287710    12.000000000000
         C           -2.848726942794     1.118127729085     0.456296712290    12.000000000000
         C            2.848711057206    -1.118384270915     0.456311712290    12.000000000000
         C           -2.848711942794    -1.118386270915    -0.455716287710    12.000000000000
         C            3.550740057206    -0.000135270915     0.000287712290    12.000000000000
         C           -3.550745942794    -0.000138270915     0.000299712290    12.000000000000
         H            0.909377057206     1.978527729085    -0.841379287710     1.007825032230
         H           -0.908943042794     1.998129129085     0.796006512290     1.007825032230
         H            0.909366057206    -1.978759270915     0.842023712290     1.007825032230
         H           -0.909360942794    -1.978761270915    -0.841406287710     1.007825032230
         H            3.389046057206     1.988684729085    -0.820663287710     1.007825032230
         H           -3.389061942794     1.988678729085     0.821260712290     1.007825032230
         H            3.389039057206    -1.988949270915     0.821252712290     1.007825032230
         H           -3.389035942794    -1.988952270915    -0.820662287710     1.007825032230
         H            4.638078057206    -0.000141270915     0.000281712290     1.007825032230
         H           -4.638083942794    -0.000141270915     0.000283712290     1.007825032230

  Basis Set: AUG-CC-PVTZ
    Blend: AUG-CC-PVTZ
  Basis Set: (AUG-CC-PVTZ AUX)
    Blend: AUG-CC-PVTZ-JKFIT
	 Reference Energy          =    -460.4002696043195328 [Eh]
	 Singles Energy            =      -0.0000000000000000 [Eh]
	 Same-Spin Energy          =      -0.5212955682373970 [Eh]
	 Opposite-Spin Energy      =      -1.6232501868074876 [Eh]
	 Correlation Energy        =      -2.1445457550448843 [Eh]
	 Total Energy              =    -462.5448153593644065 [Eh]

	 ================> DF-SCS-MP2 Energies <==================
	-----------------------------------------------------------
	 SCS Same-Spin Scale       =       0.3333333333333333 [-]
	 SCS Opposite-Spin Scale   =       1.2000000000000000 [-]
	 SCS Same-Spin Energy      =      -0.1737651894124657 [Eh]
	 SCS Opposite-Spin Energy  =      -1.9479002241689849 [Eh]
	 SCS Correlation Energy    =      -2.1216654135814506 [Eh]
	 SCS Total Energy          =    -462.5219350179010007 [Eh]
	-----------------------------------------------------------

  Dipole Moment: [D]
     X:     0.0010      Y:     0.0092      Z:    -0.0266     Total:     0.0282

*** Psi4 exiting successfully. Buy a developer a beer!
