                               Psi4 1.4a2.dev612

  ==> Input File <==

--------------------------------------------------------------------------
#psi4
#
memory 32 gb

molecule  {
0 1
  C        0.7388790     0.0000080     0.0000160
  C       -0.7388790     0.0000070    -0.0000030
  C        1.4536770     1.1178580    -0.4583850
  C       -1.4536820     1.1178570     0.4583930
  C        1.4536731    -1.1937348     0.2733404
  C       -1.4536670    -1.1178570    -0.4583770
  C        2.8487180     1.1182580    -0.4560040
  C       -2.8487240     1.1182560     0.4559960
  C        2.8487140    -1.1182560     0.4560110
  C       -2.8487090    -1.1182580    -0.4560170
  C        3.5507430    -0.0000070    -0.0000130
  C       -3.5507430    -0.0000100    -0.0000010
  H        0.9093800     1.9786560    -0.8416800
  H       -0.9093900     1.9786530     0.8417000
  H        0.9093690    -1.9786310     0.8417230
  H       -0.9093580    -1.9786330    -0.8417070
  H        3.3890490     1.9888130    -0.8209640
  H       -3.3890590     1.9888070     0.8209600
  H        3.3890420    -1.9888210     0.8209520
  H       -3.3890330    -1.9888240    -0.8209630
  H        4.6380810    -0.0000130    -0.0000190
  H       -4.6380810    -0.0000130    -0.0000170
units angstrom
no_reorient  #important for SAPT in psi4, default
symmetry c1  #important for SAPT in psi4, default
}

set PROPERTIES_ORIGIN ["COM"]
properties('MP2/aug-cc-pvtz', properties = ['dipole'])
--------------------------------------------------------------------------

    Molecular point group: c1
  Charge       = 0
  Multiplicity = 1
  Basis Set: AUG-CC-PVTZ
    Blend: AUG-CC-PVTZ
  Basis Set: (AUG-CC-PVTZ AUX)
    Blend: AUG-CC-PVTZ-JKFIT

    Orbital Energies [Eh]
    ---------------------

    Doubly Occupied:

       1A    -11.251012     2A    -11.247145     3A    -11.242699
       4A    -11.241246     5A    -11.239976     6A    -11.238999
       7A    -11.238663     8A    -11.236904     9A    -11.236626
      10A    -11.236529    11A    -11.236327    12A    -11.236206
      13A     -1.169015    14A     -1.139883    15A     -1.054018
      16A     -1.018929    17A     -1.010374    18A     -0.981488
      19A     -0.851533    20A     -0.841951    21A     -0.810428
      22A     -0.788188    23A     -0.716674    24A     -0.679642
      25A     -0.653936    26A     -0.638895    27A     -0.615652
      28A     -0.605394    29A     -0.589723    30A     -0.584012
      31A     -0.581950    32A     -0.521382    33A     -0.513700
      34A     -0.504078    35A     -0.490164    36A     -0.483825
      37A     -0.481973    38A     -0.369208    39A     -0.339485
      40A     -0.337915    41A     -0.300790

  @DF-RHF Final Energy:  -460.38749165010046

   => Energetics <=

    Nuclear Repulsion Energy =            598.9698727432415808
    One-Electron Energy =               -1809.6016572192811509
    Two-Electron Energy =                 750.2442928259392829
    Total Energy =                       -460.3874916501004009
  Basis Set: (AUG-CC-PVTZ AUX)
    Blend: AUG-CC-PVTZ-RI
    Molecular point group: c1

    Geometry (in Angstrom), charge = 0, multiplicity = 1:

       Center              X                  Y                   Z               Mass
    ------------   -----------------  -----------------  -----------------  -----------------
         C            0.738878992212     0.005917670217     0.014427757096    12.000000000000
         C           -0.738879007788     0.005916670217     0.014408757096    12.000000000000
         C            1.453676992212     1.123767670217    -0.443973242904    12.000000000000
         C           -1.453682007788     1.123766670217     0.472804757096    12.000000000000
         C            1.453673092212    -1.187825129783     0.287752157096    12.000000000000
         C           -1.453667007788    -1.111947329783    -0.443965242904    12.000000000000
         C            2.848717992212     1.124167670217    -0.441592242904    12.000000000000
         C           -2.848724007788     1.124165670217     0.470407757096    12.000000000000
         C            2.848713992212    -1.112346329783     0.470422757096    12.000000000000
         C           -2.848709007788    -1.112348329783    -0.441605242904    12.000000000000
         C            3.550742992212     0.005902670217     0.014398757096    12.000000000000
         C           -3.550743007788     0.005899670217     0.014410757096    12.000000000000
         H            0.909379992212     1.984565670217    -0.827268242904     1.007825032230
         H           -0.909390007788     1.984562670217     0.856111757096     1.007825032230
         H            0.909368992212    -1.972721329783     0.856134757096     1.007825032230
         H           -0.909358007788    -1.972723329783    -0.827295242904     1.007825032230
         H            3.389048992212     1.994722670217    -0.806552242904     1.007825032230
         H           -3.389059007788     1.994716670217     0.835371757096     1.007825032230
         H            3.389041992212    -1.982911329783     0.835363757096     1.007825032230
         H           -3.389033007788    -1.982914329783    -0.806551242904     1.007825032230
         H            4.638080992212     0.005896670217     0.014392757096     1.007825032230
         H           -4.638081007788     0.005896670217     0.014394757096     1.007825032230

  Basis Set: AUG-CC-PVTZ
    Blend: AUG-CC-PVTZ
  Basis Set: (AUG-CC-PVTZ AUX)
    Blend: AUG-CC-PVTZ-JKFIT
	 Reference Energy          =    -460.3874916501004577 [Eh]
	 Singles Energy            =      -0.0000000000000000 [Eh]
	 Same-Spin Energy          =      -0.5220719569883446 [Eh]
	 Opposite-Spin Energy      =      -1.6253601677126186 [Eh]
	 Correlation Energy        =      -2.1474321247009631 [Eh]
	 Total Energy              =    -462.5349237748014275 [Eh]

	 ================> DF-SCS-MP2 Energies <==================
	-----------------------------------------------------------
	 SCS Same-Spin Scale       =       0.3333333333333333 [-]
	 SCS Opposite-Spin Scale   =       1.2000000000000000 [-]
	 SCS Same-Spin Energy      =      -0.1740239856627815 [Eh]
	 SCS Opposite-Spin Energy  =      -1.9504322012551423 [Eh]
	 SCS Correlation Energy    =      -2.1244561869179237 [Eh]
	 SCS Total Energy          =    -462.5119478370183970 [Eh]
	-----------------------------------------------------------

  Dipole Moment: [D]
     X:     0.0700      Y:     0.1072      Z:     0.0656     Total:     0.1438

*** Psi4 exiting successfully. Buy a developer a beer!
