                               Psi4 1.4a2.dev612

  ==> Input File <==

--------------------------------------------------------------------------
#psi4
#
memory 32 gb

molecule  {
0 1
  C        0.7388790     0.0000080     0.0000160
  C       -0.7388790     0.0000070    -0.0000030
  C        1.4536770     1.1178580    -0.4583850
  C       -1.4536820     1.1178570     0.4583930
  C        1.4536730    -1.1178550     0.4583870
  C       -1.4536670    -1.1178570    -0.4583770
  C        2.8487180     1.1182580    -0.4560040
  C       -2.8487240     1.1182560     0.4559960
  C        2.8487140    -1.1182560     0.4560110
  C       -2.8487090    -1.1182580    -0.4560170
  C        3.5507430    -0.0000070    -0.0000130
  C       -3.5507430    -0.0000100    -0.0000010
  H        0.9093800     1.9786560    -0.8416800
  H       -0.9066904     2.0962794     0.5657349
  H        0.9093690    -1.9786310     0.8417230
  H       -0.9093580    -1.9786330    -0.8417070
  H        3.3890490     1.9888130    -0.8209640
  H       -3.3890590     1.9888070     0.8209600
  H        3.3890420    -1.9888210     0.8209520
  H       -3.3890330    -1.9888240    -0.8209630
  H        4.6380810    -0.0000130    -0.0000190
  H       -4.6380810    -0.0000130    -0.0000170
units angstrom
no_reorient  #important for SAPT in psi4, default
symmetry c1  #important for SAPT in psi4, default
}

set PROPERTIES_ORIGIN ["COM"]
properties('MP2/aug-cc-pvtz', properties = ['dipole'])
--------------------------------------------------------------------------

    Molecular point group: c1
  Charge       = 0
  Multiplicity = 1
  Basis Set: AUG-CC-PVTZ
    Blend: AUG-CC-PVTZ
  Basis Set: (AUG-CC-PVTZ AUX)
    Blend: AUG-CC-PVTZ-JKFIT

    Orbital Energies [Eh]
    ---------------------

    Doubly Occupied:

       1A    -11.248179     2A    -11.247260     3A    -11.240745
       4A    -11.239600     5A    -11.239243     6A    -11.239040
       7A    -11.238968     8A    -11.237174     9A    -11.237069
      10A    -11.236815    11A    -11.236747    12A    -11.236375
      13A     -1.169756    14A     -1.140595    15A     -1.054215
      16A     -1.019351    17A     -1.011101    18A     -0.982081
      19A     -0.852121    20A     -0.841608    21A     -0.810774
      22A     -0.789284    23A     -0.717266    24A     -0.679725
      25A     -0.653929    26A     -0.639465    27A     -0.615329
      28A     -0.609010    29A     -0.590795    30A     -0.584872
      31A     -0.580455    32A     -0.521999    33A     -0.517726
      34A     -0.502281    35A     -0.492973    36A     -0.485076
      37A     -0.480127    38A     -0.366594    39A     -0.338799
      40A     -0.338177    41A     -0.303627

  @DF-RHF Final Energy:  -460.39432177417029

   => Energetics <=

    Nuclear Repulsion Energy =            599.2361044341676006
    One-Electron Energy =               -1810.1281978073441223
    Two-Electron Energy =                 750.4977715990062279
    Total Energy =                       -460.3943217741702938
  Basis Set: (AUG-CC-PVTZ AUX)
    Blend: AUG-CC-PVTZ-RI
    Molecular point group: c1

    Geometry (in Angstrom), charge = 0, multiplicity = 1:

       Center              X                  Y                   Z               Mass
    ------------   -----------------  -----------------  -----------------  -----------------
         C            0.738861341930    -0.000761432306     0.001820950748    12.000000000000
         C           -0.738896658070    -0.000762432306     0.001801950748    12.000000000000
         C            1.453659341930     1.117088567694    -0.456580049252    12.000000000000
         C           -1.453699658070     1.117087567694     0.460197950748    12.000000000000
         C            1.453655341930    -1.118624432306     0.460191950748    12.000000000000
         C           -1.453684658070    -1.118626432306    -0.456572049252    12.000000000000
         C            2.848700341930     1.117488567694    -0.454199049252    12.000000000000
         C           -2.848741658070     1.117486567694     0.457800950748    12.000000000000
         C            2.848696341930    -1.119025432306     0.457815950748    12.000000000000
         C           -2.848726658070    -1.119027432306    -0.454212049252    12.000000000000
         C            3.550725341930    -0.000776432306     0.001791950748    12.000000000000
         C           -3.550760658070    -0.000779432306     0.001803950748    12.000000000000
         H            0.909362341930     1.977886567694    -0.839875049252     1.007825032230
         H           -0.906708058070     2.095509967694     0.567539850748     1.007825032230
         H            0.909351341930    -1.979400432306     0.843527950748     1.007825032230
         H           -0.909375658070    -1.979402432306    -0.839902049252     1.007825032230
         H            3.389031341930     1.988043567694    -0.819159049252     1.007825032230
         H           -3.389076658070     1.988037567694     0.822764950748     1.007825032230
         H            3.389024341930    -1.989590432306     0.822756950748     1.007825032230
         H           -3.389050658070    -1.989593432306    -0.819158049252     1.007825032230
         H            4.638063341930    -0.000782432306     0.001785950748     1.007825032230
         H           -4.638098658070    -0.000782432306     0.001787950748     1.007825032230

  Basis Set: AUG-CC-PVTZ
    Blend: AUG-CC-PVTZ
  Basis Set: (AUG-CC-PVTZ AUX)
    Blend: AUG-CC-PVTZ-JKFIT
	 Reference Energy          =    -460.3943217741702938 [Eh]
	 Singles Energy            =      -0.0000000000000000 [Eh]
	 Same-Spin Energy          =      -0.5216272500974579 [Eh]
	 Opposite-Spin Energy      =      -1.6240297856104862 [Eh]
	 Correlation Energy        =      -2.1456570357079441 [Eh]
	 Total Energy              =    -462.5399788098782210 [Eh]

	 ================> DF-SCS-MP2 Energies <==================
	-----------------------------------------------------------
	 SCS Same-Spin Scale       =       0.3333333333333333 [-]
	 SCS Opposite-Spin Scale   =       1.2000000000000000 [-]
	 SCS Same-Spin Energy      =      -0.1738757500324860 [Eh]
	 SCS Opposite-Spin Energy  =      -1.9488357427325833 [Eh]
	 SCS Correlation Energy    =      -2.1227114927650694 [Eh]
	 SCS Total Energy          =    -462.5170332669353570 [Eh]
	-----------------------------------------------------------

  Dipole Moment: [D]
     X:    -0.0207      Y:     0.0103      Z:    -0.1745     Total:     0.1760

*** Psi4 exiting successfully. Buy a developer a beer!
