                               Psi4 1.4a2.dev612

  ==> Input File <==

--------------------------------------------------------------------------
#psi4
#
memory 32 gb

molecule  {
0 1
  C        0.7388790     0.0000080     0.0000160
  C       -0.7388790     0.0000070    -0.0000030
  C        1.4536770     1.1178580    -0.4583850
  C       -1.4536820     1.1178570     0.4583930
  C        1.4536730    -1.1178550     0.4583870
  C       -1.4536670    -1.1178570    -0.4583770
  C        2.8487180     1.1182580    -0.4560040
  C       -2.8487240     1.1182560     0.4559960
  C        2.8487140    -1.1182560     0.4560110
  C       -2.8487090    -1.1182580    -0.4560170
  C        3.5507430    -0.0000070    -0.0000130
  C       -3.5507430    -0.0000100    -0.0000010
  H        0.9093800     1.9786560    -0.8416800
  H       -0.9075903     2.0570706     0.6577233
  H        0.9093690    -1.9786310     0.8417230
  H       -0.9093580    -1.9786330    -0.8417070
  H        3.3890490     1.9888130    -0.8209640
  H       -3.3890590     1.9888070     0.8209600
  H        3.3890420    -1.9888210     0.8209520
  H       -3.3890330    -1.9888240    -0.8209630
  H        4.6380810    -0.0000130    -0.0000190
  H       -4.6380810    -0.0000130    -0.0000170
units angstrom
no_reorient  #important for SAPT in psi4, default
symmetry c1  #important for SAPT in psi4, default
}

set PROPERTIES_ORIGIN ["COM"]
properties('MP2/aug-cc-pvtz', properties = ['dipole'])
--------------------------------------------------------------------------

    Molecular point group: c1
  Charge       = 0
  Multiplicity = 1
  Basis Set: AUG-CC-PVTZ
    Blend: AUG-CC-PVTZ
  Basis Set: (AUG-CC-PVTZ AUX)
    Blend: AUG-CC-PVTZ-JKFIT

    Orbital Energies [Eh]
    ---------------------

    Doubly Occupied:

       1A    -11.247825     2A    -11.247049     3A    -11.239434
       4A    -11.239206     5A    -11.239158     6A    -11.238938
       7A    -11.238140     8A    -11.236981     9A    -11.236968
      10A    -11.236780    11A    -11.236542    12A    -11.236363
      13A     -1.169670    14A     -1.140496    15A     -1.054094
      16A     -1.019449    17A     -1.011237    18A     -0.982083
      19A     -0.852142    20A     -0.841780    21A     -0.811308
      22A     -0.789381    23A     -0.717587    24A     -0.680533
      25A     -0.654331    26A     -0.639335    27A     -0.615906
      28A     -0.608993    29A     -0.591003    30A     -0.584713
      31A     -0.581958    32A     -0.521711    33A     -0.517087
      34A     -0.502919    35A     -0.492357    36A     -0.484861
      37A     -0.482367    38A     -0.366478    39A     -0.339034
      40A     -0.338121    41A     -0.303670

  @DF-RHF Final Energy:  -460.39789433961425

   => Energetics <=

    Nuclear Repulsion Energy =            599.3091029484127148
    One-Electron Energy =               -1810.2780149170810091
    Two-Electron Energy =                 750.5710176290539266
    Total Energy =                       -460.3978943396142540
  Basis Set: (AUG-CC-PVTZ AUX)
    Blend: AUG-CC-PVTZ-RI
    Molecular point group: c1

    Geometry (in Angstrom), charge = 0, multiplicity = 1:

       Center              X                  Y                   Z               Mass
    ------------   -----------------  -----------------  -----------------  -----------------
         C            0.738867228172    -0.000504967749     0.001219255103    12.000000000000
         C           -0.738890771828    -0.000505967749     0.001200255103    12.000000000000
         C            1.453665228172     1.117345032251    -0.457181744897    12.000000000000
         C           -1.453693771828     1.117344032251     0.459596255103    12.000000000000
         C            1.453661228172    -1.118367967749     0.459590255103    12.000000000000
         C           -1.453678771828    -1.118369967749    -0.457173744897    12.000000000000
         C            2.848706228172     1.117745032251    -0.454800744897    12.000000000000
         C           -2.848735771828     1.117743032251     0.457199255103    12.000000000000
         C            2.848702228172    -1.118768967749     0.457214255103    12.000000000000
         C           -2.848720771828    -1.118770967749    -0.454813744897    12.000000000000
         C            3.550731228172    -0.000519967749     0.001190255103    12.000000000000
         C           -3.550754771828    -0.000522967749     0.001202255103    12.000000000000
         H            0.909368228172     1.978143032251    -0.840476744897     1.007825032230
         H           -0.907602071828     2.056557632251     0.658926555103     1.007825032230
         H            0.909357228172    -1.979143967749     0.842926255103     1.007825032230
         H           -0.909369771828    -1.979145967749    -0.840503744897     1.007825032230
         H            3.389037228172     1.988300032251    -0.819760744897     1.007825032230
         H           -3.389070771828     1.988294032251     0.822163255103     1.007825032230
         H            3.389030228172    -1.989333967749     0.822155255103     1.007825032230
         H           -3.389044771828    -1.989336967749    -0.819759744897     1.007825032230
         H            4.638069228172    -0.000525967749     0.001184255103     1.007825032230
         H           -4.638092771828    -0.000525967749     0.001186255103     1.007825032230

  Basis Set: AUG-CC-PVTZ
    Blend: AUG-CC-PVTZ
  Basis Set: (AUG-CC-PVTZ AUX)
    Blend: AUG-CC-PVTZ-JKFIT
	 Reference Energy          =    -460.3978943396142540 [Eh]
	 Singles Energy            =      -0.0000000000000000 [Eh]
	 Same-Spin Energy          =      -0.5214351515711410 [Eh]
	 Opposite-Spin Energy      =      -1.6235670990514088 [Eh]
	 Correlation Energy        =      -2.1450022506225497 [Eh]
	 Total Energy              =    -462.5428965902368077 [Eh]

	 ================> DF-SCS-MP2 Energies <==================
	-----------------------------------------------------------
	 SCS Same-Spin Scale       =       0.3333333333333333 [-]
	 SCS Opposite-Spin Scale   =       1.2000000000000000 [-]
	 SCS Same-Spin Energy      =      -0.1738117171903803 [Eh]
	 SCS Opposite-Spin Energy  =      -1.9482805188616905 [Eh]
	 SCS Correlation Energy    =      -2.1220922360520706 [Eh]
	 SCS Total Energy          =    -462.5199865756663371 [Eh]
	-----------------------------------------------------------

  Dipole Moment: [D]
     X:    -0.0068      Y:     0.0187      Z:    -0.1129     Total:     0.1147

*** Psi4 exiting successfully. Buy a developer a beer!
