                               Psi4 1.4a2.dev612

  ==> Input File <==

--------------------------------------------------------------------------
#psi4
#
memory 32 gb

molecule  {
0 1
  C        0.7388790     0.0000080     0.0000160
  C       -0.7388790     0.0000070    -0.0000030
  C        1.4536770     1.1178580    -0.4583850
  C       -1.4536820     1.1178570     0.4583930
  C        1.4536730    -1.1178550     0.4583870
  C       -1.4536670    -1.1178570    -0.4583770
  C        2.8487180     1.1182580    -0.4560040
  C       -2.8487240     1.1182560     0.4559960
  C        2.8487140    -1.1182560     0.4560110
  C       -2.8487090    -1.1182580    -0.4560170
  C        3.5507430    -0.0000070    -0.0000130
  C       -3.5507430    -0.0000100    -0.0000010
  H        0.9093800     1.9786560    -0.8416800
  H       -0.9084901     2.0178618     0.7497116
  H        0.9093690    -1.9786310     0.8417230
  H       -0.9093580    -1.9786330    -0.8417070
  H        3.3890490     1.9888130    -0.8209640
  H       -3.3890590     1.9888070     0.8209600
  H        3.3890420    -1.9888210     0.8209520
  H       -3.3890330    -1.9888240    -0.8209630
  H        4.6380810    -0.0000130    -0.0000190
  H       -4.6380810    -0.0000130    -0.0000170
units angstrom
no_reorient  #important for SAPT in psi4, default
symmetry c1  #important for SAPT in psi4, default
}

set PROPERTIES_ORIGIN ["COM"]
properties('MP2/aug-cc-pvtz', properties = ['dipole'])
--------------------------------------------------------------------------

    Molecular point group: c1
  Charge       = 0
  Multiplicity = 1
  Basis Set: AUG-CC-PVTZ
    Blend: AUG-CC-PVTZ
  Basis Set: (AUG-CC-PVTZ AUX)
    Blend: AUG-CC-PVTZ-JKFIT

    Orbital Energies [Eh]
    ---------------------

    Doubly Occupied:

       1A    -11.247614     2A    -11.246855     3A    -11.239151
       4A    -11.239127     5A    -11.238889     6A    -11.238868
       7A    -11.237158     8A    -11.236893     9A    -11.236829
      10A    -11.236753    11A    -11.236404    12A    -11.236350
      13A     -1.169599    14A     -1.140432    15A     -1.054009
      16A     -1.019481    17A     -1.011324    18A     -0.982080
      19A     -0.852144    20A     -0.841806    21A     -0.811700
      22A     -0.789432    23A     -0.717732    24A     -0.681114
      25A     -0.654442    26A     -0.639240    27A     -0.616325
      28A     -0.609011    29A     -0.591031    30A     -0.584588
      31A     -0.582877    32A     -0.521597    33A     -0.516228
      34A     -0.503548    35A     -0.491655    36A     -0.484685
      37A     -0.483955    38A     -0.366378    39A     -0.339313
      40A     -0.337936    41A     -0.303733

  @DF-RHF Final Energy:  -460.39982886126006

   => Energetics <=

    Nuclear Repulsion Energy =            599.3477933607124442
    One-Electron Energy =               -1810.3586756877502921
    Two-Electron Energy =                 750.6110534657778999
    Total Energy =                       -460.3998288612600618
  Basis Set: (AUG-CC-PVTZ AUX)
    Blend: AUG-CC-PVTZ-RI
    Molecular point group: c1

    Geometry (in Angstrom), charge = 0, multiplicity = 1:

       Center              X                  Y                   Z               Mass
    ------------   -----------------  -----------------  -----------------  -----------------
         C            0.738873113759    -0.000248503193     0.000617560112    12.000000000000
         C           -0.738884886241    -0.000249503193     0.000598560112    12.000000000000
         C            1.453671113759     1.117601496807    -0.457783439888    12.000000000000
         C           -1.453687886241     1.117600496807     0.458994560112    12.000000000000
         C            1.453667113759    -1.118111503193     0.458988560112    12.000000000000
         C           -1.453672886241    -1.118113503193    -0.457775439888    12.000000000000
         C            2.848712113759     1.118001496807    -0.455402439888    12.000000000000
         C           -2.848729886241     1.117999496807     0.456597560112    12.000000000000
         C            2.848708113759    -1.118512503193     0.456612560112    12.000000000000
         C           -2.848714886241    -1.118514503193    -0.455415439888    12.000000000000
         C            3.550737113759    -0.000263503193     0.000588560112    12.000000000000
         C           -3.550748886241    -0.000266503193     0.000600560112    12.000000000000
         H            0.909374113759     1.978399496807    -0.841078439888     1.007825032230
         H           -0.908495986241     2.017605296807     0.750313160112     1.007825032230
         H            0.909363113759    -1.978887503193     0.842324560112     1.007825032230
         H           -0.909363886241    -1.978889503193    -0.841105439888     1.007825032230
         H            3.389043113759     1.988556496807    -0.820362439888     1.007825032230
         H           -3.389064886241     1.988550496807     0.821561560112     1.007825032230
         H            3.389036113759    -1.989077503193     0.821553560112     1.007825032230
         H           -3.389038886241    -1.989080503193    -0.820361439888     1.007825032230
         H            4.638075113759    -0.000269503193     0.000582560112     1.007825032230
         H           -4.638086886241    -0.000269503193     0.000584560112     1.007825032230

  Basis Set: AUG-CC-PVTZ
    Blend: AUG-CC-PVTZ
  Basis Set: (AUG-CC-PVTZ AUX)
    Blend: AUG-CC-PVTZ-JKFIT
	 Reference Energy          =    -460.3998288612600618 [Eh]
	 Singles Energy            =      -0.0000000000000000 [Eh]
	 Same-Spin Energy          =      -0.5213218022373800 [Eh]
	 Opposite-Spin Energy      =      -1.6233096403335425 [Eh]
	 Correlation Energy        =      -2.1446314425709225 [Eh]
	 Total Energy              =    -462.5444603038309879 [Eh]

	 ================> DF-SCS-MP2 Energies <==================
	-----------------------------------------------------------
	 SCS Same-Spin Scale       =       0.3333333333333333 [-]
	 SCS Opposite-Spin Scale   =       1.2000000000000000 [-]
	 SCS Same-Spin Energy      =      -0.1737739340791267 [Eh]
	 SCS Opposite-Spin Energy  =      -1.9479715684002510 [Eh]
	 SCS Correlation Energy    =      -2.1217455024793779 [Eh]
	 SCS Total Energy          =    -462.5215743637394326 [Eh]
	-----------------------------------------------------------

  Dipole Moment: [D]
     X:     0.0002      Y:     0.0153      Z:    -0.0544     Total:     0.0565

*** Psi4 exiting successfully. Buy a developer a beer!
