                               Psi4 1.4a2.dev612

  ==> Input File <==

--------------------------------------------------------------------------
#psi4
#
memory 32 gb

molecule  {
0 1
  C        0.7388790     0.0000080     0.0000160
  C       -0.7388790     0.0000070    -0.0000030
  C        1.4536770     1.1178580    -0.4583850
  C       -1.4536820     1.1178570     0.4583930
  C        1.4536730    -1.1178550     0.4583870
  C       -1.4536670    -1.1178570    -0.4583770
  C        2.8487180     1.1182580    -0.4560040
  C       -2.8487240     1.1182560     0.4559960
  C        2.8487140    -1.1182560     0.4560110
  C       -2.8487090    -1.1182580    -0.4560170
  C        3.5507430    -0.0000070    -0.0000130
  C       -3.5507430    -0.0000100    -0.0000010
  H        0.9093800     1.9786560    -0.8416800
  H       -0.9071403     2.0766750     0.6117291
  H        0.9093690    -1.9786310     0.8417230
  H       -0.9093580    -1.9786330    -0.8417070
  H        3.3890490     1.9888130    -0.8209640
  H       -3.3890590     1.9888070     0.8209600
  H        3.3890420    -1.9888210     0.8209520
  H       -3.3890330    -1.9888240    -0.8209630
  H        4.6380810    -0.0000130    -0.0000190
  H       -4.6380810    -0.0000130    -0.0000170
units angstrom
no_reorient  #important for SAPT in psi4, default
symmetry c1  #important for SAPT in psi4, default
}

set PROPERTIES_ORIGIN ["COM"]
properties('MP2/aug-cc-pvtz', properties = ['dipole'])
--------------------------------------------------------------------------

    Molecular point group: c1
  Charge       = 0
  Multiplicity = 1
  Basis Set: AUG-CC-PVTZ
    Blend: AUG-CC-PVTZ
  Basis Set: (AUG-CC-PVTZ AUX)
    Blend: AUG-CC-PVTZ-JKFIT

    Orbital Energies [Eh]
    ---------------------

    Doubly Occupied:

       1A    -11.247980     2A    -11.247157     3A    -11.239901
       4A    -11.239373     5A    -11.239228     6A    -11.238956
       7A    -11.238657     8A    -11.237062     9A    -11.237026
      10A    -11.236796    11A    -11.236636    12A    -11.236368
      13A     -1.169711    14A     -1.140541    15A     -1.054150
      16A     -1.019406    17A     -1.011174    18A     -0.982082
      19A     -0.852132    20A     -0.841710    21A     -0.811055
      22A     -0.789338    23A     -0.717443    24A     -0.680149
      25A     -0.654165    26A     -0.639395    27A     -0.615632
      28A     -0.608997    29A     -0.590916    30A     -0.584787
      31A     -0.581288    32A     -0.521836    33A     -0.517436
      34A     -0.502599    35A     -0.492678    36A     -0.484963
      37A     -0.481330    38A     -0.366534    39A     -0.338902
      40A     -0.338173    41A     -0.303645

  @DF-RHF Final Energy:  -460.39633313513093

   => Energetics <=

    Nuclear Repulsion Energy =            599.2766753735576231
    One-Electron Energy =               -1810.2114053512455030
    Two-Electron Energy =                 750.5383968425568355
    Total Energy =                       -460.3963331351309307
  Basis Set: (AUG-CC-PVTZ AUX)
    Blend: AUG-CC-PVTZ-RI
    Molecular point group: c1

    Geometry (in Angstrom), charge = 0, multiplicity = 1:

       Center              X                  Y                   Z               Mass
    ------------   -----------------  -----------------  -----------------  -----------------
         C            0.738864284724    -0.000633200028     0.001520102926    12.000000000000
         C           -0.738893715276    -0.000634200028     0.001501102926    12.000000000000
         C            1.453662284724     1.117216799972    -0.456880897074    12.000000000000
         C           -1.453696715276     1.117215799972     0.459897102926    12.000000000000
         C            1.453658284724    -1.118496200028     0.459891102926    12.000000000000
         C           -1.453681715276    -1.118498200028    -0.456872897074    12.000000000000
         C            2.848703284724     1.117616799972    -0.454499897074    12.000000000000
         C           -2.848738715276     1.117614799972     0.457500102926    12.000000000000
         C            2.848699284724    -1.118897200028     0.457515102926    12.000000000000
         C           -2.848723715276    -1.118899200028    -0.454512897074    12.000000000000
         C            3.550728284724    -0.000648200028     0.001491102926    12.000000000000
         C           -3.550757715276    -0.000651200028     0.001503102926    12.000000000000
         H            0.909365284724     1.978014799972    -0.840175897074     1.007825032230
         H           -0.907155015276     2.076033799972     0.613233202926     1.007825032230
         H            0.909354284724    -1.979272200028     0.843227102926     1.007825032230
         H           -0.909372715276    -1.979274200028    -0.840202897074     1.007825032230
         H            3.389034284724     1.988171799972    -0.819459897074     1.007825032230
         H           -3.389073715276     1.988165799972     0.822464102926     1.007825032230
         H            3.389027284724    -1.989462200028     0.822456102926     1.007825032230
         H           -3.389047715276    -1.989465200028    -0.819458897074     1.007825032230
         H            4.638066284724    -0.000654200028     0.001485102926     1.007825032230
         H           -4.638095715276    -0.000654200028     0.001487102926     1.007825032230

  Basis Set: AUG-CC-PVTZ
    Blend: AUG-CC-PVTZ
  Basis Set: (AUG-CC-PVTZ AUX)
    Blend: AUG-CC-PVTZ-JKFIT
	 Reference Energy          =    -460.3963331351309307 [Eh]
	 Singles Energy            =      -0.0000000000000000 [Eh]
	 Same-Spin Energy          =      -0.5215216704987616 [Eh]
	 Opposite-Spin Energy      =      -1.6237718348368839 [Eh]
	 Correlation Energy        =      -2.1452935053356454 [Eh]
	 Total Energy              =    -462.5416266404665748 [Eh]

	 ================> DF-SCS-MP2 Energies <==================
	-----------------------------------------------------------
	 SCS Same-Spin Scale       =       0.3333333333333333 [-]
	 SCS Opposite-Spin Scale   =       1.2000000000000000 [-]
	 SCS Same-Spin Energy      =      -0.1738405568329205 [Eh]
	 SCS Opposite-Spin Energy  =      -1.9485262018042606 [Eh]
	 SCS Correlation Energy    =      -2.1223667586371811 [Eh]
	 SCS Total Energy          =    -462.5186998937680869 [Eh]
	-----------------------------------------------------------

  Dipole Moment: [D]
     X:    -0.0129      Y:     0.0160      Z:    -0.1434     Total:     0.1449

*** Psi4 exiting successfully. Buy a developer a beer!
