                               Psi4 1.3.2 release

  ==> Input File <==

--------------------------------------------------------------------------
#psi4
#
memory 32 gb

molecule  {
0 1
  N       -0.0000260     0.5742700    -0.1528520
  C        1.1913322    -0.2553395    -0.0178760
  C       -1.2063270    -0.2258910     0.0208010
  H        0.0000040     1.3212180     0.5394680
  H        1.2508010    -0.7709660     0.9792680
  H        2.0851550     0.4194100    -0.0537280
  H        1.2603030    -0.9635770    -0.7851690
  H       -2.0851970     0.4193400    -0.0536760
  H       -1.2508350    -0.7710090     0.9792610
  H       -1.2602770    -0.9635840    -0.7851690
units angstrom
no_reorient  #important for SAPT in psi4, default
symmetry c1  #important for SAPT in psi4, default
}

set PROPERTIES_ORIGIN ["COM"]
properties('MP2/aug-cc-pvtz', properties = ['dipole'])
--------------------------------------------------------------------------

    Molecular point group: c1
  Charge       = 0
  Multiplicity = 1
  Basis Set: AUG-CC-PVTZ
    Blend: AUG-CC-PVTZ
  Basis Set: (AUG-CC-PVTZ AUX)
    Blend: AUG-CC-PVTZ-JKFIT

    Orbital Energies [Eh]
    ---------------------

    Doubly Occupied:

       1A    -15.543054     2A    -11.241249     3A    -11.239995
       4A     -1.197268     5A     -0.942847     6A     -0.853641
       7A     -0.658984     8A     -0.609458     9A     -0.589460
      10A     -0.543315    11A     -0.514512    12A     -0.494735
      13A     -0.369579

  @DF-RHF Final Energy:  -134.29098771879691

   => Energetics <=

    Nuclear Repulsion Energy =             84.1985315964986256
    One-Electron Energy =                -347.3828471940003624
    Two-Electron Energy =                 128.8933278787048096
    Total Energy =                       -134.2909877187969130
  Basis Set: (AUG-CC-PVTZ AUX)
    Blend: AUG-CC-PVTZ-RI
    Molecular point group: c1

    Geometry (in Angstrom), charge = 0, multiplicity = 1:

       Center              X                  Y                   Z               Mass
    ------------   -----------------  -----------------  -----------------  -----------------
         N            0.003976588738     0.553244428586    -0.124474605877    14.003074004430
         C            1.195334788738    -0.276365071414     0.010501394123    12.000000000000
         C           -1.202324411262    -0.246916571414     0.049178394123    12.000000000000
         H            0.004006588738     1.300192428586     0.567845394123     1.007825032230
         H            1.254803588738    -0.791991571414     1.007645394123     1.007825032230
         H            2.089157588738     0.398384428586    -0.025350605877     1.007825032230
         H            1.264305588738    -0.984602571414    -0.756791605877     1.007825032230
         H           -2.081194411262     0.398314428586    -0.025298605877     1.007825032230
         H           -1.246832411262    -0.792034571414     1.007638394123     1.007825032230
         H           -1.256274411262    -0.984609571414    -0.756791605877     1.007825032230

  Basis Set: AUG-CC-PVTZ
    Blend: AUG-CC-PVTZ
  Basis Set: (AUG-CC-PVTZ AUX)
    Blend: AUG-CC-PVTZ-JKFIT
	 Reference Energy          =    -134.2909877187969130 [Eh]
	 Singles Energy            =      -0.0000000000000000 [Eh]
	 Same-Spin Energy          =      -0.1367120538479621 [Eh]
	 Opposite-Spin Energy      =      -0.5046450366118325 [Eh]
	 Correlation Energy        =      -0.6413570904597946 [Eh]
	 Total Energy              =    -134.9323448092567048 [Eh]

	 ================> DF-SCS-MP2 Energies <==================
	-----------------------------------------------------------
	 SCS Same-Spin Scale       =       0.3333333333333333 [-]
	 SCS Opposite-Spin Scale   =       1.2000000000000000 [-]
	 SCS Same-Spin Energy      =      -0.0455706846159874 [Eh]
	 SCS Opposite-Spin Energy  =      -0.6055740439341989 [Eh]
	 SCS Correlation Energy    =      -0.6511447285501862 [Eh]
	 SCS Total Energy          =    -134.9421324473470918 [Eh]
	-----------------------------------------------------------

  Dipole Moment: [D]
     X:     0.0012      Y:    -0.2950      Z:     1.0149     Total:     1.0569

*** Psi4 exiting successfully. Buy a developer a beer!
