                               Psi4 1.3.2 release

  ==> Input File <==

--------------------------------------------------------------------------
#psi4
#
memory 32 gb

molecule  {
0 1
  N       -0.0000260     0.5742700    -0.1528520
  C        1.2133298    -0.2108079     0.0400871
  C       -1.2063270    -0.2258910     0.0208010
  H        0.0000040     1.3212180     0.5394680
  H        1.2508010    -0.7709660     0.9792680
  H        2.0851550     0.4194100    -0.0537280
  H        1.2603030    -0.9635770    -0.7851690
  H       -2.0851970     0.4193400    -0.0536760
  H       -1.2508350    -0.7710090     0.9792610
  H       -1.2602770    -0.9635840    -0.7851690
units angstrom
no_reorient  #important for SAPT in psi4, default
symmetry c1  #important for SAPT in psi4, default
}

set PROPERTIES_ORIGIN ["COM"]
properties('MP2/aug-cc-pvtz', properties = ['dipole'])
--------------------------------------------------------------------------

    Molecular point group: c1
  Charge       = 0
  Multiplicity = 1
  Basis Set: AUG-CC-PVTZ
    Blend: AUG-CC-PVTZ
  Basis Set: (AUG-CC-PVTZ AUX)
    Blend: AUG-CC-PVTZ-JKFIT

    Orbital Energies [Eh]
    ---------------------

    Doubly Occupied:

       1A    -15.543354     2A    -11.240925     3A    -11.240605
       4A     -1.197520     5A     -0.944059     6A     -0.851032
       7A     -0.658979     8A     -0.613257     9A     -0.589405
      10A     -0.534857    11A     -0.507419    12A     -0.503815
      13A     -0.372260

  @DF-RHF Final Energy:  -134.29316523966361

   => Energetics <=

    Nuclear Repulsion Energy =             84.1158599469680581
    One-Electron Energy =                -347.2230806177484510
    Two-Electron Energy =                 128.8140554311167989
    Total Energy =                       -134.2931652396636082
  Basis Set: (AUG-CC-PVTZ AUX)
    Blend: AUG-CC-PVTZ-RI
    Molecular point group: c1

    Geometry (in Angstrom), charge = 0, multiplicity = 1:

       Center              X                  Y                   Z               Mass
    ------------   -----------------  -----------------  -----------------  -----------------
         N           -0.001881906608     0.541384581542    -0.139911587711    14.003074004430
         C            1.211473893392    -0.243693318458     0.053027512289    12.000000000000
         C           -1.208182906608    -0.258776418458     0.033741412289    12.000000000000
         H           -0.001851906608     1.288332581542     0.552408412289     1.007825032230
         H            1.248945093392    -0.803851418458     0.992208412289     1.007825032230
         H            2.083299093392     0.386524581542    -0.040787587711     1.007825032230
         H            1.258447093392    -0.996462418458    -0.772228587711     1.007825032230
         H           -2.087052906608     0.386454581542    -0.040735587711     1.007825032230
         H           -1.252690906608    -0.803894418458     0.992201412289     1.007825032230
         H           -1.262132906608    -0.996469418458    -0.772228587711     1.007825032230

  Basis Set: AUG-CC-PVTZ
    Blend: AUG-CC-PVTZ
  Basis Set: (AUG-CC-PVTZ AUX)
    Blend: AUG-CC-PVTZ-JKFIT
	 Reference Energy          =    -134.2931652396636082 [Eh]
	 Singles Energy            =      -0.0000000000000000 [Eh]
	 Same-Spin Energy          =      -0.1367099370126699 [Eh]
	 Opposite-Spin Energy      =      -0.5046314009068330 [Eh]
	 Correlation Energy        =      -0.6413413379195029 [Eh]
	 Total Energy              =    -134.9345065775831074 [Eh]

	 ================> DF-SCS-MP2 Energies <==================
	-----------------------------------------------------------
	 SCS Same-Spin Scale       =       0.3333333333333333 [-]
	 SCS Opposite-Spin Scale   =       1.2000000000000000 [-]
	 SCS Same-Spin Energy      =      -0.0455699790042233 [Eh]
	 SCS Opposite-Spin Energy  =      -0.6055576810881996 [Eh]
	 SCS Correlation Energy    =      -0.6511276600924230 [Eh]
	 SCS Total Energy          =    -134.9442928997560216 [Eh]
	-----------------------------------------------------------

  Dipole Moment: [D]
     X:    -0.0044      Y:    -0.2750      Z:     1.0802     Total:     1.1147

*** Psi4 exiting successfully. Buy a developer a beer!
