                               Psi4 1.4a3.dev225

  ==> Input File <==

--------------------------------------------------------------------------
#psi4
#
memory 32 gb

molecule  {
0 1
  N        0.0000000     0.5742850    -0.1528630
  C        1.1649701    -0.1984712     0.0148589
  C       -1.2063390    -0.2259120     0.0208160
  H        0.0000000     1.3211710     0.5395190
  H        1.2506670    -0.7711410     0.9791760
  H        2.0850840     0.4194780    -0.0535020
  H        1.2604060    -0.9634470    -0.7853030
  H       -2.0850820     0.4194800    -0.0534940
  H       -1.2506630    -0.7711500     0.9791720
  H       -1.2604150    -0.9634410    -0.7853080
units angstrom
no_reorient  #important for SAPT in psi4, default
symmetry c1  #important for SAPT in psi4, default
}

set PROPERTIES_ORIGIN ["COM"]
properties('MP2/aug-cc-pvtz', properties = ['dipole'])
--------------------------------------------------------------------------

    Molecular point group: c1
  Charge       = 0
  Multiplicity = 1
  Basis Set: AUG-CC-PVTZ
    Blend: AUG-CC-PVTZ
  Basis Set: (AUG-CC-PVTZ AUX)
    Blend: AUG-CC-PVTZ-JKFIT

    Orbital Energies [Eh]
    ---------------------

    Doubly Occupied:

       1A    -15.543859     2A    -11.242566     3A    -11.242242
       4A     -1.211646     5A     -0.944681     6A     -0.849541
       7A     -0.665857     8A     -0.613018     9A     -0.596693
      10A     -0.532689    11A     -0.512055    12A     -0.496174
      13A     -0.370837

  @DF-RHF Final Energy:  -134.29131502104633

   => Energetics <=

    Nuclear Repulsion Energy =             84.7501564792519702
    One-Electron Energy =                -348.4392232403708363
    Two-Electron Energy =                 129.3977517400725219
    Total Energy =                       -134.2913150210463300
  Basis Set: (AUG-CC-PVTZ AUX)
    Blend: AUG-CC-PVTZ-RI
    Molecular point group: c1

    Geometry (in Angstrom), charge = 0, multiplicity = 1:

       Center              X                  Y                   Z               Mass
    ------------   -----------------  -----------------  -----------------  -----------------
         N            0.011017610293     0.538112310357    -0.133204393215    14.003074004430
         C            1.175987710293    -0.234643889643     0.034517506785    12.000000000000
         C           -1.195321389707    -0.262084689643     0.040474606785    12.000000000000
         H            0.011017610293     1.284998310357     0.559177606785     1.007825032230
         H            1.261684610293    -0.807313689643     0.998834606785     1.007825032230
         H            2.096101610293     0.383305310357    -0.033843393215     1.007825032230
         H            1.271423610293    -0.999619689643    -0.765644393215     1.007825032230
         H           -2.074064389707     0.383307310357    -0.033835393215     1.007825032230
         H           -1.239645389707    -0.807322689643     0.998830606785     1.007825032230
         H           -1.249397389707    -0.999613689643    -0.765649393215     1.007825032230

  Basis Set: AUG-CC-PVTZ
    Blend: AUG-CC-PVTZ
  Basis Set: (AUG-CC-PVTZ AUX)
    Blend: AUG-CC-PVTZ-JKFIT
	 Reference Energy          =    -134.2913150210463300 [Eh]
	 Singles Energy            =      -0.0000000000000000 [Eh]
	 Same-Spin Energy          =      -0.1370155679071540 [Eh]
	 Opposite-Spin Energy      =      -0.5045503365506913 [Eh]
	 Correlation Energy        =      -0.6415659044578452 [Eh]
	 Total Energy              =    -134.9328809255041790 [Eh]

	 ================> DF-SCS-MP2 Energies <==================
	-----------------------------------------------------------
	 SCS Same-Spin Scale       =       0.3333333333333333 [-]
	 SCS Opposite-Spin Scale   =       1.2000000000000000 [-]
	 SCS Same-Spin Energy      =      -0.0456718559690513 [Eh]
	 SCS Opposite-Spin Energy  =      -0.6054604038608294 [Eh]
	 SCS Correlation Energy    =      -0.6511322598298808 [Eh]
	 SCS Total Energy          =    -134.9424472808762232 [Eh]
	-----------------------------------------------------------

  Dipole Moment: [D]
     X:    -0.1073      Y:    -0.2065      Z:     1.0241     Total:     1.0502

*** Psi4 exiting successfully. Buy a developer a beer!
