                               Psi4 1.3.2 release

  ==> Input File <==

--------------------------------------------------------------------------
#psi4
#
memory 32 gb

molecule  {
0 1
  N       -0.0000260     0.5742700    -0.1528520
  C        1.1748490    -0.2837713    -0.0567335
  C       -1.2063270    -0.2258910     0.0208010
  H        0.0000040     1.3212180     0.5394680
  H        1.2508010    -0.7709660     0.9792680
  H        2.0851550     0.4194100    -0.0537280
  H        1.2603030    -0.9635770    -0.7851690
  H       -2.0851970     0.4193400    -0.0536760
  H       -1.2508350    -0.7710090     0.9792610
  H       -1.2602770    -0.9635840    -0.7851690
units angstrom
no_reorient  #important for SAPT in psi4, default
symmetry c1  #important for SAPT in psi4, default
}

set PROPERTIES_ORIGIN ["COM"]
properties('MP2/aug-cc-pvtz', properties = ['dipole'])
--------------------------------------------------------------------------

    Molecular point group: c1
  Charge       = 0
  Multiplicity = 1
  Basis Set: AUG-CC-PVTZ
    Blend: AUG-CC-PVTZ
  Basis Set: (AUG-CC-PVTZ AUX)
    Blend: AUG-CC-PVTZ-JKFIT

    Orbital Energies [Eh]
    ---------------------

    Doubly Occupied:

       1A    -15.543436     2A    -11.242883     3A    -11.239593
       4A     -1.197590     5A     -0.942913     6A     -0.856786
       7A     -0.658588     8A     -0.613377     9A     -0.589740
      10A     -0.547403    11A     -0.517599    12A     -0.485280
      13A     -0.367547

  @DF-RHF Final Energy:  -134.28137580490434

   => Energetics <=

    Nuclear Repulsion Energy =             84.2622355462899151
    One-Electron Energy =                -347.4817497955481826
    Two-Electron Energy =                 128.9381384443539389
    Total Energy =                       -134.2813758049043429
  Basis Set: (AUG-CC-PVTZ AUX)
    Blend: AUG-CC-PVTZ-RI
    Molecular point group: c1

    Geometry (in Angstrom), charge = 0, multiplicity = 1:

       Center              X                  Y                   Z               Mass
    ------------   -----------------  -----------------  -----------------  -----------------
         N            0.008366465383     0.560816507721    -0.114125909525    14.003074004430
         C            1.183241465383    -0.297224792279    -0.018007409525    12.000000000000
         C           -1.197934534617    -0.239344492279     0.059527090475    12.000000000000
         H            0.008396465383     1.307764507721     0.578194090475     1.007825032230
         H            1.259193465383    -0.784419492279     1.017994090475     1.007825032230
         H            2.093547465383     0.405956507721    -0.015001909525     1.007825032230
         H            1.268695465383    -0.977030492279    -0.746442909525     1.007825032230
         H           -2.076804534617     0.405886507721    -0.014949909525     1.007825032230
         H           -1.242442534617    -0.784462492279     1.017987090475     1.007825032230
         H           -1.251884534617    -0.977037492279    -0.746442909525     1.007825032230

  Basis Set: AUG-CC-PVTZ
    Blend: AUG-CC-PVTZ
  Basis Set: (AUG-CC-PVTZ AUX)
    Blend: AUG-CC-PVTZ-JKFIT
	 Reference Energy          =    -134.2813758049043429 [Eh]
	 Singles Energy            =      -0.0000000000000000 [Eh]
	 Same-Spin Energy          =      -0.1368335576830303 [Eh]
	 Opposite-Spin Energy      =      -0.5050309548081124 [Eh]
	 Correlation Energy        =      -0.6418645124911427 [Eh]
	 Total Energy              =    -134.9232403173954822 [Eh]

	 ================> DF-SCS-MP2 Energies <==================
	-----------------------------------------------------------
	 SCS Same-Spin Scale       =       0.3333333333333333 [-]
	 SCS Opposite-Spin Scale   =       1.2000000000000000 [-]
	 SCS Same-Spin Energy      =      -0.0456111858943434 [Eh]
	 SCS Opposite-Spin Energy  =      -0.6060371457697349 [Eh]
	 SCS Correlation Energy    =      -0.6516483316640783 [Eh]
	 SCS Total Energy          =    -134.9330241365684344 [Eh]
	-----------------------------------------------------------

  Dipole Moment: [D]
     X:    -0.0086      Y:    -0.2962      Z:     0.9746     Total:     1.0187

*** Psi4 exiting successfully. Buy a developer a beer!
