                               Psi4 1.4a3.dev225

  ==> Input File <==

--------------------------------------------------------------------------
#psi4
#
memory 32 gb

molecule  {
0 1
  N        0.0000000     0.5742850    -0.1528630
  C        1.2063400    -0.2259130     0.0208150
  C       -1.2063390    -0.2259120     0.0208160
  H        0.0000000     1.2845031     0.5055269
  H        1.2506670    -0.7711410     0.9791760
  H        2.0850840     0.4194780    -0.0535020
  H        1.2604060    -0.9634470    -0.7853030
  H       -2.0850820     0.4194800    -0.0534940
  H       -1.2506630    -0.7711500     0.9791720
  H       -1.2604150    -0.9634410    -0.7853080
units angstrom
no_reorient  #important for SAPT in psi4, default
symmetry c1  #important for SAPT in psi4, default
}

set PROPERTIES_ORIGIN ["COM"]
properties('MP2/aug-cc-pvtz', properties = ['dipole'])
--------------------------------------------------------------------------

    Molecular point group: c1
  Charge       = 0
  Multiplicity = 1
  Basis Set: AUG-CC-PVTZ
    Blend: AUG-CC-PVTZ
  Basis Set: (AUG-CC-PVTZ AUX)
    Blend: AUG-CC-PVTZ-JKFIT

    Orbital Energies [Eh]
    ---------------------

    Doubly Occupied:

       1A    -15.537246     2A    -11.240470     3A    -11.240454
       4A     -1.203661     5A     -0.943541     6A     -0.859138
       7A     -0.664175     8A     -0.611306     9A     -0.589380
      10A     -0.537382    11A     -0.513460    12A     -0.503184
      13A     -0.372142

  @DF-RHF Final Energy:  -134.29345216123954

   => Energetics <=

    Nuclear Repulsion Energy =             84.4012455321060457
    One-Electron Energy =                -347.7583183962965450
    Two-Electron Energy =                 129.0636207029509706
    Total Energy =                       -134.2934521612395429
  Basis Set: (AUG-CC-PVTZ AUX)
    Blend: AUG-CC-PVTZ-RI
    Molecular point group: c1

    Geometry (in Angstrom), charge = 0, multiplicity = 1:

       Center              X                  Y                   Z               Mass
    ------------   -----------------  -----------------  -----------------  -----------------
         N           -0.000000199222     0.546240892474    -0.134030333897    14.003074004430
         C            1.206339800778    -0.253957107526     0.039647666103    12.000000000000
         C           -1.206339199222    -0.253956107526     0.039648666103    12.000000000000
         H           -0.000000199222     1.256458992474     0.524359566103     1.007825032230
         H            1.250666800778    -0.799185107526     0.998008666103     1.007825032230
         H            2.085083800778     0.391433892474    -0.034669333897     1.007825032230
         H            1.260405800778    -0.991491107526    -0.766470333897     1.007825032230
         H           -2.085082199222     0.391435892474    -0.034661333897     1.007825032230
         H           -1.250663199222    -0.799194107526     0.998004666103     1.007825032230
         H           -1.260415199222    -0.991485107526    -0.766475333897     1.007825032230

  Basis Set: AUG-CC-PVTZ
    Blend: AUG-CC-PVTZ
  Basis Set: (AUG-CC-PVTZ AUX)
    Blend: AUG-CC-PVTZ-JKFIT
	 Reference Energy          =    -134.2934521612395429 [Eh]
	 Singles Energy            =      -0.0000000000000000 [Eh]
	 Same-Spin Energy          =      -0.1364478786378678 [Eh]
	 Opposite-Spin Energy      =      -0.5037751921702220 [Eh]
	 Correlation Energy        =      -0.6402230708080898 [Eh]
	 Total Energy              =    -134.9336752320476194 [Eh]

	 ================> DF-SCS-MP2 Energies <==================
	-----------------------------------------------------------
	 SCS Same-Spin Scale       =       0.3333333333333333 [-]
	 SCS Opposite-Spin Scale   =       1.2000000000000000 [-]
	 SCS Same-Spin Energy      =      -0.0454826262126226 [Eh]
	 SCS Opposite-Spin Energy  =      -0.6045302306042665 [Eh]
	 SCS Correlation Energy    =      -0.6500128568168890 [Eh]
	 SCS Total Energy          =    -134.9434650180564290 [Eh]
	-----------------------------------------------------------

  Dipole Moment: [D]
     X:     0.0000      Y:    -0.2909      Z:     1.0531     Total:     1.0925

*** Psi4 exiting successfully. Buy a developer a beer!
