                               Psi4 1.3.2 release

  ==> Input File <==

--------------------------------------------------------------------------
#psi4
#
memory 32 gb

molecule  {
0 1
  N       -0.0000260     0.5742700    -0.1528520
  C        1.2605417    -0.1417088     0.0025458
  C       -1.2063270    -0.2258910     0.0208010
  H        0.0000040     1.3212180     0.5394680
  H        1.2508010    -0.7709660     0.9792680
  H        2.0851550     0.4194100    -0.0537280
  H        1.2603030    -0.9635770    -0.7851690
  H       -2.0851970     0.4193400    -0.0536760
  H       -1.2508350    -0.7710090     0.9792610
  H       -1.2602770    -0.9635840    -0.7851690
units angstrom
no_reorient  #important for SAPT in psi4, default
symmetry c1  #important for SAPT in psi4, default
}

set PROPERTIES_ORIGIN ["COM"]
properties('MP2/aug-cc-pvtz', properties = ['dipole'])
--------------------------------------------------------------------------

    Molecular point group: c1
  Charge       = 0
  Multiplicity = 1
  Basis Set: AUG-CC-PVTZ
    Blend: AUG-CC-PVTZ
  Basis Set: (AUG-CC-PVTZ AUX)
    Blend: AUG-CC-PVTZ-JKFIT

    Orbital Energies [Eh]
    ---------------------

    Doubly Occupied:

       1A    -15.543143     2A    -11.243238     3A    -11.242944
       4A     -1.196165     5A     -0.949101     6A     -0.850527
       7A     -0.666003     8A     -0.612217     9A     -0.586146
      10A     -0.531020    11A     -0.523214    12A     -0.498574
      13A     -0.364600

  @DF-RHF Final Energy:  -134.28155915558142

   => Energetics <=

    Nuclear Repulsion Energy =             83.9272111009830155
    One-Electron Energy =                -346.8037572602758019
    Two-Electron Energy =                 128.5949870037113669
    Total Energy =                       -134.2815591555814194
  Basis Set: (AUG-CC-PVTZ AUX)
    Blend: AUG-CC-PVTZ-RI
    Molecular point group: c1

    Geometry (in Angstrom), charge = 0, multiplicity = 1:

       Center              X                  Y                   Z               Mass
    ------------   -----------------  -----------------  -----------------  -----------------
         N           -0.014455582664     0.522981812343    -0.129913427397    14.003074004430
         C            1.246112117336    -0.192996987657     0.025484372603    12.000000000000
         C           -1.220756582664    -0.277179187657     0.043739572603    12.000000000000
         H           -0.014425582664     1.269929812343     0.562406572603     1.007825032230
         H            1.236371417336    -0.822254187657     1.002206572603     1.007825032230
         H            2.070725417336     0.368121812343    -0.030789427397     1.007825032230
         H            1.245873417336    -1.014865187657    -0.762230427397     1.007825032230
         H           -2.099626582664     0.368051812343    -0.030737427397     1.007825032230
         H           -1.265264582664    -0.822297187657     1.002199572603     1.007825032230
         H           -1.274706582664    -1.014872187657    -0.762230427397     1.007825032230

  Basis Set: AUG-CC-PVTZ
    Blend: AUG-CC-PVTZ
  Basis Set: (AUG-CC-PVTZ AUX)
    Blend: AUG-CC-PVTZ-JKFIT
	 Reference Energy          =    -134.2815591555814194 [Eh]
	 Singles Energy            =      -0.0000000000000000 [Eh]
	 Same-Spin Energy          =      -0.1367664100375789 [Eh]
	 Opposite-Spin Energy      =      -0.5048758880632360 [Eh]
	 Correlation Energy        =      -0.6416422981008150 [Eh]
	 Total Energy              =    -134.9232014536822248 [Eh]

	 ================> DF-SCS-MP2 Energies <==================
	-----------------------------------------------------------
	 SCS Same-Spin Scale       =       0.3333333333333333 [-]
	 SCS Opposite-Spin Scale   =       1.2000000000000000 [-]
	 SCS Same-Spin Energy      =      -0.0455888033458596 [Eh]
	 SCS Opposite-Spin Energy  =      -0.6058510656758832 [Eh]
	 SCS Correlation Energy    =      -0.6514398690217429 [Eh]
	 SCS Total Energy          =    -134.9329990246031628 [Eh]
	-----------------------------------------------------------

  Dipole Moment: [D]
     X:    -0.0062      Y:    -0.1997      Z:     1.0011     Total:     1.0208

*** Psi4 exiting successfully. Buy a developer a beer!
