                               Psi4 1.3.2 release

  ==> Input File <==

--------------------------------------------------------------------------
#psi4
#
memory 32 gb

molecule  {
0 1
  N       -0.0000260     0.5742700    -0.1528520
  C        1.1770535    -0.2665541     0.0296407
  C       -1.2063270    -0.2258910     0.0208010
  H        0.0000040     1.3212180     0.5394680
  H        1.2508010    -0.7709660     0.9792680
  H        2.0851550     0.4194100    -0.0537280
  H        1.2603030    -0.9635770    -0.7851690
  H       -2.0851970     0.4193400    -0.0536760
  H       -1.2508350    -0.7710090     0.9792610
  H       -1.2602770    -0.9635840    -0.7851690
units angstrom
no_reorient  #important for SAPT in psi4, default
symmetry c1  #important for SAPT in psi4, default
}

set PROPERTIES_ORIGIN ["COM"]
properties('MP2/aug-cc-pvtz', properties = ['dipole'])
--------------------------------------------------------------------------

    Molecular point group: c1
  Charge       = 0
  Multiplicity = 1
  Basis Set: AUG-CC-PVTZ
    Blend: AUG-CC-PVTZ
  Basis Set: (AUG-CC-PVTZ AUX)
    Blend: AUG-CC-PVTZ-JKFIT

    Orbital Energies [Eh]
    ---------------------

    Doubly Occupied:

       1A    -15.543817     2A    -11.240705     3A    -11.239857
       4A     -1.198550     5A     -0.941700     6A     -0.853555
       7A     -0.659612     8A     -0.611290     9A     -0.589928
      10A     -0.543720    11A     -0.511469    12A     -0.488690
      13A     -0.374583

  @DF-RHF Final Energy:  -134.29087660774621

   => Energetics <=

    Nuclear Repulsion Energy =             84.2623542672775159
    One-Electron Energy =                -347.5115101076519863
    Two-Electron Energy =                 128.9582792326282288
    Total Energy =                       -134.2908766077462133
  Basis Set: (AUG-CC-PVTZ AUX)
    Blend: AUG-CC-PVTZ-RI
    Molecular point group: c1

    Geometry (in Angstrom), charge = 0, multiplicity = 1:

       Center              X                  Y                   Z               Mass
    ------------   -----------------  -----------------  -----------------  -----------------
         N            0.007779353471     0.556231149042    -0.137129457579    14.003074004430
         C            1.184858853471    -0.284592950958     0.045363242421    12.000000000000
         C           -1.198521646529    -0.243929850958     0.036523542421    12.000000000000
         H            0.007809353471     1.303179149042     0.555190542421     1.007825032230
         H            1.258606353471    -0.789004850958     0.994990542421     1.007825032230
         H            2.092960353471     0.401371149042    -0.038005457579     1.007825032230
         H            1.268108353471    -0.981615850958    -0.769446457579     1.007825032230
         H           -2.077391646529     0.401301149042    -0.037953457579     1.007825032230
         H           -1.243029646529    -0.789047850958     0.994983542421     1.007825032230
         H           -1.252471646529    -0.981622850958    -0.769446457579     1.007825032230

  Basis Set: AUG-CC-PVTZ
    Blend: AUG-CC-PVTZ
  Basis Set: (AUG-CC-PVTZ AUX)
    Blend: AUG-CC-PVTZ-JKFIT
	 Reference Energy          =    -134.2908766077462133 [Eh]
	 Singles Energy            =      -0.0000000000000000 [Eh]
	 Same-Spin Energy          =      -0.1367932883807759 [Eh]
	 Opposite-Spin Energy      =      -0.5048537875552431 [Eh]
	 Correlation Energy        =      -0.6416470759360191 [Eh]
	 Total Energy              =    -134.9325236836822342 [Eh]

	 ================> DF-SCS-MP2 Energies <==================
	-----------------------------------------------------------
	 SCS Same-Spin Scale       =       0.3333333333333333 [-]
	 SCS Opposite-Spin Scale   =       1.2000000000000000 [-]
	 SCS Same-Spin Energy      =      -0.0455977627935920 [Eh]
	 SCS Opposite-Spin Energy  =      -0.6058245450662917 [Eh]
	 SCS Correlation Energy    =      -0.6514223078598836 [Eh]
	 SCS Total Energy          =    -134.9422989156061021 [Eh]
	-----------------------------------------------------------

  Dipole Moment: [D]
     X:    -0.0206      Y:    -0.3212      Z:     1.0809     Total:     1.1278

*** Psi4 exiting successfully. Buy a developer a beer!
