                               Psi4 1.3.2 release

  ==> Input File <==

--------------------------------------------------------------------------
#psi4
#
memory 32 gb

molecule  {
0 1
  N       -0.0000260     0.5742700    -0.1528520
  C        1.2063640    -0.2258970     0.0208170
  C       -1.2063270    -0.2258910     0.0208010
  H       -0.0000019     1.1745346     0.4035122
  H        1.2508010    -0.7709660     0.9792680
  H        2.0851550     0.4194100    -0.0537280
  H        1.2603030    -0.9635770    -0.7851690
  H       -2.0851970     0.4193400    -0.0536760
  H       -1.2508350    -0.7710090     0.9792610
  H       -1.2602770    -0.9635840    -0.7851690
units angstrom
no_reorient  #important for SAPT in psi4, default
symmetry c1  #important for SAPT in psi4, default
}

set PROPERTIES_ORIGIN ["COM"]
properties('MP2/aug-cc-pvtz', properties = ['dipole'])
--------------------------------------------------------------------------

    Molecular point group: c1
  Charge       = 0
  Multiplicity = 1
  Basis Set: AUG-CC-PVTZ
    Blend: AUG-CC-PVTZ
  Basis Set: (AUG-CC-PVTZ AUX)
    Blend: AUG-CC-PVTZ-JKFIT

    Orbital Energies [Eh]
    ---------------------

    Doubly Occupied:

       1A    -15.518345     2A    -11.240546     3A    -11.240531
       4A     -1.231114     5A     -0.943999     6A     -0.886968
       7A     -0.678556     8A     -0.612191     9A     -0.590605
      10A     -0.537588    11A     -0.525850    12A     -0.503571
      13A     -0.374979

  @DF-RHF Final Energy:  -134.25095082020374

   => Energetics <=

    Nuclear Repulsion Energy =             85.3221094212363624
    One-Electron Energy =                -349.3764346512612065
    Two-Electron Energy =                 129.8033744098211173
    Total Energy =                       -134.2509508202037409
  Basis Set: (AUG-CC-PVTZ AUX)
    Blend: AUG-CC-PVTZ-RI
    Molecular point group: c1

    Geometry (in Angstrom), charge = 0, multiplicity = 1:

       Center              X                  Y                   Z               Mass
    ------------   -----------------  -----------------  -----------------  -----------------
         N           -0.000026612856     0.548684095566    -0.131738519870    14.003074004430
         C            1.206363387144    -0.251482904434     0.041930480130    12.000000000000
         C           -1.206327612856    -0.251476904434     0.041914480130    12.000000000000
         H           -0.000002512856     1.148948695566     0.424625680130     1.007825032230
         H            1.250800387144    -0.796551904434     1.000381480130     1.007825032230
         H            2.085154387144     0.393824095566    -0.032614519870     1.007825032230
         H            1.260302387144    -0.989162904434    -0.764055519870     1.007825032230
         H           -2.085197612856     0.393754095566    -0.032562519870     1.007825032230
         H           -1.250835612856    -0.796594904434     1.000374480130     1.007825032230
         H           -1.260277612856    -0.989169904434    -0.764055519870     1.007825032230

  Basis Set: AUG-CC-PVTZ
    Blend: AUG-CC-PVTZ
  Basis Set: (AUG-CC-PVTZ AUX)
    Blend: AUG-CC-PVTZ-JKFIT
	 Reference Energy          =    -134.2509508202037409 [Eh]
	 Singles Energy            =      -0.0000000000000000 [Eh]
	 Same-Spin Energy          =      -0.1358161036214316 [Eh]
	 Opposite-Spin Energy      =      -0.5020254938641499 [Eh]
	 Correlation Energy        =      -0.6378415974855816 [Eh]
	 Total Energy              =    -134.8887924176893307 [Eh]

	 ================> DF-SCS-MP2 Energies <==================
	-----------------------------------------------------------
	 SCS Same-Spin Scale       =       0.3333333333333333 [-]
	 SCS Opposite-Spin Scale   =       1.2000000000000000 [-]
	 SCS Same-Spin Energy      =      -0.0452720345404772 [Eh]
	 SCS Opposite-Spin Energy  =      -0.6024305926369798 [Eh]
	 SCS Correlation Energy    =      -0.6477026271774571 [Eh]
	 SCS Total Energy          =    -134.8986534473812071 [Eh]
	-----------------------------------------------------------

  Dipole Moment: [D]
     X:     0.0002      Y:    -0.3401      Z:     1.0266     Total:     1.0815

*** Psi4 exiting successfully. Buy a developer a beer!
