                               Psi4 1.4a3.dev225

  ==> Input File <==

--------------------------------------------------------------------------
#psi4
#
memory 32 gb

molecule  {
0 1
  N        0.0000000     0.5742850    -0.1528630
  C        1.2063400    -0.2259130     0.0208150
  C       -1.2063390    -0.2259120     0.0208160
  H        0.0000000     1.3358382     0.5531158
  H        1.2506670    -0.7711410     0.9791760
  H        2.0850840     0.4194780    -0.0535020
  H        1.2604060    -0.9634470    -0.7853030
  H       -2.0850820     0.4194800    -0.0534940
  H       -1.2506630    -0.7711500     0.9791720
  H       -1.2604150    -0.9634410    -0.7853080
units angstrom
no_reorient  #important for SAPT in psi4, default
symmetry c1  #important for SAPT in psi4, default
}

set PROPERTIES_ORIGIN ["COM"]
properties('MP2/aug-cc-pvtz', properties = ['dipole'])
--------------------------------------------------------------------------

    Molecular point group: c1
  Charge       = 0
  Multiplicity = 1
  Basis Set: AUG-CC-PVTZ
    Blend: AUG-CC-PVTZ
  Basis Set: (AUG-CC-PVTZ AUX)
    Blend: AUG-CC-PVTZ-JKFIT

    Orbital Energies [Eh]
    ---------------------

    Doubly Occupied:

       1A    -15.545420     2A    -11.240642     3A    -11.240626
       4A     -1.195129     5A     -0.943515     6A     -0.848906
       7A     -0.656977     8A     -0.611101     9A     -0.589097
      10A     -0.537438    11A     -0.506709    12A     -0.503244
      13A     -0.371181

  @DF-RHF Final Energy:  -134.29294448876277

   => Energetics <=

    Nuclear Repulsion Energy =             84.0440796529012459
    One-Electron Energy =                -347.0940784211690016
    Two-Electron Energy =                 128.7570542795049846
    Total Energy =                       -134.2929444887627710
  Basis Set: (AUG-CC-PVTZ AUX)
    Blend: AUG-CC-PVTZ-RI
    Molecular point group: c1

    Geometry (in Angstrom), charge = 0, multiplicity = 1:

       Center              X                  Y                   Z               Mass
    ------------   -----------------  -----------------  -----------------  -----------------
         N           -0.000000199222     0.545092661928    -0.135094771847    14.003074004430
         C            1.206339800778    -0.255105338072     0.038583228153    12.000000000000
         C           -1.206339199222    -0.255104338072     0.038584228153    12.000000000000
         H           -0.000000199222     1.306645861928     0.570884028153     1.007825032230
         H            1.250666800778    -0.800333338072     0.996944228153     1.007825032230
         H            2.085083800778     0.390285661928    -0.035733771847     1.007825032230
         H            1.260405800778    -0.992639338072    -0.767534771847     1.007825032230
         H           -2.085082199222     0.390287661928    -0.035725771847     1.007825032230
         H           -1.250663199222    -0.800342338072     0.996940228153     1.007825032230
         H           -1.260415199222    -0.992633338072    -0.767539771847     1.007825032230

  Basis Set: AUG-CC-PVTZ
    Blend: AUG-CC-PVTZ
  Basis Set: (AUG-CC-PVTZ AUX)
    Blend: AUG-CC-PVTZ-JKFIT
	 Reference Energy          =    -134.2929444887627710 [Eh]
	 Singles Energy            =      -0.0000000000000000 [Eh]
	 Same-Spin Energy          =      -0.1367836375357401 [Eh]
	 Opposite-Spin Energy      =      -0.5049032168641714 [Eh]
	 Correlation Energy        =      -0.6416868543999115 [Eh]
	 Total Energy              =    -134.9346313431626925 [Eh]

	 ================> DF-SCS-MP2 Energies <==================
	-----------------------------------------------------------
	 SCS Same-Spin Scale       =       0.3333333333333333 [-]
	 SCS Opposite-Spin Scale   =       1.2000000000000000 [-]
	 SCS Same-Spin Energy      =      -0.0455945458452467 [Eh]
	 SCS Opposite-Spin Energy  =      -0.6058838602370057 [Eh]
	 SCS Correlation Energy    =      -0.6514784060822524 [Eh]
	 SCS Total Energy          =    -134.9444228948450188 [Eh]
	-----------------------------------------------------------

  Dipole Moment: [D]
     X:     0.0000      Y:    -0.2829      Z:     1.0593     Total:     1.0964

*** Psi4 exiting successfully. Buy a developer a beer!
