                               Psi4 1.3.2 release

  ==> Input File <==

--------------------------------------------------------------------------
#psi4
#
memory 32 gb

molecule  {
0 1
  N       -0.0000260     0.5742700    -0.1528520
  C        1.2891060    -0.2807776     0.0327283
  C       -1.2063270    -0.2258910     0.0208010
  H        0.0000040     1.3212180     0.5394680
  H        1.2508010    -0.7709660     0.9792680
  H        2.0851550     0.4194100    -0.0537280
  H        1.2603030    -0.9635770    -0.7851690
  H       -2.0851970     0.4193400    -0.0536760
  H       -1.2508350    -0.7710090     0.9792610
  H       -1.2602770    -0.9635840    -0.7851690
units angstrom
no_reorient  #important for SAPT in psi4, default
symmetry c1  #important for SAPT in psi4, default
}

set PROPERTIES_ORIGIN ["COM"]
properties('MP2/aug-cc-pvtz', properties = ['dipole'])
--------------------------------------------------------------------------

    Molecular point group: c1
  Charge       = 0
  Multiplicity = 1
  Basis Set: AUG-CC-PVTZ
    Blend: AUG-CC-PVTZ
  Basis Set: (AUG-CC-PVTZ AUX)
    Blend: AUG-CC-PVTZ-JKFIT

    Orbital Energies [Eh]
    ---------------------

    Doubly Occupied:

       1A    -15.541643     2A    -11.239154     3A    -11.237902
       4A     -1.174612     5A     -0.943878     6A     -0.853923
       7A     -0.649292     8A     -0.612384     9A     -0.577916
      10A     -0.550488    11A     -0.519649    12A     -0.487373
      13A     -0.369588

  @DF-RHF Final Energy:  -134.28580010391300

   => Energetics <=

    Nuclear Repulsion Energy =             83.0107816359103481
    One-Electron Energy =                -345.0775578047159229
    Two-Electron Energy =                 127.7809760648925845
    Total Energy =                       -134.2858001039130045
  Basis Set: (AUG-CC-PVTZ AUX)
    Blend: AUG-CC-PVTZ-RI
    Molecular point group: c1

    Geometry (in Angstrom), charge = 0, multiplicity = 1:

       Center              X                  Y                   Z               Mass
    ------------   -----------------  -----------------  -----------------  -----------------
         N           -0.022062949768     0.560019212674    -0.137951760477    14.003074004430
         C            1.267069050232    -0.295028387326     0.047628539523    12.000000000000
         C           -1.228363949768    -0.240141787326     0.035701239523    12.000000000000
         H           -0.022032949768     1.306967212674     0.554368239523     1.007825032230
         H            1.228764050232    -0.785216787326     0.994168239523     1.007825032230
         H            2.063118050232     0.405159212674    -0.038827760477     1.007825032230
         H            1.238266050232    -0.977827787326    -0.770268760477     1.007825032230
         H           -2.107233949768     0.405089212674    -0.038775760477     1.007825032230
         H           -1.272871949768    -0.785259787326     0.994161239523     1.007825032230
         H           -1.282313949768    -0.977834787326    -0.770268760477     1.007825032230

  Basis Set: AUG-CC-PVTZ
    Blend: AUG-CC-PVTZ
  Basis Set: (AUG-CC-PVTZ AUX)
    Blend: AUG-CC-PVTZ-JKFIT
	 Reference Energy          =    -134.2858001039130045 [Eh]
	 Singles Energy            =      -0.0000000000000000 [Eh]
	 Same-Spin Energy          =      -0.1365175069248191 [Eh]
	 Opposite-Spin Energy      =      -0.5054532194871693 [Eh]
	 Correlation Energy        =      -0.6419707264119883 [Eh]
	 Total Energy              =    -134.9277708303249881 [Eh]

	 ================> DF-SCS-MP2 Energies <==================
	-----------------------------------------------------------
	 SCS Same-Spin Scale       =       0.3333333333333333 [-]
	 SCS Opposite-Spin Scale   =       1.2000000000000000 [-]
	 SCS Same-Spin Energy      =      -0.0455058356416064 [Eh]
	 SCS Opposite-Spin Energy  =      -0.6065438633846031 [Eh]
	 SCS Correlation Energy    =      -0.6520496990262095 [Eh]
	 SCS Total Energy          =    -134.9378498029392119 [Eh]
	-----------------------------------------------------------

  Dipole Moment: [D]
     X:     0.1624      Y:    -0.4050      Z:     1.1091     Total:     1.1919

*** Psi4 exiting successfully. Buy a developer a beer!
