                               Psi4 1.3.2 release

  ==> Input File <==

--------------------------------------------------------------------------
#psi4
#
memory 32 gb

molecule  {
0 1
  N       -0.0000260     0.5742700    -0.1528520
  C        1.1918903    -0.2463506     0.0252560
  C       -1.2063270    -0.2258910     0.0208010
  H        0.0000040     1.3212180     0.5394680
  H        1.2508010    -0.7709660     0.9792680
  H        2.0851550     0.4194100    -0.0537280
  H        1.2603030    -0.9635770    -0.7851690
  H       -2.0851970     0.4193400    -0.0536760
  H       -1.2508350    -0.7710090     0.9792610
  H       -1.2602770    -0.9635840    -0.7851690
units angstrom
no_reorient  #important for SAPT in psi4, default
symmetry c1  #important for SAPT in psi4, default
}

set PROPERTIES_ORIGIN ["COM"]
properties('MP2/aug-cc-pvtz', properties = ['dipole'])
--------------------------------------------------------------------------

    Molecular point group: c1
  Charge       = 0
  Multiplicity = 1
  Basis Set: AUG-CC-PVTZ
    Blend: AUG-CC-PVTZ
  Basis Set: (AUG-CC-PVTZ AUX)
    Blend: AUG-CC-PVTZ-JKFIT

    Orbital Energies [Eh]
    ---------------------

    Doubly Occupied:

       1A    -15.543424     2A    -11.240516     3A    -11.240175
       4A     -1.197890     5A     -0.942530     6A     -0.852514
       7A     -0.659000     8A     -0.611098     9A     -0.589634
      10A     -0.540613    11A     -0.510041    12A     -0.496249
      13A     -0.373025

  @DF-RHF Final Energy:  -134.29308331149102

   => Energetics <=

    Nuclear Repulsion Energy =             84.2014188729851440
    One-Electron Energy =                -347.3955876878466711
    Two-Electron Energy =                 128.9010855033705241
    Total Energy =                       -134.2930833114910172
  Basis Set: (AUG-CC-PVTZ AUX)
    Blend: AUG-CC-PVTZ-RI
    Molecular point group: c1

    Geometry (in Angstrom), charge = 0, multiplicity = 1:

       Center              X                  Y                   Z               Mass
    ------------   -----------------  -----------------  -----------------  -----------------
         N            0.003827953148     0.550850466117    -0.135961705436    14.003074004430
         C            1.195744253148    -0.269770133883     0.042146294564    12.000000000000
         C           -1.202473046852    -0.249310533883     0.037691294564    12.000000000000
         H            0.003857953148     1.297798466117     0.556358294564     1.007825032230
         H            1.254654953148    -0.794385533883     0.996158294564     1.007825032230
         H            2.089008953148     0.395990466117    -0.036837705436     1.007825032230
         H            1.264156953148    -0.986996533883    -0.768278705436     1.007825032230
         H           -2.081343046852     0.395920466117    -0.036785705436     1.007825032230
         H           -1.246981046852    -0.794428533883     0.996151294564     1.007825032230
         H           -1.256423046852    -0.987003533883    -0.768278705436     1.007825032230

  Basis Set: AUG-CC-PVTZ
    Blend: AUG-CC-PVTZ
  Basis Set: (AUG-CC-PVTZ AUX)
    Blend: AUG-CC-PVTZ-JKFIT
	 Reference Energy          =    -134.2930833114910172 [Eh]
	 Singles Energy            =      -0.0000000000000000 [Eh]
	 Same-Spin Energy          =      -0.1367286245221330 [Eh]
	 Opposite-Spin Energy      =      -0.5046736602834346 [Eh]
	 Correlation Energy        =      -0.6414022848055676 [Eh]
	 Total Energy              =    -134.9344855962965823 [Eh]

	 ================> DF-SCS-MP2 Energies <==================
	-----------------------------------------------------------
	 SCS Same-Spin Scale       =       0.3333333333333333 [-]
	 SCS Opposite-Spin Scale   =       1.2000000000000000 [-]
	 SCS Same-Spin Energy      =      -0.0455762081740443 [Eh]
	 SCS Opposite-Spin Energy  =      -0.6056083923401215 [Eh]
	 SCS Correlation Energy    =      -0.6511846005141659 [Eh]
	 SCS Total Energy          =    -134.9442679120051878 [Eh]
	-----------------------------------------------------------

  Dipole Moment: [D]
     X:    -0.0083      Y:    -0.3030      Z:     1.0698     Total:     1.1119

*** Psi4 exiting successfully. Buy a developer a beer!
