                               Psi4 1.3.2 release

  ==> Input File <==

--------------------------------------------------------------------------
#psi4
#
memory 32 gb

molecule  {
0 1
  N       -0.0000260     0.5742700    -0.1528520
  C        1.2199260    -0.1954796     0.0592984
  C       -1.2063270    -0.2258910     0.0208010
  H        0.0000040     1.3212180     0.5394680
  H        1.2508010    -0.7709660     0.9792680
  H        2.0851550     0.4194100    -0.0537280
  H        1.2603030    -0.9635770    -0.7851690
  H       -2.0851970     0.4193400    -0.0536760
  H       -1.2508350    -0.7710090     0.9792610
  H       -1.2602770    -0.9635840    -0.7851690
units angstrom
no_reorient  #important for SAPT in psi4, default
symmetry c1  #important for SAPT in psi4, default
}

set PROPERTIES_ORIGIN ["COM"]
properties('MP2/aug-cc-pvtz', properties = ['dipole'])
--------------------------------------------------------------------------

    Molecular point group: c1
  Charge       = 0
  Multiplicity = 1
  Basis Set: AUG-CC-PVTZ
    Blend: AUG-CC-PVTZ
  Basis Set: (AUG-CC-PVTZ AUX)
    Blend: AUG-CC-PVTZ-JKFIT

    Orbital Energies [Eh]
    ---------------------

    Doubly Occupied:

       1A    -15.543679     2A    -11.241319     3A    -11.240883
       4A     -1.197805     5A     -0.944732     6A     -0.850662
       7A     -0.658875     8A     -0.615902     9A     -0.589940
      10A     -0.533036    11A     -0.510690    12A     -0.498375
      13A     -0.373020

  @DF-RHF Final Energy:  -134.29106101828458

   => Energetics <=

    Nuclear Repulsion Energy =             84.0904371845225427
    One-Electron Energy =                -347.1651625590549770
    Two-Electron Energy =                 128.7836643562478400
    Total Energy =                       -134.2910610182845801
  Basis Set: (AUG-CC-PVTZ AUX)
    Blend: AUG-CC-PVTZ-RI
    Molecular point group: c1

    Geometry (in Angstrom), charge = 0, multiplicity = 1:

       Center              X                  Y                   Z               Mass
    ------------   -----------------  -----------------  -----------------  -----------------
         N           -0.003638634933     0.537302282828    -0.145028023669    14.003074004430
         C            1.216313365067    -0.232447317172     0.067122376331    12.000000000000
         C           -1.209939634933    -0.262858717172     0.028624976331    12.000000000000
         H           -0.003608634933     1.284250282828     0.547291976331     1.007825032230
         H            1.247188365067    -0.807933717172     0.987091976331     1.007825032230
         H            2.081542365067     0.382442282828    -0.045904023669     1.007825032230
         H            1.256690365067    -1.000544717172    -0.777345023669     1.007825032230
         H           -2.088809634933     0.382372282828    -0.045852023669     1.007825032230
         H           -1.254447634933    -0.807976717172     0.987084976331     1.007825032230
         H           -1.263889634933    -1.000551717172    -0.777345023669     1.007825032230

  Basis Set: AUG-CC-PVTZ
    Blend: AUG-CC-PVTZ
  Basis Set: (AUG-CC-PVTZ AUX)
    Blend: AUG-CC-PVTZ-JKFIT
	 Reference Energy          =    -134.2910610182845801 [Eh]
	 Singles Energy            =      -0.0000000000000000 [Eh]
	 Same-Spin Energy          =      -0.1367546051529261 [Eh]
	 Opposite-Spin Energy      =      -0.5047664620268093 [Eh]
	 Correlation Energy        =      -0.6415210671797353 [Eh]
	 Total Energy              =    -134.9325820854643041 [Eh]

	 ================> DF-SCS-MP2 Energies <==================
	-----------------------------------------------------------
	 SCS Same-Spin Scale       =       0.3333333333333333 [-]
	 SCS Opposite-Spin Scale   =       1.2000000000000000 [-]
	 SCS Same-Spin Energy      =      -0.0455848683843087 [Eh]
	 SCS Opposite-Spin Energy  =      -0.6057197544321712 [Eh]
	 SCS Correlation Energy    =      -0.6513046228164798 [Eh]
	 SCS Total Energy          =    -134.9423656411010484 [Eh]
	-----------------------------------------------------------

  Dipole Moment: [D]
     X:    -0.0115      Y:    -0.2639      Z:     1.1029     Total:     1.1341

*** Psi4 exiting successfully. Buy a developer a beer!
