                               Psi4 1.3.2 release

  ==> Input File <==

--------------------------------------------------------------------------
#psi4
#
memory 32 gb

molecule  {
0 1
  N       -0.0000260     0.5742700    -0.1528520
  C        1.2063640    -0.2258970     0.0208170
  C       -1.2063270    -0.2258910     0.0208010
  H        0.0000099     1.4679014     0.6754238
  H        1.2508010    -0.7709660     0.9792680
  H        2.0851550     0.4194100    -0.0537280
  H        1.2603030    -0.9635770    -0.7851690
  H       -2.0851970     0.4193400    -0.0536760
  H       -1.2508350    -0.7710090     0.9792610
  H       -1.2602770    -0.9635840    -0.7851690
units angstrom
no_reorient  #important for SAPT in psi4, default
symmetry c1  #important for SAPT in psi4, default
}

set PROPERTIES_ORIGIN ["COM"]
properties('MP2/aug-cc-pvtz', properties = ['dipole'])
--------------------------------------------------------------------------

    Molecular point group: c1
  Charge       = 0
  Multiplicity = 1
  Basis Set: AUG-CC-PVTZ
    Blend: AUG-CC-PVTZ
  Basis Set: (AUG-CC-PVTZ AUX)
    Blend: AUG-CC-PVTZ-JKFIT

    Orbital Energies [Eh]
    ---------------------

    Doubly Occupied:

       1A    -15.564143     2A    -11.241805     3A    -11.241788
       4A     -1.182037     5A     -0.944227     6A     -0.830963
       7A     -0.639706     8A     -0.611386     9A     -0.589441
      10A     -0.538195    11A     -0.504226    12A     -0.486836
      13A     -0.369518

  @DF-RHF Final Energy:  -134.26616771392634

   => Energetics <=

    Nuclear Repulsion Energy =             83.2725339544208936
    One-Electron Energy =                -345.5888607370915224
    Two-Electron Energy =                 128.0501590687442786
    Total Energy =                       -134.2661677139263361
  Basis Set: (AUG-CC-PVTZ AUX)
    Blend: AUG-CC-PVTZ-RI
    Molecular point group: c1

    Geometry (in Angstrom), charge = 0, multiplicity = 1:

       Center              X                  Y                   Z               Mass
    ------------   -----------------  -----------------  -----------------  -----------------
         N           -0.000026876790     0.542122255405    -0.137820463898    14.003074004430
         C            1.206363123210    -0.258044744595     0.035848536102    12.000000000000
         C           -1.206327876790    -0.258038744595     0.035832536102    12.000000000000
         H            0.000009023210     1.435753655405     0.690455336102     1.007825032230
         H            1.250800123210    -0.803113744595     0.994299536102     1.007825032230
         H            2.085154123210     0.387262255405    -0.038696463898     1.007825032230
         H            1.260302123210    -0.995724744595    -0.770137463898     1.007825032230
         H           -2.085197876790     0.387192255405    -0.038644463898     1.007825032230
         H           -1.250835876790    -0.803156744595     0.994292536102     1.007825032230
         H           -1.260277876790    -0.995731744595    -0.770137463898     1.007825032230

  Basis Set: AUG-CC-PVTZ
    Blend: AUG-CC-PVTZ
  Basis Set: (AUG-CC-PVTZ AUX)
    Blend: AUG-CC-PVTZ-JKFIT
	 Reference Energy          =    -134.2661677139263361 [Eh]
	 Singles Energy            =      -0.0000000000000000 [Eh]
	 Same-Spin Energy          =      -0.1375748970406048 [Eh]
	 Opposite-Spin Energy      =      -0.5083863019196682 [Eh]
	 Correlation Energy        =      -0.6459611989602729 [Eh]
	 Total Energy              =    -134.9121289128866010 [Eh]

	 ================> DF-SCS-MP2 Energies <==================
	-----------------------------------------------------------
	 SCS Same-Spin Scale       =       0.3333333333333333 [-]
	 SCS Opposite-Spin Scale   =       1.2000000000000000 [-]
	 SCS Same-Spin Energy      =      -0.0458582990135349 [Eh]
	 SCS Opposite-Spin Energy  =      -0.6100635623036018 [Eh]
	 SCS Correlation Energy    =      -0.6559218613171367 [Eh]
	 SCS Total Energy          =    -134.9220895752434615 [Eh]
	-----------------------------------------------------------

  Dipole Moment: [D]
     X:     0.0002      Y:    -0.3120      Z:     1.0500     Total:     1.0953

*** Psi4 exiting successfully. Buy a developer a beer!
