                               Psi4 1.3.2 release

  ==> Input File <==

--------------------------------------------------------------------------
#psi4
#
memory 32 gb

molecule  {
0 1
  N       -0.0000260     0.5742700    -0.1528520
  C        1.1569344    -0.3111577    -0.0957080
  C       -1.2063270    -0.2258910     0.0208010
  H        0.0000040     1.3212180     0.5394680
  H        1.2508010    -0.7709660     0.9792680
  H        2.0851550     0.4194100    -0.0537280
  H        1.2603030    -0.9635770    -0.7851690
  H       -2.0851970     0.4193400    -0.0536760
  H       -1.2508350    -0.7710090     0.9792610
  H       -1.2602770    -0.9635840    -0.7851690
units angstrom
no_reorient  #important for SAPT in psi4, default
symmetry c1  #important for SAPT in psi4, default
}

set PROPERTIES_ORIGIN ["COM"]
properties('MP2/aug-cc-pvtz', properties = ['dipole'])
--------------------------------------------------------------------------

    Molecular point group: c1
  Charge       = 0
  Multiplicity = 1
  Basis Set: AUG-CC-PVTZ
    Blend: AUG-CC-PVTZ
  Basis Set: (AUG-CC-PVTZ AUX)
    Blend: AUG-CC-PVTZ-JKFIT

    Orbital Energies [Eh]
    ---------------------

    Doubly Occupied:

       1A    -15.544295     2A    -11.245466     3A    -11.239374
       4A     -1.198287     5A     -0.943919     6A     -0.861078
       7A     -0.657835     8A     -0.623197     9A     -0.589058
      10A     -0.548376    11A     -0.519272    12A     -0.475278
      13A     -0.365348

  @DF-RHF Final Energy:  -134.26427012523979

   => Energetics <=

    Nuclear Repulsion Energy =             84.3354276563250806
    One-Electron Energy =                -347.5778270963587602
    Two-Electron Energy =                 128.9781293147939039
    Total Energy =                       -134.2642701252397899
  Basis Set: (AUG-CC-PVTZ AUX)
    Blend: AUG-CC-PVTZ-RI
    Molecular point group: c1

    Geometry (in Angstrom), charge = 0, multiplicity = 1:

       Center              X                  Y                   Z               Mass
    ------------   -----------------  -----------------  -----------------  -----------------
         N            0.013137558625     0.568110171436    -0.103746053229    14.003074004430
         C            1.170097958625    -0.317317528564    -0.046602053229    12.000000000000
         C           -1.193163441375    -0.232050828564     0.069906946771    12.000000000000
         H            0.013167558625     1.315058171436     0.588573946771     1.007825032230
         H            1.263964558625    -0.777125828564     1.028373946771     1.007825032230
         H            2.098318558625     0.413250171436    -0.004622053229     1.007825032230
         H            1.273466558625    -0.969736828564    -0.736063053229     1.007825032230
         H           -2.072033441375     0.413180171436    -0.004570053229     1.007825032230
         H           -1.237671441375    -0.777168828564     1.028366946771     1.007825032230
         H           -1.247113441375    -0.969743828564    -0.736063053229     1.007825032230

  Basis Set: AUG-CC-PVTZ
    Blend: AUG-CC-PVTZ
  Basis Set: (AUG-CC-PVTZ AUX)
    Blend: AUG-CC-PVTZ-JKFIT
	 Reference Energy          =    -134.2642701252397899 [Eh]
	 Singles Energy            =      -0.0000000000000000 [Eh]
	 Same-Spin Energy          =      -0.1370566568173520 [Eh]
	 Opposite-Spin Energy      =      -0.5057395621248297 [Eh]
	 Correlation Energy        =      -0.6427962189421816 [Eh]
	 Total Energy              =    -134.9070663441819704 [Eh]

	 ================> DF-SCS-MP2 Energies <==================
	-----------------------------------------------------------
	 SCS Same-Spin Scale       =       0.3333333333333333 [-]
	 SCS Opposite-Spin Scale   =       1.2000000000000000 [-]
	 SCS Same-Spin Energy      =      -0.0456855522724506 [Eh]
	 SCS Opposite-Spin Energy  =      -0.6068874745497956 [Eh]
	 SCS Correlation Energy    =      -0.6525730268222463 [Eh]
	 SCS Total Energy          =    -134.9168431520620288 [Eh]
	-----------------------------------------------------------

  Dipole Moment: [D]
     X:    -0.0294      Y:    -0.2874      Z:     0.9370     Total:     0.9805

*** Psi4 exiting successfully. Buy a developer a beer!
