                               Psi4 1.4a3.dev225

  ==> Input File <==

--------------------------------------------------------------------------
#psi4
#
memory 32 gb

molecule  {
0 1
  N        0.0000000     0.5742850    -0.1528630
  C        1.2477099    -0.2533548     0.0267711
  C       -1.2063390    -0.2259120     0.0208160
  H        0.0000000     1.3211710     0.5395190
  H        1.2506670    -0.7711410     0.9791760
  H        2.0850840     0.4194780    -0.0535020
  H        1.2604060    -0.9634470    -0.7853030
  H       -2.0850820     0.4194800    -0.0534940
  H       -1.2506630    -0.7711500     0.9791720
  H       -1.2604150    -0.9634410    -0.7853080
units angstrom
no_reorient  #important for SAPT in psi4, default
symmetry c1  #important for SAPT in psi4, default
}

set PROPERTIES_ORIGIN ["COM"]
properties('MP2/aug-cc-pvtz', properties = ['dipole'])
--------------------------------------------------------------------------

    Molecular point group: c1
  Charge       = 0
  Multiplicity = 1
  Basis Set: AUG-CC-PVTZ
    Blend: AUG-CC-PVTZ
  Basis Set: (AUG-CC-PVTZ AUX)
    Blend: AUG-CC-PVTZ-JKFIT

    Orbital Energies [Eh]
    ---------------------

    Doubly Occupied:

       1A    -15.542414     2A    -11.239418     3A    -11.239139
       4A     -1.185083     5A     -0.943304     6A     -0.853067
       7A     -0.653548     8A     -0.610980     9A     -0.582808
      10A     -0.543734    11A     -0.514275    12A     -0.497021
      13A     -0.370949

  @DF-RHF Final Energy:  -134.29179381557105

   => Energetics <=

    Nuclear Repulsion Energy =             83.5643949733916713
    One-Electron Energy =                -346.1608971319608372
    Two-Electron Energy =                 128.3047083429980830
    Total Energy =                       -134.2917938155710544
  Basis Set: (AUG-CC-PVTZ AUX)
    Blend: AUG-CC-PVTZ-RI
    Molecular point group: c1

    Geometry (in Angstrom), charge = 0, multiplicity = 1:

       Center              X                  Y                   Z               Mass
    ------------   -----------------  -----------------  -----------------  -----------------
         N           -0.011018008738     0.552729146519    -0.136376901500    14.003074004430
         C            1.236691891262    -0.274910653481     0.043257198500    12.000000000000
         C           -1.217357008738    -0.247467853481     0.037302098500    12.000000000000
         H           -0.011018008738     1.299615146519     0.556005098500     1.007825032230
         H            1.239648991262    -0.792696853481     0.995662098500     1.007825032230
         H            2.074065991262     0.397922146519    -0.037015901500     1.007825032230
         H            1.249387991262    -0.985002853481    -0.768816901500     1.007825032230
         H           -2.096100008738     0.397924146519    -0.037007901500     1.007825032230
         H           -1.261681008738    -0.792705853481     0.995658098500     1.007825032230
         H           -1.271433008738    -0.984996853481    -0.768821901500     1.007825032230

  Basis Set: AUG-CC-PVTZ
    Blend: AUG-CC-PVTZ
  Basis Set: (AUG-CC-PVTZ AUX)
    Blend: AUG-CC-PVTZ-JKFIT
	 Reference Energy          =    -134.2917938155710544 [Eh]
	 Singles Energy            =      -0.0000000000000000 [Eh]
	 Same-Spin Energy          =      -0.1365253717974645 [Eh]
	 Opposite-Spin Energy      =      -0.5048698875954365 [Eh]
	 Correlation Energy        =      -0.6413952593929010 [Eh]
	 Total Energy              =    -134.9331890749639626 [Eh]

	 ================> DF-SCS-MP2 Energies <==================
	-----------------------------------------------------------
	 SCS Same-Spin Scale       =       0.3333333333333333 [-]
	 SCS Opposite-Spin Scale   =       1.2000000000000000 [-]
	 SCS Same-Spin Energy      =      -0.0455084572658215 [Eh]
	 SCS Opposite-Spin Energy  =      -0.6058438651145238 [Eh]
	 SCS Correlation Energy    =      -0.6513523223803453 [Eh]
	 SCS Total Energy          =    -134.9431461379514019 [Eh]
	-----------------------------------------------------------

  Dipole Moment: [D]
     X:     0.0893      Y:    -0.3499      Z:     1.0862     Total:     1.1446

*** Psi4 exiting successfully. Buy a developer a beer!
