                               Psi4 1.3.2 release

  ==> Input File <==

--------------------------------------------------------------------------
#psi4
#
memory 32 gb

molecule  {
0 1
  N       -0.0000260     0.5742700    -0.1528520
  C        1.2342047    -0.1842650     0.0117817
  C       -1.2063270    -0.2258910     0.0208010
  H        0.0000040     1.3212180     0.5394680
  H        1.2508010    -0.7709660     0.9792680
  H        2.0851550     0.4194100    -0.0537280
  H        1.2603030    -0.9635770    -0.7851690
  H       -2.0851970     0.4193400    -0.0536760
  H       -1.2508350    -0.7710090     0.9792610
  H       -1.2602770    -0.9635840    -0.7851690
units angstrom
no_reorient  #important for SAPT in psi4, default
symmetry c1  #important for SAPT in psi4, default
}

set PROPERTIES_ORIGIN ["COM"]
properties('MP2/aug-cc-pvtz', properties = ['dipole'])
--------------------------------------------------------------------------

    Molecular point group: c1
  Charge       = 0
  Multiplicity = 1
  Basis Set: AUG-CC-PVTZ
    Blend: AUG-CC-PVTZ
  Basis Set: (AUG-CC-PVTZ AUX)
    Blend: AUG-CC-PVTZ-JKFIT

    Orbital Energies [Eh]
    ---------------------

    Doubly Occupied:

       1A    -15.542909     2A    -11.241604     3A    -11.241427
       4A     -1.196545     5A     -0.945948     6A     -0.850526
       7A     -0.661222     8A     -0.611575     9A     -0.587792
      10A     -0.531229    11A     -0.517240    12A     -0.503852
      13A     -0.368101

  @DF-RHF Final Energy:  -134.29110160036652

   => Energetics <=

    Nuclear Repulsion Energy =             84.0296551143027273
    One-Electron Energy =                -347.0415722309266471
    Two-Electron Energy =                 128.7208155162574030
    Total Energy =                       -134.2911016003665168
  Basis Set: (AUG-CC-PVTZ AUX)
    Blend: AUG-CC-PVTZ-RI
    Molecular point group: c1

    Geometry (in Angstrom), charge = 0, multiplicity = 1:

       Center              X                  Y                   Z               Mass
    ------------   -----------------  -----------------  -----------------  -----------------
         N           -0.007441399666     0.534315562372    -0.132373171967    14.003074004430
         C            1.226789300334    -0.224219437628     0.032260528033    12.000000000000
         C           -1.213742399666    -0.265845437628     0.041279828033    12.000000000000
         H           -0.007411399666     1.281263562372     0.559946828033     1.007825032230
         H            1.243385600334    -0.810920437628     0.999746828033     1.007825032230
         H            2.077739600334     0.379455562372    -0.033249171967     1.007825032230
         H            1.252887600334    -1.003531437628    -0.764690171967     1.007825032230
         H           -2.092612399666     0.379385562372    -0.033197171967     1.007825032230
         H           -1.258250399666    -0.810963437628     0.999739828033     1.007825032230
         H           -1.267692399666    -1.003538437628    -0.764690171967     1.007825032230

  Basis Set: AUG-CC-PVTZ
    Blend: AUG-CC-PVTZ
  Basis Set: (AUG-CC-PVTZ AUX)
    Blend: AUG-CC-PVTZ-JKFIT
	 Reference Energy          =    -134.2911016003665168 [Eh]
	 Singles Energy            =      -0.0000000000000000 [Eh]
	 Same-Spin Energy          =      -0.1366774675911115 [Eh]
	 Opposite-Spin Energy      =      -0.5045658373854336 [Eh]
	 Correlation Energy        =      -0.6412433049765451 [Eh]
	 Total Energy              =    -134.9323449053430579 [Eh]

	 ================> DF-SCS-MP2 Energies <==================
	-----------------------------------------------------------
	 SCS Same-Spin Scale       =       0.3333333333333333 [-]
	 SCS Opposite-Spin Scale   =       1.2000000000000000 [-]
	 SCS Same-Spin Energy      =      -0.0455591558637038 [Eh]
	 SCS Opposite-Spin Energy  =      -0.6054790048625203 [Eh]
	 SCS Correlation Energy    =      -0.6510381607262241 [Eh]
	 SCS Total Energy          =    -134.9421397610927329 [Eh]
	-----------------------------------------------------------

  Dipole Moment: [D]
     X:     0.0052      Y:    -0.2435      Z:     1.0313     Total:     1.0596

*** Psi4 exiting successfully. Buy a developer a beer!
