                               Psi4 1.3.2 release

  ==> Input File <==

--------------------------------------------------------------------------
#psi4
#
memory 32 gb

molecule  {
0 1
  N       -0.0000260     0.5742700    -0.1528520
  C        1.1463089    -0.3061869     0.0382421
  C       -1.2063270    -0.2258910     0.0208010
  H        0.0000040     1.3212180     0.5394680
  H        1.2508010    -0.7709660     0.9792680
  H        2.0851550     0.4194100    -0.0537280
  H        1.2603030    -0.9635770    -0.7851690
  H       -2.0851970     0.4193400    -0.0536760
  H       -1.2508350    -0.7710090     0.9792610
  H       -1.2602770    -0.9635840    -0.7851690
units angstrom
no_reorient  #important for SAPT in psi4, default
symmetry c1  #important for SAPT in psi4, default
}

set PROPERTIES_ORIGIN ["COM"]
properties('MP2/aug-cc-pvtz', properties = ['dipole'])
--------------------------------------------------------------------------

    Molecular point group: c1
  Charge       = 0
  Multiplicity = 1
  Basis Set: AUG-CC-PVTZ
    Blend: AUG-CC-PVTZ
  Basis Set: (AUG-CC-PVTZ AUX)
    Blend: AUG-CC-PVTZ-JKFIT

    Orbital Energies [Eh]
    ---------------------

    Doubly Occupied:

       1A    -15.544914     2A    -11.241835     3A    -11.239463
       4A     -1.200192     5A     -0.940441     6A     -0.856011
       7A     -0.662533     8A     -0.612601     9A     -0.589912
      10A     -0.549318    11A     -0.514041    12A     -0.472824
      13A     -0.377557

  @DF-RHF Final Energy:  -134.28281570084138

   => Energetics <=

    Nuclear Repulsion Energy =             84.3878531613172100
    One-Electron Energy =                -347.7380534279231483
    Two-Electron Energy =                 129.0673845657645700
    Total Energy =                       -134.2828157008413825
  Basis Set: (AUG-CC-PVTZ AUX)
    Blend: AUG-CC-PVTZ-RI
    Molecular point group: c1

    Geometry (in Angstrom), charge = 0, multiplicity = 1:

       Center              X                  Y                   Z               Mass
    ------------   -----------------  -----------------  -----------------  -----------------
         N            0.015967387438     0.566786326623    -0.139420219383    14.003074004430
         C            1.162302287438    -0.313670573377     0.051673880617    12.000000000000
         C           -1.190333612562    -0.233374673377     0.034232780617    12.000000000000
         H            0.015997387438     1.313734326623     0.552899780617     1.007825032230
         H            1.266794387438    -0.778449673377     0.992699780617     1.007825032230
         H            2.101148387438     0.411926326623    -0.040296219383     1.007825032230
         H            1.276296387438    -0.971060673377    -0.771737219383     1.007825032230
         H           -2.069203612562     0.411856326623    -0.040244219383     1.007825032230
         H           -1.234841612562    -0.778492673377     0.992692780617     1.007825032230
         H           -1.244283612562    -0.971067673377    -0.771737219383     1.007825032230

  Basis Set: AUG-CC-PVTZ
    Blend: AUG-CC-PVTZ
  Basis Set: (AUG-CC-PVTZ AUX)
    Blend: AUG-CC-PVTZ-JKFIT
	 Reference Energy          =    -134.2828157008413825 [Eh]
	 Singles Energy            =      -0.0000000000000000 [Eh]
	 Same-Spin Energy          =      -0.1369918727321839 [Eh]
	 Opposite-Spin Energy      =      -0.5054167937756706 [Eh]
	 Correlation Energy        =      -0.6424086665078546 [Eh]
	 Total Energy              =    -134.9252243673492444 [Eh]

	 ================> DF-SCS-MP2 Energies <==================
	-----------------------------------------------------------
	 SCS Same-Spin Scale       =       0.3333333333333333 [-]
	 SCS Opposite-Spin Scale   =       1.2000000000000000 [-]
	 SCS Same-Spin Energy      =      -0.0456639575773946 [Eh]
	 SCS Opposite-Spin Energy  =      -0.6065001525308047 [Eh]
	 SCS Correlation Energy    =      -0.6521641101081993 [Eh]
	 SCS Total Energy          =    -134.9349798109495850 [Eh]
	-----------------------------------------------------------

  Dipole Moment: [D]
     X:    -0.0557      Y:    -0.3549      Z:     1.1004     Total:     1.1576

*** Psi4 exiting successfully. Buy a developer a beer!
