                               Psi4 1.3.2 release

  ==> Input File <==

--------------------------------------------------------------------------
#psi4
#
memory 32 gb

molecule  {
0 1
  N       -0.0000260     0.5742700    -0.1528520
  C        1.2853428    -0.0982803    -0.0068794
  C       -1.2063270    -0.2258910     0.0208010
  H        0.0000040     1.3212180     0.5394680
  H        1.2508010    -0.7709660     0.9792680
  H        2.0851550     0.4194100    -0.0537280
  H        1.2603030    -0.9635770    -0.7851690
  H       -2.0851970     0.4193400    -0.0536760
  H       -1.2508350    -0.7710090     0.9792610
  H       -1.2602770    -0.9635840    -0.7851690
units angstrom
no_reorient  #important for SAPT in psi4, default
symmetry c1  #important for SAPT in psi4, default
}

set PROPERTIES_ORIGIN ["COM"]
properties('MP2/aug-cc-pvtz', properties = ['dipole'])
--------------------------------------------------------------------------

    Molecular point group: c1
  Charge       = 0
  Multiplicity = 1
  Basis Set: AUG-CC-PVTZ
    Blend: AUG-CC-PVTZ
  Basis Set: (AUG-CC-PVTZ AUX)
    Blend: AUG-CC-PVTZ-JKFIT

    Orbital Energies [Eh]
    ---------------------

    Doubly Occupied:

       1A    -15.543858     2A    -11.245992     3A    -11.244588
       4A     -1.196182     5A     -0.953047     6A     -0.851961
       7A     -0.672652     8A     -0.613051     9A     -0.584517
      10A     -0.539879    11A     -0.519130    12A     -0.491843
      13A     -0.360896

  @DF-RHF Final Energy:  -134.26450892572799

   => Energetics <=

    Nuclear Repulsion Energy =             83.8366600933474899
    One-Electron Energy =                -346.5671478398994054
    Two-Electron Energy =                 128.4659788208239490
    Total Energy =                       -134.2645089257279949
  Basis Set: (AUG-CC-PVTZ AUX)
    Blend: AUG-CC-PVTZ-RI
    Molecular point group: c1

    Geometry (in Angstrom), charge = 0, multiplicity = 1:

       Center              X                  Y                   Z               Mass
    ------------   -----------------  -----------------  -----------------  -----------------
         N           -0.021060718175     0.511415747631    -0.127403267637    14.003074004430
         C            1.264308081825    -0.161134552369     0.018569332363    12.000000000000
         C           -1.227361718175    -0.288745252369     0.046249732363    12.000000000000
         H           -0.021030718175     1.258363747631     0.564916732363     1.007825032230
         H            1.229766281825    -0.833820252369     1.004716732363     1.007825032230
         H            2.064120281825     0.356555747631    -0.028279267637     1.007825032230
         H            1.239268281825    -1.026431252369    -0.759720267637     1.007825032230
         H           -2.106231718175     0.356485747631    -0.028227267637     1.007825032230
         H           -1.271869718175    -0.833863252369     1.004709732363     1.007825032230
         H           -1.281311718175    -1.026438252369    -0.759720267637     1.007825032230

  Basis Set: AUG-CC-PVTZ
    Blend: AUG-CC-PVTZ
  Basis Set: (AUG-CC-PVTZ AUX)
    Blend: AUG-CC-PVTZ-JKFIT
	 Reference Energy          =    -134.2645089257279949 [Eh]
	 Singles Energy            =      -0.0000000000000000 [Eh]
	 Same-Spin Energy          =      -0.1369572823317103 [Eh]
	 Opposite-Spin Energy      =      -0.5055108491529675 [Eh]
	 Correlation Energy        =      -0.6424681314846779 [Eh]
	 Total Energy              =    -134.9069770572126856 [Eh]

	 ================> DF-SCS-MP2 Energies <==================
	-----------------------------------------------------------
	 SCS Same-Spin Scale       =       0.3333333333333333 [-]
	 SCS Opposite-Spin Scale   =       1.2000000000000000 [-]
	 SCS Same-Spin Energy      =      -0.0456524274439034 [Eh]
	 SCS Opposite-Spin Energy  =      -0.6066130189835610 [Eh]
	 SCS Correlation Energy    =      -0.6522654464274644 [Eh]
	 SCS Total Energy          =    -134.9167743721554587 [Eh]
	-----------------------------------------------------------

  Dipole Moment: [D]
     X:    -0.0345      Y:    -0.1526      Z:     0.9673     Total:     0.9798

*** Psi4 exiting successfully. Buy a developer a beer!
