                               Psi4 1.3.2 release

  ==> Input File <==

--------------------------------------------------------------------------
#psi4
#
memory 32 gb

molecule  {
0 1
  N       -0.0000260     0.5742700    -0.1528520
  C        1.1990307    -0.2407424     0.0014940
  C       -1.2063270    -0.2258910     0.0208010
  H        0.0000040     1.3212180     0.5394680
  H        1.2508010    -0.7709660     0.9792680
  H        2.0851550     0.4194100    -0.0537280
  H        1.2603030    -0.9635770    -0.7851690
  H       -2.0851970     0.4193400    -0.0536760
  H       -1.2508350    -0.7710090     0.9792610
  H       -1.2602770    -0.9635840    -0.7851690
units angstrom
no_reorient  #important for SAPT in psi4, default
symmetry c1  #important for SAPT in psi4, default
}

set PROPERTIES_ORIGIN ["COM"]
properties('MP2/aug-cc-pvtz', properties = ['dipole'])
--------------------------------------------------------------------------

    Molecular point group: c1
  Charge       = 0
  Multiplicity = 1
  Basis Set: AUG-CC-PVTZ
    Blend: AUG-CC-PVTZ
  Basis Set: (AUG-CC-PVTZ AUX)
    Blend: AUG-CC-PVTZ-JKFIT

    Orbital Energies [Eh]
    ---------------------

    Doubly Occupied:

       1A    -15.543039     2A    -11.240791     3A    -11.240262
       4A     -1.197252     5A     -0.943098     6A     -0.852502
       7A     -0.659051     8A     -0.609759     9A     -0.589204
      10A     -0.540381    11A     -0.512044    12A     -0.499144
      13A     -0.370528

  @DF-RHF Final Energy:  -134.29323853139994

   => Energetics <=

    Nuclear Repulsion Energy =             84.1695683356462467
    One-Electron Energy =                -347.3315039491160974
    Two-Electron Energy =                 128.8686970820699003
    Total Energy =                       -134.2932385313999362
  Basis Set: (AUG-CC-PVTZ AUX)
    Blend: AUG-CC-PVTZ-RI
    Molecular point group: c1

    Geometry (in Angstrom), charge = 0, multiplicity = 1:

       Center              X                  Y                   Z               Mass
    ------------   -----------------  -----------------  -----------------  -----------------
         N            0.001926291141     0.549356866197    -0.129633307502    14.003074004430
         C            1.200982991141    -0.265655533803     0.024712692498    12.000000000000
         C           -1.204374708859    -0.250804133803     0.044019692498    12.000000000000
         H            0.001956291141     1.296304866197     0.562686692498     1.007825032230
         H            1.252753291141    -0.795879133803     1.002486692498     1.007825032230
         H            2.087107291141     0.394496866197    -0.030509307502     1.007825032230
         H            1.262255291141    -0.988490133803    -0.761950307502     1.007825032230
         H           -2.083244708859     0.394426866197    -0.030457307502     1.007825032230
         H           -1.248882708859    -0.795922133803     1.002479692498     1.007825032230
         H           -1.258324708859    -0.988497133803    -0.761950307502     1.007825032230

  Basis Set: AUG-CC-PVTZ
    Blend: AUG-CC-PVTZ
  Basis Set: (AUG-CC-PVTZ AUX)
    Blend: AUG-CC-PVTZ-JKFIT
	 Reference Energy          =    -134.2932385313999362 [Eh]
	 Singles Energy            =      -0.0000000000000000 [Eh]
	 Same-Spin Energy          =      -0.1366879783829953 [Eh]
	 Opposite-Spin Energy      =      -0.5045677551265696 [Eh]
	 Correlation Energy        =      -0.6412557335095649 [Eh]
	 Total Energy              =    -134.9344942649094889 [Eh]

	 ================> DF-SCS-MP2 Energies <==================
	-----------------------------------------------------------
	 SCS Same-Spin Scale       =       0.3333333333333333 [-]
	 SCS Opposite-Spin Scale   =       1.2000000000000000 [-]
	 SCS Same-Spin Energy      =      -0.0455626594609984 [Eh]
	 SCS Opposite-Spin Energy  =      -0.6054813061518834 [Eh]
	 SCS Correlation Energy    =      -0.6510439656128819 [Eh]
	 SCS Total Energy          =    -134.9442824970128072 [Eh]
	-----------------------------------------------------------

  Dipole Moment: [D]
     X:     0.0021      Y:    -0.2907      Z:     1.0361     Total:     1.0761

*** Psi4 exiting successfully. Buy a developer a beer!
