                               Psi4 1.3.2 release

  ==> Input File <==

--------------------------------------------------------------------------
#psi4
#
memory 32 gb

molecule  {
0 1
  N       -0.0000260     0.5742700    -0.1528520
  C        1.2320016    -0.1641243     0.0975214
  C       -1.2063270    -0.2258910     0.0208010
  H        0.0000040     1.3212180     0.5394680
  H        1.2508010    -0.7709660     0.9792680
  H        2.0851550     0.4194100    -0.0537280
  H        1.2603030    -0.9635770    -0.7851690
  H       -2.0851970     0.4193400    -0.0536760
  H       -1.2508350    -0.7710090     0.9792610
  H       -1.2602770    -0.9635840    -0.7851690
units angstrom
no_reorient  #important for SAPT in psi4, default
symmetry c1  #important for SAPT in psi4, default
}

set PROPERTIES_ORIGIN ["COM"]
properties('MP2/aug-cc-pvtz', properties = ['dipole'])
--------------------------------------------------------------------------

    Molecular point group: c1
  Charge       = 0
  Multiplicity = 1
  Basis Set: AUG-CC-PVTZ
    Blend: AUG-CC-PVTZ
  Basis Set: (AUG-CC-PVTZ AUX)
    Blend: AUG-CC-PVTZ-JKFIT

    Orbital Energies [Eh]
    ---------------------

    Doubly Occupied:

       1A    -15.544651     2A    -11.242226     3A    -11.242184
       4A     -1.198679     5A     -0.946384     6A     -0.850537
       7A     -0.658644     8A     -0.622119     9A     -0.591673
      10A     -0.531900    11A     -0.515877    12A     -0.484947
      13A     -0.374241

  @DF-RHF Final Energy:  -134.28327675592087

   => Energetics <=

    Nuclear Repulsion Energy =             84.0406765774303466
    One-Electron Energy =                -347.0397812168391170
    Two-Electron Energy =                 128.7158278834878899
    Total Energy =                       -134.2832767559208662
  Basis Set: (AUG-CC-PVTZ AUX)
    Blend: AUG-CC-PVTZ-RI
    Molecular point group: c1

    Geometry (in Angstrom), charge = 0, multiplicity = 1:

       Center              X                  Y                   Z               Mass
    ------------   -----------------  -----------------  -----------------  -----------------
         N           -0.006854660608     0.528951604612    -0.155207737256    14.003074004430
         C            1.225172939392    -0.209442695388     0.095165662744    12.000000000000
         C           -1.213155660608    -0.271209395388     0.018445262744    12.000000000000
         H           -0.006824660608     1.275899604612     0.537112262744     1.007825032230
         H            1.243972339392    -0.816284395388     0.976912262744     1.007825032230
         H            2.078326339392     0.374091604612    -0.056083737256     1.007825032230
         H            1.253474339392    -1.008895395388    -0.787524737256     1.007825032230
         H           -2.092025660608     0.374021604612    -0.056031737256     1.007825032230
         H           -1.257663660608    -0.816327395388     0.976905262744     1.007825032230
         H           -1.267105660608    -1.008902395388    -0.787524737256     1.007825032230

  Basis Set: AUG-CC-PVTZ
    Blend: AUG-CC-PVTZ
  Basis Set: (AUG-CC-PVTZ AUX)
    Blend: AUG-CC-PVTZ-JKFIT
	 Reference Energy          =    -134.2832767559208662 [Eh]
	 Singles Energy            =      -0.0000000000000000 [Eh]
	 Same-Spin Energy          =      -0.1369081199750570 [Eh]
	 Opposite-Spin Energy      =      -0.5052287663076971 [Eh]
	 Correlation Energy        =      -0.6421368862827541 [Eh]
	 Total Energy              =    -134.9254136422036083 [Eh]

	 ================> DF-SCS-MP2 Energies <==================
	-----------------------------------------------------------
	 SCS Same-Spin Scale       =       0.3333333333333333 [-]
	 SCS Opposite-Spin Scale   =       1.2000000000000000 [-]
	 SCS Same-Spin Energy      =      -0.0456360399916857 [Eh]
	 SCS Opposite-Spin Energy  =      -0.6062745195692365 [Eh]
	 SCS Correlation Energy    =      -0.6519105595609221 [Eh]
	 SCS Total Energy          =    -134.9351873154817838 [Eh]
	-----------------------------------------------------------

  Dipole Moment: [D]
     X:    -0.0333      Y:    -0.2357      Z:     1.1492     Total:     1.1736

*** Psi4 exiting successfully. Buy a developer a beer!
