                               Psi4 1.3.2 release

  ==> Input File <==

--------------------------------------------------------------------------
#psi4
#
memory 32 gb

molecule  {
0 1
  N       -0.0000260     0.5742700    -0.1528520
  C        1.1236220    -0.1710164     0.0089057
  C       -1.2063270    -0.2258910     0.0208010
  H        0.0000040     1.3212180     0.5394680
  H        1.2508010    -0.7709660     0.9792680
  H        2.0851550     0.4194100    -0.0537280
  H        1.2603030    -0.9635770    -0.7851690
  H       -2.0851970     0.4193400    -0.0536760
  H       -1.2508350    -0.7710090     0.9792610
  H       -1.2602770    -0.9635840    -0.7851690
units angstrom
no_reorient  #important for SAPT in psi4, default
symmetry c1  #important for SAPT in psi4, default
}

set PROPERTIES_ORIGIN ["COM"]
properties('MP2/aug-cc-pvtz', properties = ['dipole'])
--------------------------------------------------------------------------

    Molecular point group: c1
  Charge       = 0
  Multiplicity = 1
  Basis Set: AUG-CC-PVTZ
    Blend: AUG-CC-PVTZ
  Basis Set: (AUG-CC-PVTZ AUX)
    Blend: AUG-CC-PVTZ-JKFIT

    Orbital Energies [Eh]
    ---------------------

    Doubly Occupied:

       1A    -15.544675     2A    -11.245345     3A    -11.244227
       4A     -1.228326     5A     -0.946982     6A     -0.846777
       7A     -0.674034     8A     -0.616763     9A     -0.604855
      10A     -0.531414    11A     -0.514163    12A     -0.485243
      13A     -0.368885

  @DF-RHF Final Energy:  -134.28297263035572

   => Energetics <=

    Nuclear Repulsion Energy =             85.3939315376222936
    One-Electron Energy =                -349.6504299284579247
    Two-Electron Energy =                 129.9735257604799301
    Total Energy =                       -134.2829726303557152
  Basis Set: (AUG-CC-PVTZ AUX)
    Blend: AUG-CC-PVTZ-RI
    Molecular point group: c1

    Geometry (in Angstrom), charge = 0, multiplicity = 1:

       Center              X                  Y                   Z               Mass
    ------------   -----------------  -----------------  -----------------  -----------------
         N            0.022009460122     0.530787138296    -0.131607223290    14.003074004430
         C            1.145657460122    -0.214499261704     0.030150476710    12.000000000000
         C           -1.184291539878    -0.269373861704     0.042045776710    12.000000000000
         H            0.022039460122     1.277735138296     0.560712776710     1.007825032230
         H            1.272836460122    -0.814448861704     1.000512776710     1.007825032230
         H            2.107190460122     0.375927138296    -0.032483223290     1.007825032230
         H            1.282338460122    -1.007059861704    -0.763924223290     1.007825032230
         H           -2.063161539878     0.375857138296    -0.032431223290     1.007825032230
         H           -1.228799539878    -0.814491861704     1.000505776710     1.007825032230
         H           -1.238241539878    -1.007066861704    -0.763924223290     1.007825032230

  Basis Set: AUG-CC-PVTZ
    Blend: AUG-CC-PVTZ
  Basis Set: (AUG-CC-PVTZ AUX)
    Blend: AUG-CC-PVTZ-JKFIT
	 Reference Energy          =    -134.2829726303557152 [Eh]
	 Singles Energy            =      -0.0000000000000000 [Eh]
	 Same-Spin Energy          =      -0.1375184598010809 [Eh]
	 Opposite-Spin Energy      =      -0.5048325650510088 [Eh]
	 Correlation Energy        =      -0.6423510248520896 [Eh]
	 Total Energy              =    -134.9253236552077908 [Eh]

	 ================> DF-SCS-MP2 Energies <==================
	-----------------------------------------------------------
	 SCS Same-Spin Scale       =       0.3333333333333333 [-]
	 SCS Opposite-Spin Scale   =       1.2000000000000000 [-]
	 SCS Same-Spin Energy      =      -0.0458394866003603 [Eh]
	 SCS Opposite-Spin Energy  =      -0.6057990780612106 [Eh]
	 SCS Correlation Energy    =      -0.6516385646615709 [Eh]
	 SCS Total Energy          =    -134.9346111950172826 [Eh]
	-----------------------------------------------------------

  Dipole Moment: [D]
     X:    -0.2351      Y:    -0.1153      Z:     0.9834     Total:     1.0177

*** Psi4 exiting successfully. Buy a developer a beer!
