                               Psi4 1.3.2 release

  ==> Input File <==

--------------------------------------------------------------------------
#psi4
#
memory 32 gb

molecule  {
0 1
  N       -0.0000260     0.5742700    -0.1528520
  C        1.1141677    -0.3447469     0.0466106
  C       -1.2063270    -0.2258910     0.0208010
  H        0.0000040     1.3212180     0.5394680
  H        1.2508010    -0.7709660     0.9792680
  H        2.0851550     0.4194100    -0.0537280
  H        1.2603030    -0.9635770    -0.7851690
  H       -2.0851970     0.4193400    -0.0536760
  H       -1.2508350    -0.7710090     0.9792610
  H       -1.2602770    -0.9635840    -0.7851690
units angstrom
no_reorient  #important for SAPT in psi4, default
symmetry c1  #important for SAPT in psi4, default
}

set PROPERTIES_ORIGIN ["COM"]
properties('MP2/aug-cc-pvtz', properties = ['dipole'])
--------------------------------------------------------------------------

    Molecular point group: c1
  Charge       = 0
  Multiplicity = 1
  Basis Set: AUG-CC-PVTZ
    Blend: AUG-CC-PVTZ
  Basis Set: (AUG-CC-PVTZ AUX)
    Blend: AUG-CC-PVTZ-JKFIT

    Orbital Energies [Eh]
    ---------------------

    Doubly Occupied:

       1A    -15.546393     2A    -11.243965     3A    -11.239390
       4A     -1.202260     5A     -0.939641     6A     -0.858799
       7A     -0.667163     8A     -0.615212     9A     -0.589269
      10A     -0.553800    11A     -0.516300    12A     -0.456579
      13A     -0.380272

  @DF-RHF Final Energy:  -134.27063117841132

   => Energetics <=

    Nuclear Repulsion Energy =             84.5160234766078702
    One-Electron Energy =                -347.9552238491334606
    Two-Electron Energy =                 129.1685691941142693
    Total Energy =                       -134.2706311784113211
  Basis Set: (AUG-CC-PVTZ AUX)
    Blend: AUG-CC-PVTZ-RI
    Molecular point group: c1

    Geometry (in Angstrom), charge = 0, multiplicity = 1:

       Center              X                  Y                   Z               Mass
    ------------   -----------------  -----------------  -----------------  -----------------
         N            0.024527369918     0.577055791497    -0.141648954259    14.003074004430
         C            1.138721069918    -0.341961108503     0.057813645741    12.000000000000
         C           -1.181773630082    -0.223105208503     0.032004045741    12.000000000000
         H            0.024557369918     1.324003791497     0.550671045741     1.007825032230
         H            1.275354369918    -0.768180208503     0.990471045741     1.007825032230
         H            2.109708369918     0.422195791497    -0.042524954259     1.007825032230
         H            1.284856369918    -0.960791208503    -0.773965954259     1.007825032230
         H           -2.060643630082     0.422125791497    -0.042472954259     1.007825032230
         H           -1.226281630082    -0.768223208503     0.990464045741     1.007825032230
         H           -1.235723630082    -0.960798208503    -0.773965954259     1.007825032230

  Basis Set: AUG-CC-PVTZ
    Blend: AUG-CC-PVTZ
  Basis Set: (AUG-CC-PVTZ AUX)
    Blend: AUG-CC-PVTZ-JKFIT
	 Reference Energy          =    -134.2706311784113211 [Eh]
	 Singles Energy            =      -0.0000000000000000 [Eh]
	 Same-Spin Energy          =      -0.1372813654517479 [Eh]
	 Opposite-Spin Energy      =      -0.5062357481542406 [Eh]
	 Correlation Energy        =      -0.6435171136059885 [Eh]
	 Total Energy              =    -134.9141482920173019 [Eh]

	 ================> DF-SCS-MP2 Energies <==================
	-----------------------------------------------------------
	 SCS Same-Spin Scale       =       0.3333333333333333 [-]
	 SCS Opposite-Spin Scale   =       1.2000000000000000 [-]
	 SCS Same-Spin Energy      =      -0.0457604551505826 [Eh]
	 SCS Opposite-Spin Energy  =      -0.6074828977850887 [Eh]
	 SCS Correlation Energy    =      -0.6532433529356714 [Eh]
	 SCS Total Energy          =    -134.9238745313469963 [Eh]
	-----------------------------------------------------------

  Dipole Moment: [D]
     X:    -0.1032      Y:    -0.3844      Z:     1.1166     Total:     1.1854

*** Psi4 exiting successfully. Buy a developer a beer!
