                               Psi4 1.4a3.dev225

  ==> Input File <==

--------------------------------------------------------------------------
#psi4
#
memory 32 gb

molecule  {
0 1
  N        0.0000000     0.5742850    -0.1528630
  C        1.2063400    -0.2259130     0.0208150
  C       -1.2063390    -0.2259120     0.0208160
  H        0.0000000     1.3065038     0.5259222
  H        1.2506670    -0.7711410     0.9791760
  H        2.0850840     0.4194780    -0.0535020
  H        1.2604060    -0.9634470    -0.7853030
  H       -2.0850820     0.4194800    -0.0534940
  H       -1.2506630    -0.7711500     0.9791720
  H       -1.2604150    -0.9634410    -0.7853080
units angstrom
no_reorient  #important for SAPT in psi4, default
symmetry c1  #important for SAPT in psi4, default
}

set PROPERTIES_ORIGIN ["COM"]
properties('MP2/aug-cc-pvtz', properties = ['dipole'])
--------------------------------------------------------------------------

    Molecular point group: c1
  Charge       = 0
  Multiplicity = 1
  Basis Set: AUG-CC-PVTZ
    Blend: AUG-CC-PVTZ
  Basis Set: (AUG-CC-PVTZ AUX)
    Blend: AUG-CC-PVTZ-JKFIT

    Orbital Energies [Eh]
    ---------------------

    Doubly Occupied:

       1A    -15.540812     2A    -11.240526     3A    -11.240510
       4A     -1.199719     5A     -0.943513     6A     -0.854520
       7A     -0.661098     8A     -0.611199     9A     -0.589233
      10A     -0.537392    11A     -0.510643    12A     -0.503190
      13A     -0.371703

  @DF-RHF Final Energy:  -134.29428367169618

   => Energetics <=

    Nuclear Repulsion Energy =             84.2434688968733241
    One-Electron Energy =                -347.4673907578423382
    Two-Electron Energy =                 128.9296381892728505
    Total Energy =                       -134.2942836716961779
  Basis Set: (AUG-CC-PVTZ AUX)
    Blend: AUG-CC-PVTZ-RI
    Molecular point group: c1

    Geometry (in Angstrom), charge = 0, multiplicity = 1:

       Center              X                  Y                   Z               Mass
    ------------   -----------------  -----------------  -----------------  -----------------
         N           -0.000000199222     0.545748794947    -0.134486522868    14.003074004430
         C            1.206339800778    -0.254449205053     0.039191477132    12.000000000000
         C           -1.206339199222    -0.254448205053     0.039192477132    12.000000000000
         H           -0.000000199222     1.277967594947     0.544298677132     1.007825032230
         H            1.250666800778    -0.799677205053     0.997552477132     1.007825032230
         H            2.085083800778     0.390941794947    -0.035125522868     1.007825032230
         H            1.260405800778    -0.991983205053    -0.766926522868     1.007825032230
         H           -2.085082199222     0.390943794947    -0.035117522868     1.007825032230
         H           -1.250663199222    -0.799686205053     0.997548477132     1.007825032230
         H           -1.260415199222    -0.991977205053    -0.766931522868     1.007825032230

  Basis Set: AUG-CC-PVTZ
    Blend: AUG-CC-PVTZ
  Basis Set: (AUG-CC-PVTZ AUX)
    Blend: AUG-CC-PVTZ-JKFIT
	 Reference Energy          =    -134.2942836716961779 [Eh]
	 Singles Energy            =      -0.0000000000000000 [Eh]
	 Same-Spin Energy          =      -0.1365913243639501 [Eh]
	 Opposite-Spin Energy      =      -0.5042388988485633 [Eh]
	 Correlation Energy        =      -0.6408302232125134 [Eh]
	 Total Energy              =    -134.9351138949086817 [Eh]

	 ================> DF-SCS-MP2 Energies <==================
	-----------------------------------------------------------
	 SCS Same-Spin Scale       =       0.3333333333333333 [-]
	 SCS Opposite-Spin Scale   =       1.2000000000000000 [-]
	 SCS Same-Spin Energy      =      -0.0455304414546500 [Eh]
	 SCS Opposite-Spin Energy  =      -0.6050866786182759 [Eh]
	 SCS Correlation Energy    =      -0.6506171200729259 [Eh]
	 SCS Total Energy          =    -134.9449007917691006 [Eh]
	-----------------------------------------------------------

  Dipole Moment: [D]
     X:     0.0000      Y:    -0.2862      Z:     1.0563     Total:     1.0944

*** Psi4 exiting successfully. Buy a developer a beer!
