                               Psi4 1.3.2 release

  ==> Input File <==

--------------------------------------------------------------------------
#psi4
#
memory 32 gb

molecule  {
0 1
  N       -0.0000260     0.5742700    -0.1528520
  C        1.0408800    -0.1161358    -0.0030057
  C       -1.2063270    -0.2258910     0.0208010
  H        0.0000040     1.3212180     0.5394680
  H        1.2508010    -0.7709660     0.9792680
  H        2.0851550     0.4194100    -0.0537280
  H        1.2603030    -0.9635770    -0.7851690
  H       -2.0851970     0.4193400    -0.0536760
  H       -1.2508350    -0.7710090     0.9792610
  H       -1.2602770    -0.9635840    -0.7851690
units angstrom
no_reorient  #important for SAPT in psi4, default
symmetry c1  #important for SAPT in psi4, default
}

set PROPERTIES_ORIGIN ["COM"]
properties('MP2/aug-cc-pvtz', properties = ['dipole'])
--------------------------------------------------------------------------

    Molecular point group: c1
  Charge       = 0
  Multiplicity = 1
  Basis Set: AUG-CC-PVTZ
    Blend: AUG-CC-PVTZ
  Basis Set: (AUG-CC-PVTZ AUX)
    Blend: AUG-CC-PVTZ-JKFIT

    Orbital Energies [Eh]
    ---------------------

    Doubly Occupied:

       1A    -15.547148     2A    -11.252875     3A    -11.249480
       4A     -1.269897     5A     -0.955353     6A     -0.839784
       7A     -0.693719     8A     -0.630552     9A     -0.621172
      10A     -0.538024    11A     -0.512817    12A     -0.459347
      13A     -0.359841

  @DF-RHF Final Energy:  -134.24437269799478

   => Energetics <=

    Nuclear Repulsion Energy =             86.8171928583701060
    One-Electron Energy =                -352.2631151650072638
    Two-Electron Energy =                 131.2015496086423809
    Total Energy =                       -134.2443726979947769
  Basis Set: (AUG-CC-PVTZ AUX)
    Blend: AUG-CC-PVTZ-RI
    Molecular point group: c1

    Geometry (in Angstrom), charge = 0, multiplicity = 1:

       Center              X                  Y                   Z               Mass
    ------------   -----------------  -----------------  -----------------  -----------------
         N            0.044045665066     0.516171101108    -0.128434928064    14.003074004430
         C            1.084951665066    -0.174234698892     0.021411371936    12.000000000000
         C           -1.162255334934    -0.283989898892     0.045218071936    12.000000000000
         H            0.044075665066     1.263119101108     0.563885071936     1.007825032230
         H            1.294872665066    -0.829064898892     1.003685071936     1.007825032230
         H            2.129226665066     0.361311101108    -0.029310928064     1.007825032230
         H            1.304374665066    -1.021675898892    -0.760751928064     1.007825032230
         H           -2.041125334934     0.361241101108    -0.029258928064     1.007825032230
         H           -1.206763334934    -0.829107898892     1.003678071936     1.007825032230
         H           -1.216205334934    -1.021682898892    -0.760751928064     1.007825032230

  Basis Set: AUG-CC-PVTZ
    Blend: AUG-CC-PVTZ
  Basis Set: (AUG-CC-PVTZ AUX)
    Blend: AUG-CC-PVTZ-JKFIT
	 Reference Energy          =    -134.2443726979947769 [Eh]
	 Singles Energy            =      -0.0000000000000000 [Eh]
	 Same-Spin Energy          =      -0.1390651776054624 [Eh]
	 Opposite-Spin Energy      =      -0.5062943781148610 [Eh]
	 Correlation Energy        =      -0.6453595557203234 [Eh]
	 Total Energy              =    -134.8897322537150956 [Eh]

	 ================> DF-SCS-MP2 Energies <==================
	-----------------------------------------------------------
	 SCS Same-Spin Scale       =       0.3333333333333333 [-]
	 SCS Opposite-Spin Scale   =       1.2000000000000000 [-]
	 SCS Same-Spin Energy      =      -0.0463550592018208 [Eh]
	 SCS Opposite-Spin Energy  =      -0.6075532537378332 [Eh]
	 SCS Correlation Energy    =      -0.6539083129396540 [Eh]
	 SCS Total Energy          =    -134.8982810109344257 [Eh]
	-----------------------------------------------------------

  Dipole Moment: [D]
     X:    -0.5673      Y:     0.1161      Z:     0.8796     Total:     1.0531

*** Psi4 exiting successfully. Buy a developer a beer!
