                               Psi4 1.3.2 release

  ==> Input File <==

--------------------------------------------------------------------------
#psi4
#
memory 32 gb

molecule  {
0 1
  N       -0.0000260     0.5742700    -0.1528520
  C        1.3718480    -0.3356582     0.0446397
  C       -1.2063270    -0.2258910     0.0208010
  H        0.0000040     1.3212180     0.5394680
  H        1.2508010    -0.7709660     0.9792680
  H        2.0851550     0.4194100    -0.0537280
  H        1.2603030    -0.9635770    -0.7851690
  H       -2.0851970     0.4193400    -0.0536760
  H       -1.2508350    -0.7710090     0.9792610
  H       -1.2602770    -0.9635840    -0.7851690
units angstrom
no_reorient  #important for SAPT in psi4, default
symmetry c1  #important for SAPT in psi4, default
}

set PROPERTIES_ORIGIN ["COM"]
properties('MP2/aug-cc-pvtz', properties = ['dipole'])
--------------------------------------------------------------------------

    Molecular point group: c1
  Charge       = 0
  Multiplicity = 1
  Basis Set: AUG-CC-PVTZ
    Blend: AUG-CC-PVTZ
  Basis Set: (AUG-CC-PVTZ AUX)
    Blend: AUG-CC-PVTZ-JKFIT

    Orbital Energies [Eh]
    ---------------------

    Doubly Occupied:

       1A    -15.539966     2A    -11.241237     3A    -11.235889
       4A     -1.157991     5A     -0.946540     6A     -0.854400
       7A     -0.643795     8A     -0.618776     9A     -0.572347
      10A     -0.562477    11A     -0.525297    12A     -0.465343
      13A     -0.364842

  @DF-RHF Final Energy:  -134.26540783424815

   => Energetics <=

    Nuclear Repulsion Energy =             81.9568656792558983
    One-Electron Energy =                -342.9867442042683479
    Two-Electron Energy =                 126.7644706907643126
    Total Energy =                       -134.2654078342481512
  Basis Set: (AUG-CC-PVTZ AUX)
    Blend: AUG-CC-PVTZ-RI
    Molecular point group: c1

    Geometry (in Angstrom), charge = 0, multiplicity = 1:

       Center              X                  Y                   Z               Mass
    ------------   -----------------  -----------------  -----------------  -----------------
         N           -0.044099154712     0.574635249863    -0.141124055703    14.003074004430
         C            1.327774845288    -0.335292950137     0.056367644297    12.000000000000
         C           -1.250400154712    -0.225525750137     0.032528944297    12.000000000000
         H           -0.044069154712     1.321583249863     0.551195944297     1.007825032230
         H            1.206727845288    -0.770600750137     0.990995944297     1.007825032230
         H            2.041081845288     0.419775249863    -0.042000055703     1.007825032230
         H            1.216229845288    -0.963211750137    -0.773441055703     1.007825032230
         H           -2.129270154712     0.419705249863    -0.041948055703     1.007825032230
         H           -1.294908154712    -0.770643750137     0.990988944297     1.007825032230
         H           -1.304350154712    -0.963218750137    -0.773441055703     1.007825032230

  Basis Set: AUG-CC-PVTZ
    Blend: AUG-CC-PVTZ
  Basis Set: (AUG-CC-PVTZ AUX)
    Blend: AUG-CC-PVTZ-JKFIT
	 Reference Energy          =    -134.2654078342481512 [Eh]
	 Singles Energy            =      -0.0000000000000000 [Eh]
	 Same-Spin Energy          =      -0.1369165805190784 [Eh]
	 Opposite-Spin Energy      =      -0.5074077216299020 [Eh]
	 Correlation Energy        =      -0.6443243021489804 [Eh]
	 Total Energy              =    -134.9097321363971389 [Eh]

	 ================> DF-SCS-MP2 Energies <==================
	-----------------------------------------------------------
	 SCS Same-Spin Scale       =       0.3333333333333333 [-]
	 SCS Opposite-Spin Scale   =       1.2000000000000000 [-]
	 SCS Same-Spin Energy      =      -0.0456388601730261 [Eh]
	 SCS Opposite-Spin Energy  =      -0.6088892659558823 [Eh]
	 SCS Correlation Energy    =      -0.6545281261289084 [Eh]
	 SCS Total Energy          =    -134.9199359603770461 [Eh]
	-----------------------------------------------------------

  Dipole Moment: [D]
     X:     0.2576      Y:    -0.4845      Z:     1.1421     Total:     1.2671

*** Psi4 exiting successfully. Buy a developer a beer!
