                               Psi4 1.3.2 release

  ==> Input File <==

--------------------------------------------------------------------------
#psi4
#
memory 32 gb

molecule  {
0 1
  N       -0.0000260     0.5742700    -0.1528520
  C        1.2425762    -0.1318695     0.1354393
  C       -1.2063270    -0.2258910     0.0208010
  H        0.0000040     1.3212180     0.5394680
  H        1.2508010    -0.7709660     0.9792680
  H        2.0851550     0.4194100    -0.0537280
  H        1.2603030    -0.9635770    -0.7851690
  H       -2.0851970     0.4193400    -0.0536760
  H       -1.2508350    -0.7710090     0.9792610
  H       -1.2602770    -0.9635840    -0.7851690
units angstrom
no_reorient  #important for SAPT in psi4, default
symmetry c1  #important for SAPT in psi4, default
}

set PROPERTIES_ORIGIN ["COM"]
properties('MP2/aug-cc-pvtz', properties = ['dipole'])
--------------------------------------------------------------------------

    Molecular point group: c1
  Charge       = 0
  Multiplicity = 1
  Basis Set: AUG-CC-PVTZ
    Blend: AUG-CC-PVTZ
  Basis Set: (AUG-CC-PVTZ AUX)
    Blend: AUG-CC-PVTZ-JKFIT

    Orbital Energies [Eh]
    ---------------------

    Doubly Occupied:

       1A    -15.546022     2A    -11.244474     3A    -11.243278
       4A     -1.199953     5A     -0.948353     6A     -0.851070
       7A     -0.658588     8A     -0.628747     9A     -0.593989
      10A     -0.533840    11A     -0.518452    12A     -0.470318
      13A     -0.374868

  @DF-RHF Final Energy:  -134.27147796329632

   => Energetics <=

    Nuclear Repulsion Energy =             83.9899468360304837
    One-Electron Energy =                -346.8989447752007891
    Two-Electron Energy =                 128.6375199758739996
    Total Energy =                       -134.2714779632963200
  Basis Set: (AUG-CC-PVTZ AUX)
    Blend: AUG-CC-PVTZ-RI
    Molecular point group: c1

    Geometry (in Angstrom), charge = 0, multiplicity = 1:

       Center              X                  Y                   Z               Mass
    ------------   -----------------  -----------------  -----------------  -----------------
         N           -0.009670933514     0.520361367692    -0.165306195300    14.003074004430
         C            1.232931266486    -0.185778132308     0.122985104700    12.000000000000
         C           -1.215971933514    -0.279799632308     0.008346804700    12.000000000000
         H           -0.009640933514     1.267309367692     0.527013804700     1.007825032230
         H            1.241156066486    -0.824874632308     0.966813804700     1.007825032230
         H            2.075510066486     0.365501367692    -0.066182195300     1.007825032230
         H            1.250658066486    -1.017485632308    -0.797623195300     1.007825032230
         H           -2.094841933514     0.365431367692    -0.066130195300     1.007825032230
         H           -1.260479933514    -0.824917632308     0.966806804700     1.007825032230
         H           -1.269921933514    -1.017492632308    -0.797623195300     1.007825032230

  Basis Set: AUG-CC-PVTZ
    Blend: AUG-CC-PVTZ
  Basis Set: (AUG-CC-PVTZ AUX)
    Blend: AUG-CC-PVTZ-JKFIT
	 Reference Energy          =    -134.2714779632963200 [Eh]
	 Singles Energy            =      -0.0000000000000000 [Eh]
	 Same-Spin Energy          =      -0.1371439393231847 [Eh]
	 Opposite-Spin Energy      =      -0.5059329755794816 [Eh]
	 Correlation Energy        =      -0.6430769149026663 [Eh]
	 Total Energy              =    -134.9145548781989987 [Eh]

	 ================> DF-SCS-MP2 Energies <==================
	-----------------------------------------------------------
	 SCS Same-Spin Scale       =       0.3333333333333333 [-]
	 SCS Opposite-Spin Scale   =       1.2000000000000000 [-]
	 SCS Same-Spin Energy      =      -0.0457146464410616 [Eh]
	 SCS Opposite-Spin Energy  =      -0.6071195706953779 [Eh]
	 SCS Correlation Energy    =      -0.6528342171364395 [Eh]
	 SCS Total Energy          =    -134.9243121804327643 [Eh]
	-----------------------------------------------------------

  Dipole Moment: [D]
     X:    -0.0646      Y:    -0.2008      Z:     1.1952     Total:     1.2137

*** Psi4 exiting successfully. Buy a developer a beer!
