                               Psi4 1.3.2 release

  ==> Input File <==

--------------------------------------------------------------------------
#psi4
#
memory 32 gb

molecule  {
0 1
  N       -0.0000260     0.5742700    -0.1528520
  C        1.2063640    -0.2258970     0.0208170
  C       -1.2063270    -0.2258910     0.0208010
  H        0.0000011     1.2478763     0.4714901
  H        1.2508010    -0.7709660     0.9792680
  H        2.0851550     0.4194100    -0.0537280
  H        1.2603030    -0.9635770    -0.7851690
  H       -2.0851970     0.4193400    -0.0536760
  H       -1.2508350    -0.7710090     0.9792610
  H       -1.2602770    -0.9635840    -0.7851690
units angstrom
no_reorient  #important for SAPT in psi4, default
symmetry c1  #important for SAPT in psi4, default
}

set PROPERTIES_ORIGIN ["COM"]
properties('MP2/aug-cc-pvtz', properties = ['dipole'])
--------------------------------------------------------------------------

    Molecular point group: c1
  Charge       = 0
  Multiplicity = 1
  Basis Set: AUG-CC-PVTZ
    Blend: AUG-CC-PVTZ
  Basis Set: (AUG-CC-PVTZ AUX)
    Blend: AUG-CC-PVTZ-JKFIT

    Orbital Energies [Eh]
    ---------------------

    Doubly Occupied:

       1A    -15.531110     2A    -11.240434     3A    -11.240419
       4A     -1.211291     5A     -0.943642     6A     -0.867594
       7A     -0.669212     8A     -0.611532     9A     -0.589702
      10A     -0.537403    11A     -0.517900    12A     -0.503251
      13A     -0.372958

  @DF-RHF Final Energy:  -134.28756050837359

   => Energetics <=

    Nuclear Repulsion Energy =             84.6816267600687098
    One-Electron Energy =                -348.2654831778944526
    Two-Electron Energy =                 129.2962959094521693
    Total Energy =                       -134.2875605083735877
  Basis Set: (AUG-CC-PVTZ AUX)
    Blend: AUG-CC-PVTZ-RI
    Molecular point group: c1

    Geometry (in Angstrom), charge = 0, multiplicity = 1:

       Center              X                  Y                   Z               Mass
    ------------   -----------------  -----------------  -----------------  -----------------
         N           -0.000026679958     0.547043635526    -0.133259005877    14.003074004430
         C            1.206363320042    -0.253123364474     0.040409994123    12.000000000000
         C           -1.206327679958    -0.253117364474     0.040393994123    12.000000000000
         H            0.000000420042     1.220649935526     0.491083094123     1.007825032230
         H            1.250800320042    -0.798192364474     0.998860994123     1.007825032230
         H            2.085154320042     0.392183635526    -0.034135005877     1.007825032230
         H            1.260302320042    -0.990803364474    -0.765576005877     1.007825032230
         H           -2.085197679958     0.392113635526    -0.034083005877     1.007825032230
         H           -1.250835679958    -0.798235364474     0.998853994123     1.007825032230
         H           -1.260277679958    -0.990810364474    -0.765576005877     1.007825032230

  Basis Set: AUG-CC-PVTZ
    Blend: AUG-CC-PVTZ
  Basis Set: (AUG-CC-PVTZ AUX)
    Blend: AUG-CC-PVTZ-JKFIT
	 Reference Energy          =    -134.2875605083735877 [Eh]
	 Singles Energy            =      -0.0000000000000000 [Eh]
	 Same-Spin Energy          =      -0.1362165061528586 [Eh]
	 Opposite-Spin Energy      =      -0.5030773827083244 [Eh]
	 Correlation Energy        =      -0.6392938888611830 [Eh]
	 Total Energy              =    -134.9268543972347629 [Eh]

	 ================> DF-SCS-MP2 Energies <==================
	-----------------------------------------------------------
	 SCS Same-Spin Scale       =       0.3333333333333333 [-]
	 SCS Opposite-Spin Scale   =       1.2000000000000000 [-]
	 SCS Same-Spin Energy      =      -0.0454055020509529 [Eh]
	 SCS Opposite-Spin Energy  =      -0.6036928592499892 [Eh]
	 SCS Correlation Energy    =      -0.6490983613009420 [Eh]
	 SCS Total Energy          =    -134.9366588696745168 [Eh]
	-----------------------------------------------------------

  Dipole Moment: [D]
     X:     0.0002      Y:    -0.3027      Z:     1.0459     Total:     1.0888

*** Psi4 exiting successfully. Buy a developer a beer!
