                               Psi4 1.4a3.dev225

  ==> Input File <==

--------------------------------------------------------------------------
#psi4
#
memory 32 gb

molecule  {
0 1
  N        0.0000000     0.5742850    -0.1528630
  C        1.2228880    -0.2368897     0.0231974
  C       -1.2063390    -0.2259120     0.0208160
  H        0.0000000     1.3211710     0.5395190
  H        1.2506670    -0.7711410     0.9791760
  H        2.0850840     0.4194780    -0.0535020
  H        1.2604060    -0.9634470    -0.7853030
  H       -2.0850820     0.4194800    -0.0534940
  H       -1.2506630    -0.7711500     0.9791720
  H       -1.2604150    -0.9634410    -0.7853080
units angstrom
no_reorient  #important for SAPT in psi4, default
symmetry c1  #important for SAPT in psi4, default
}

set PROPERTIES_ORIGIN ["COM"]
properties('MP2/aug-cc-pvtz', properties = ['dipole'])
--------------------------------------------------------------------------

    Molecular point group: c1
  Charge       = 0
  Multiplicity = 1
  Basis Set: AUG-CC-PVTZ
    Blend: AUG-CC-PVTZ
  Basis Set: (AUG-CC-PVTZ AUX)
    Blend: AUG-CC-PVTZ-JKFIT

    Orbital Energies [Eh]
    ---------------------

    Doubly Occupied:

       1A    -15.542852     2A    -11.240007     3A    -11.239970
       4A     -1.192202     5A     -0.943320     6A     -0.852284
       7A     -0.656686     8A     -0.610880     9A     -0.586451
      10A     -0.539828    11A     -0.510456    12A     -0.501687
      13A     -0.371356

  @DF-RHF Final Energy:  -134.29359202264754

   => Energetics <=

    Nuclear Repulsion Energy =             83.9078491827996089
    One-Electron Energy =                -346.8269253431525385
    Two-Electron Energy =                 128.6254841377053708
    Total Energy =                       -134.2935920226475446
  Basis Set: (AUG-CC-PVTZ AUX)
    Blend: AUG-CC-PVTZ-RI
    Molecular point group: c1

    Geometry (in Angstrom), charge = 0, multiplicity = 1:

       Center              X                  Y                   Z               Mass
    ------------   -----------------  -----------------  -----------------  -----------------
         N           -0.004407333681     0.548344090343    -0.135425138361    14.003074004430
         C            1.218480666319    -0.262830609657     0.040635261639    12.000000000000
         C           -1.210746333681    -0.251852909657     0.038253861639    12.000000000000
         H           -0.004407333681     1.295230090343     0.556956861639     1.007825032230
         H            1.246259666319    -0.797081909657     0.996613861639     1.007825032230
         H            2.080676666319     0.393537090343    -0.036064138361     1.007825032230
         H            1.255998666319    -0.989387909657    -0.767865138361     1.007825032230
         H           -2.089489333681     0.393539090343    -0.036056138361     1.007825032230
         H           -1.255070333681    -0.797090909657     0.996609861639     1.007825032230
         H           -1.264822333681    -0.989381909657    -0.767870138361     1.007825032230

  Basis Set: AUG-CC-PVTZ
    Blend: AUG-CC-PVTZ
  Basis Set: (AUG-CC-PVTZ AUX)
    Blend: AUG-CC-PVTZ-JKFIT
	 Reference Energy          =    -134.2935920226475446 [Eh]
	 Singles Energy            =      -0.0000000000000000 [Eh]
	 Same-Spin Energy          =      -0.1366034032290005 [Eh]
	 Opposite-Spin Energy      =      -0.5046525726480054 [Eh]
	 Correlation Energy        =      -0.6412559758770059 [Eh]
	 Total Energy              =    -134.9348479985245604 [Eh]

	 ================> DF-SCS-MP2 Energies <==================
	-----------------------------------------------------------
	 SCS Same-Spin Scale       =       0.3333333333333333 [-]
	 SCS Opposite-Spin Scale   =       1.2000000000000000 [-]
	 SCS Same-Spin Energy      =      -0.0455344677430002 [Eh]
	 SCS Opposite-Spin Energy  =      -0.6055830871776066 [Eh]
	 SCS Correlation Energy    =      -0.6511175549206067 [Eh]
	 SCS Total Energy          =    -134.9447095775681476 [Eh]
	-----------------------------------------------------------

  Dipole Moment: [D]
     X:     0.0378      Y:    -0.3118      Z:     1.0699     Total:     1.1150

*** Psi4 exiting successfully. Buy a developer a beer!
