                               Psi4 1.3.2 release

  ==> Input File <==

--------------------------------------------------------------------------
#psi4
#
memory 32 gb

molecule  {
0 1
  N       -0.0000260     0.5742700    -0.1528520
  C        1.2063640    -0.2258970     0.0208170
  C       -1.2063270    -0.2258910     0.0208010
  H        0.0000069     1.3945597     0.6074459
  H        1.2508010    -0.7709660     0.9792680
  H        2.0851550     0.4194100    -0.0537280
  H        1.2603030    -0.9635770    -0.7851690
  H       -2.0851970     0.4193400    -0.0536760
  H       -1.2508350    -0.7710090     0.9792610
  H       -1.2602770    -0.9635840    -0.7851690
units angstrom
no_reorient  #important for SAPT in psi4, default
symmetry c1  #important for SAPT in psi4, default
}

set PROPERTIES_ORIGIN ["COM"]
properties('MP2/aug-cc-pvtz', properties = ['dipole'])
--------------------------------------------------------------------------

    Molecular point group: c1
  Charge       = 0
  Multiplicity = 1
  Basis Set: AUG-CC-PVTZ
    Blend: AUG-CC-PVTZ
  Basis Set: (AUG-CC-PVTZ AUX)
    Blend: AUG-CC-PVTZ-JKFIT

    Orbital Energies [Eh]
    ---------------------

    Doubly Occupied:

       1A    -15.554132     2A    -11.241026     3A    -11.241010
       4A     -1.187948     5A     -0.943680     6A     -0.839522
       7A     -0.648910     8A     -0.611063     9A     -0.589047
      10A     -0.537651    11A     -0.503537    12A     -0.498267
      13A     -0.370319

  @DF-RHF Final Energy:  -134.28415559943016

   => Energetics <=

    Nuclear Repulsion Energy =             83.6781317489789984
    One-Electron Energy =                -346.3923526907759651
    Two-Electron Energy =                 128.4300653423667882
    Total Energy =                       -134.2841555994301643
  Basis Set: (AUG-CC-PVTZ AUX)
    Blend: AUG-CC-PVTZ-RI
    Molecular point group: c1

    Geometry (in Angstrom), charge = 0, multiplicity = 1:

       Center              X                  Y                   Z               Mass
    ------------   -----------------  -----------------  -----------------  -----------------
         N           -0.000026809688     0.543762715445    -0.136299977891    14.003074004430
         C            1.206363190312    -0.256404284555     0.037369022109    12.000000000000
         C           -1.206327809688    -0.256398284555     0.037353022109    12.000000000000
         H            0.000006090312     1.364052415445     0.623997922109     1.007825032230
         H            1.250800190312    -0.801473284555     0.995820022109     1.007825032230
         H            2.085154190312     0.388902715445    -0.037175977891     1.007825032230
         H            1.260302190312    -0.994084284555    -0.768616977891     1.007825032230
         H           -2.085197809688     0.388832715445    -0.037123977891     1.007825032230
         H           -1.250835809688    -0.801516284555     0.995813022109     1.007825032230
         H           -1.260277809688    -0.994091284555    -0.768616977891     1.007825032230

  Basis Set: AUG-CC-PVTZ
    Blend: AUG-CC-PVTZ
  Basis Set: (AUG-CC-PVTZ AUX)
    Blend: AUG-CC-PVTZ-JKFIT
	 Reference Energy          =    -134.2841555994301643 [Eh]
	 Singles Energy            =      -0.0000000000000000 [Eh]
	 Same-Spin Energy          =      -0.1371561522936492 [Eh]
	 Opposite-Spin Energy      =      -0.5063632211312005 [Eh]
	 Correlation Energy        =      -0.6435193734248497 [Eh]
	 Total Energy              =    -134.9276749728550158 [Eh]

	 ================> DF-SCS-MP2 Energies <==================
	-----------------------------------------------------------
	 SCS Same-Spin Scale       =       0.3333333333333333 [-]
	 SCS Opposite-Spin Scale   =       1.2000000000000000 [-]
	 SCS Same-Spin Energy      =      -0.0457187174312164 [Eh]
	 SCS Opposite-Spin Energy  =      -0.6076358653574405 [Eh]
	 SCS Correlation Energy    =      -0.6533545827886569 [Eh]
	 SCS Total Energy          =    -134.9375101822188299 [Eh]
	-----------------------------------------------------------

  Dipole Moment: [D]
     X:     0.0002      Y:    -0.2867      Z:     1.0598     Total:     1.0979

*** Psi4 exiting successfully. Buy a developer a beer!
