                               Psi4 1.4a3.dev225

  ==> Input File <==

--------------------------------------------------------------------------
#psi4
#
memory 32 gb

molecule  {
0 1
  N        0.0000000     0.5742850    -0.1528630
  C        1.1897920    -0.2149363     0.0184326
  C       -1.2063390    -0.2259120     0.0208160
  H        0.0000000     1.3211710     0.5395190
  H        1.2506670    -0.7711410     0.9791760
  H        2.0850840     0.4194780    -0.0535020
  H        1.2604060    -0.9634470    -0.7853030
  H       -2.0850820     0.4194800    -0.0534940
  H       -1.2506630    -0.7711500     0.9791720
  H       -1.2604150    -0.9634410    -0.7853080
units angstrom
no_reorient  #important for SAPT in psi4, default
symmetry c1  #important for SAPT in psi4, default
}

set PROPERTIES_ORIGIN ["COM"]
properties('MP2/aug-cc-pvtz', properties = ['dipole'])
--------------------------------------------------------------------------

    Molecular point group: c1
  Charge       = 0
  Multiplicity = 1
  Basis Set: AUG-CC-PVTZ
    Blend: AUG-CC-PVTZ
  Basis Set: (AUG-CC-PVTZ AUX)
    Blend: AUG-CC-PVTZ-JKFIT

    Orbital Energies [Eh]
    ---------------------

    Doubly Occupied:

       1A    -15.543422     2A    -11.241271     3A    -11.241206
       4A     -1.202793     5A     -0.943851     6A     -0.850880
       7A     -0.661601     8A     -0.611680     9A     -0.592056
      10A     -0.535237    11A     -0.509482    12A     -0.501516
      13A     -0.371339

  @DF-RHF Final Energy:  -134.29350467193549

   => Energetics <=

    Nuclear Repulsion Energy =             84.3814987294775420
    One-Electron Energy =                -347.7373385904465408
    Two-Electron Energy =                 129.0623351890335186
    Total Energy =                       -134.2935046719354943
  Basis Set: (AUG-CC-PVTZ AUX)
    Blend: AUG-CC-PVTZ-RI
    Molecular point group: c1

    Geometry (in Angstrom), charge = 0, multiplicity = 1:

       Center              X                  Y                   Z               Mass
    ------------   -----------------  -----------------  -----------------  -----------------
         N            0.004406935237     0.542497366532    -0.134156156353    14.003074004430
         C            1.194198935237    -0.246723933468     0.037139443647    12.000000000000
         C           -1.201932064763    -0.257699633468     0.039522843647    12.000000000000
         H            0.004406935237     1.289383366532     0.558225843647     1.007825032230
         H            1.255073935237    -0.802928633468     0.997882843647     1.007825032230
         H            2.089490935237     0.387690366532    -0.034795156353     1.007825032230
         H            1.264812935237    -0.995234633468    -0.766596156353     1.007825032230
         H           -2.080675064763     0.387692366532    -0.034787156353     1.007825032230
         H           -1.246256064763    -0.802937633468     0.997878843647     1.007825032230
         H           -1.256008064763    -0.995228633468    -0.766601156353     1.007825032230

  Basis Set: AUG-CC-PVTZ
    Blend: AUG-CC-PVTZ
  Basis Set: (AUG-CC-PVTZ AUX)
    Blend: AUG-CC-PVTZ-JKFIT
	 Reference Energy          =    -134.2935046719354943 [Eh]
	 Singles Energy            =      -0.0000000000000000 [Eh]
	 Same-Spin Energy          =      -0.1367983052989728 [Eh]
	 Opposite-Spin Energy      =      -0.5045237050437552 [Eh]
	 Correlation Energy        =      -0.6413220103427280 [Eh]
	 Total Energy              =    -134.9348266822782136 [Eh]

	 ================> DF-SCS-MP2 Energies <==================
	-----------------------------------------------------------
	 SCS Same-Spin Scale       =       0.3333333333333333 [-]
	 SCS Opposite-Spin Scale   =       1.2000000000000000 [-]
	 SCS Same-Spin Energy      =      -0.0455994350996576 [Eh]
	 SCS Opposite-Spin Energy  =      -0.6054284460525062 [Eh]
	 SCS Correlation Energy    =      -0.6510278811521638 [Eh]
	 SCS Total Energy          =    -134.9445325530876687 [Eh]
	-----------------------------------------------------------

  Dipole Moment: [D]
     X:    -0.0406      Y:    -0.2546      Z:     1.0452     Total:     1.0765

*** Psi4 exiting successfully. Buy a developer a beer!
