                               Psi4 1.3.2 release

  ==> Input File <==

--------------------------------------------------------------------------
#psi4
#
memory 32 gb

molecule  {
0 1
  N       -0.0000260     0.5742700    -0.1528520
  C        1.2204702    -0.2051997     0.0163251
  C       -1.2063270    -0.2258910     0.0208010
  H        0.0000040     1.3212180     0.5394680
  H        1.2508010    -0.7709660     0.9792680
  H        2.0851550     0.4194100    -0.0537280
  H        1.2603030    -0.9635770    -0.7851690
  H       -2.0851970     0.4193400    -0.0536760
  H       -1.2508350    -0.7710090     0.9792610
  H       -1.2602770    -0.9635840    -0.7851690
units angstrom
no_reorient  #important for SAPT in psi4, default
symmetry c1  #important for SAPT in psi4, default
}

set PROPERTIES_ORIGIN ["COM"]
properties('MP2/aug-cc-pvtz', properties = ['dipole'])
--------------------------------------------------------------------------

    Molecular point group: c1
  Charge       = 0
  Multiplicity = 1
  Basis Set: AUG-CC-PVTZ
    Blend: AUG-CC-PVTZ
  Basis Set: (AUG-CC-PVTZ AUX)
    Blend: AUG-CC-PVTZ-JKFIT

    Orbital Energies [Eh]
    ---------------------

    Doubly Occupied:

       1A    -15.542967     2A    -11.241049     3A    -11.240880
       4A     -1.196888     5A     -0.944644     6A     -0.850963
       7A     -0.659784     8A     -0.611313     9A     -0.588529
      10A     -0.534211    11A     -0.511221    12A     -0.505708
      13A     -0.369784

  @DF-RHF Final Energy:  -134.29330275757206

   => Energetics <=

    Nuclear Repulsion Energy =             84.0847697069542193
    One-Electron Energy =                -347.1602651571757860
    Two-Electron Energy =                 128.7821926926495166
    Total Energy =                       -134.2933027575720644
  Basis Set: (AUG-CC-PVTZ AUX)
    Blend: AUG-CC-PVTZ-RI
    Molecular point group: c1

    Geometry (in Angstrom), charge = 0, multiplicity = 1:

       Center              X                  Y                   Z               Mass
    ------------   -----------------  -----------------  -----------------  -----------------
         N           -0.003783568615     0.539890981623    -0.133583189776    14.003074004430
         C            1.216712631385    -0.239578718377     0.035593910224    12.000000000000
         C           -1.210084568615    -0.260270018377     0.040069810224    12.000000000000
         H           -0.003753568615     1.286838981623     0.558736810224     1.007825032230
         H            1.247043431385    -0.805345018377     0.998536810224     1.007825032230
         H            2.081397431385     0.385030981623    -0.034459189776     1.007825032230
         H            1.256545431385    -0.997956018377    -0.765900189776     1.007825032230
         H           -2.088954568615     0.384960981623    -0.034407189776     1.007825032230
         H           -1.254592568615    -0.805388018377     0.998529810224     1.007825032230
         H           -1.264034568615    -0.997963018377    -0.765900189776     1.007825032230

  Basis Set: AUG-CC-PVTZ
    Blend: AUG-CC-PVTZ
  Basis Set: (AUG-CC-PVTZ AUX)
    Blend: AUG-CC-PVTZ-JKFIT
	 Reference Energy          =    -134.2933027575720644 [Eh]
	 Singles Energy            =      -0.0000000000000000 [Eh]
	 Same-Spin Energy          =      -0.1366703113831536 [Eh]
	 Opposite-Spin Energy      =      -0.5045275151354729 [Eh]
	 Correlation Energy        =      -0.6411978265186266 [Eh]
	 Total Energy              =    -134.9345005840906992 [Eh]

	 ================> DF-SCS-MP2 Energies <==================
	-----------------------------------------------------------
	 SCS Same-Spin Scale       =       0.3333333333333333 [-]
	 SCS Opposite-Spin Scale   =       1.2000000000000000 [-]
	 SCS Same-Spin Energy      =      -0.0455567704610512 [Eh]
	 SCS Opposite-Spin Energy  =      -0.6054330181625674 [Eh]
	 SCS Correlation Energy    =      -0.6509897886236187 [Eh]
	 SCS Total Energy          =    -134.9442925461956690 [Eh]
	-----------------------------------------------------------

  Dipole Moment: [D]
     X:     0.0047      Y:    -0.2642      Z:     1.0450     Total:     1.0779

*** Psi4 exiting successfully. Buy a developer a beer!
