                               Psi4 1.3.2 release

  ==> Input File <==

--------------------------------------------------------------------------
#psi4
#
memory 32 gb

molecule  {
0 1
  N       -0.0000260     0.5742700    -0.1528520
  C        1.2063640    -0.2258970     0.0208170
  C       -1.2063270    -0.2258910     0.0208010
  H        0.0000040     1.3212180     0.5394680
  H        1.2508010    -0.7709660     0.9792680
  H        2.0851550     0.4194100    -0.0537280
  H        1.2603030    -0.9635770    -0.7851690
  H       -2.0851970     0.4193400    -0.0536760
  H       -1.2508350    -0.7710090     0.9792610
  H       -1.2602770    -0.9635840    -0.7851690
units angstrom
no_reorient  #important for SAPT in psi4, default
symmetry c1  #important for SAPT in psi4, default
}

set PROPERTIES_ORIGIN ["COM"]
properties('MP2/aug-cc-pvtz', properties = ['dipole'])
--------------------------------------------------------------------------

    Molecular point group: c1
  Charge       = 0
  Multiplicity = 1
  Basis Set: AUG-CC-PVTZ
    Blend: AUG-CC-PVTZ
  Basis Set: (AUG-CC-PVTZ AUX)
    Blend: AUG-CC-PVTZ-JKFIT

    Orbital Energies [Eh]
    ---------------------

    Doubly Occupied:

       1A    -15.543139     2A    -11.240582     3A    -11.240566
       4A     -1.197336     5A     -0.943508     6A     -0.851638
       7A     -0.659044     8A     -0.611132     9A     -0.589156
      10A     -0.537405    11A     -0.508701    12A     -0.503225
      13A     -0.371425

  @DF-RHF Final Energy:  -134.29392798708096

   => Energetics <=

    Nuclear Repulsion Energy =             84.1421216046225737
    One-Electron Energy =                -347.2783859656644836
    Two-Electron Energy =                 128.8423363739609613
    Total Energy =                       -134.2939279870809628
  Basis Set: (AUG-CC-PVTZ AUX)
    Blend: AUG-CC-PVTZ-RI
    Molecular point group: c1

    Geometry (in Angstrom), charge = 0, multiplicity = 1:

       Center              X                  Y                   Z               Mass
    ------------   -----------------  -----------------  -----------------  -----------------
         N           -0.000026744823     0.545403175485    -0.134779491884    14.003074004430
         C            1.206363255177    -0.254763824515     0.038889508116    12.000000000000
         C           -1.206327744823    -0.254757824515     0.038873508116    12.000000000000
         H            0.000003255177     1.292351175485     0.557540508116     1.007825032230
         H            1.250800255177    -0.799832824515     0.997340508116     1.007825032230
         H            2.085154255177     0.390543175485    -0.035655491884     1.007825032230
         H            1.260302255177    -0.992443824515    -0.767096491884     1.007825032230
         H           -2.085197744823     0.390473175485    -0.035603491884     1.007825032230
         H           -1.250835744823    -0.799875824515     0.997333508116     1.007825032230
         H           -1.260277744823    -0.992450824515    -0.767096491884     1.007825032230

  Basis Set: AUG-CC-PVTZ
    Blend: AUG-CC-PVTZ
  Basis Set: (AUG-CC-PVTZ AUX)
    Blend: AUG-CC-PVTZ-JKFIT
	 Reference Energy          =    -134.2939279870809628 [Eh]
	 Singles Energy            =      -0.0000000000000000 [Eh]
	 Same-Spin Energy          =      -0.1366875001906413 [Eh]
	 Opposite-Spin Energy      =      -0.5045641685061378 [Eh]
	 Correlation Energy        =      -0.6412516686967791 [Eh]
	 Total Energy              =    -134.9351796557777448 [Eh]

	 ================> DF-SCS-MP2 Energies <==================
	-----------------------------------------------------------
	 SCS Same-Spin Scale       =       0.3333333333333333 [-]
	 SCS Opposite-Spin Scale   =       1.2000000000000000 [-]
	 SCS Same-Spin Energy      =      -0.0455625000635471 [Eh]
	 SCS Opposite-Spin Energy  =      -0.6054770022073653 [Eh]
	 SCS Correlation Energy    =      -0.6510395022709125 [Eh]
	 SCS Total Energy          =    -134.9449674893518818 [Eh]
	-----------------------------------------------------------

  Dipole Moment: [D]
     X:     0.0002      Y:    -0.2840      Z:     1.0579     Total:     1.0953

*** Psi4 exiting successfully. Buy a developer a beer!
