                               Psi4 1.4a3.dev225

  ==> Input File <==

--------------------------------------------------------------------------
#psi4
#
memory 32 gb

molecule  {
0 1
  N        0.0000000     0.5742850    -0.1528630
  C        1.2063400    -0.2259130     0.0208150
  C       -1.2063390    -0.2259120     0.0208160
  H        0.0000000     1.3578389     0.5735111
  H        1.2506670    -0.7711410     0.9791760
  H        2.0850840     0.4194780    -0.0535020
  H        1.2604060    -0.9634470    -0.7853030
  H       -2.0850820     0.4194800    -0.0534940
  H       -1.2506630    -0.7711500     0.9791720
  H       -1.2604150    -0.9634410    -0.7853080
units angstrom
no_reorient  #important for SAPT in psi4, default
symmetry c1  #important for SAPT in psi4, default
}

set PROPERTIES_ORIGIN ["COM"]
properties('MP2/aug-cc-pvtz', properties = ['dipole'])
--------------------------------------------------------------------------

    Molecular point group: c1
  Charge       = 0
  Multiplicity = 1
  Basis Set: AUG-CC-PVTZ
    Blend: AUG-CC-PVTZ
  Basis Set: (AUG-CC-PVTZ AUX)
    Blend: AUG-CC-PVTZ-JKFIT

    Orbital Energies [Eh]
    ---------------------

    Doubly Occupied:

       1A    -15.548765     2A    -11.240760     3A    -11.240744
       4A     -1.192142     5A     -0.943551     6A     -0.845103
       7A     -0.653906     8A     -0.611063     9A     -0.589043
      10A     -0.537499    11A     -0.503630    12A     -0.503321
      13A     -0.370833

  @DF-RHF Final Energy:  -134.29045972497281

   => Energetics <=

    Nuclear Repulsion Energy =             83.9020613618874762
    One-Electron Energy =                -346.8243200461043330
    Two-Electron Energy =                 128.6317989592440370
    Total Energy =                       -134.2904597249728056
  Basis Set: (AUG-CC-PVTZ AUX)
    Blend: AUG-CC-PVTZ-RI
    Molecular point group: c1

    Geometry (in Angstrom), charge = 0, multiplicity = 1:

       Center              X                  Y                   Z               Mass
    ------------   -----------------  -----------------  -----------------  -----------------
         N           -0.000000199222     0.544600564401    -0.135550960818    14.003074004430
         C            1.206339800778    -0.255597435599     0.038127039182    12.000000000000
         C           -1.206339199222    -0.255596435599     0.038128039182    12.000000000000
         H           -0.000000199222     1.328154464401     0.590823139182     1.007825032230
         H            1.250666800778    -0.800825435599     0.996488039182     1.007825032230
         H            2.085083800778     0.389793564401    -0.036189960818     1.007825032230
         H            1.260405800778    -0.993131435599    -0.767990960818     1.007825032230
         H           -2.085082199222     0.389795564401    -0.036181960818     1.007825032230
         H           -1.250663199222    -0.800834435599     0.996484039182     1.007825032230
         H           -1.260415199222    -0.993125435599    -0.767995960818     1.007825032230

  Basis Set: AUG-CC-PVTZ
    Blend: AUG-CC-PVTZ
  Basis Set: (AUG-CC-PVTZ AUX)
    Blend: AUG-CC-PVTZ-JKFIT
	 Reference Energy          =    -134.2904597249728056 [Eh]
	 Singles Energy            =      -0.0000000000000000 [Eh]
	 Same-Spin Energy          =      -0.1369261919266666 [Eh]
	 Opposite-Spin Energy      =      -0.5054320261214285 [Eh]
	 Correlation Energy        =      -0.6423582180480951 [Eh]
	 Total Energy              =    -134.9328179430208934 [Eh]

	 ================> DF-SCS-MP2 Energies <==================
	-----------------------------------------------------------
	 SCS Same-Spin Scale       =       0.3333333333333333 [-]
	 SCS Opposite-Spin Scale   =       1.2000000000000000 [-]
	 SCS Same-Spin Energy      =      -0.0456420639755555 [Eh]
	 SCS Opposite-Spin Energy  =      -0.6065184313457141 [Eh]
	 SCS Correlation Energy    =      -0.6521604953212696 [Eh]
	 SCS Total Energy          =    -134.9426202202940885 [Eh]
	-----------------------------------------------------------

  Dipole Moment: [D]
     X:     0.0000      Y:    -0.2827      Z:     1.0604     Total:     1.0974

*** Psi4 exiting successfully. Buy a developer a beer!
