                               Psi4 1.3.2 release

  ==> Input File <==

--------------------------------------------------------------------------
#psi4
#
memory 32 gb

molecule  {
0 1
  O        1.5890300     1.0650170     0.1165590
  O        1.2943400    -1.1672870    -0.2725970
  N       -1.1697041    -1.2098083     0.0745170
  C       -0.5886430     0.1367320     0.4064510
  C       -1.2536845     1.3258120    -0.2580071
  C        0.9223610     0.0094930     0.0395840
  H       -0.6685550     0.2311640     1.4926420
  H       -1.7458480    -1.1434940    -0.8256840
  H       -1.8050530    -1.5837490     0.7705650
  H       -2.3371450     1.3649650     0.0138330
  H       -0.7761520     2.2140110    -0.0029500
  H       -1.2289870     1.1856370    -1.3693840
  H       -0.3506960    -1.7809300    -0.1207870
units angstrom
no_reorient  #important for SAPT in psi4, default
symmetry c1  #important for SAPT in psi4, default
}

set PROPERTIES_ORIGIN ["COM"]
properties('MP2/aug-cc-pvtz', properties = ['dipole'])
--------------------------------------------------------------------------

    Molecular point group: c1
  Charge       = 0
  Multiplicity = 1
  Basis Set: AUG-CC-PVTZ
    Blend: AUG-CC-PVTZ
  Basis Set: (AUG-CC-PVTZ AUX)
    Blend: AUG-CC-PVTZ-JKFIT

    Orbital Energies [Eh]
    ---------------------

    Doubly Occupied:

       1A    -20.487342     2A    -20.471846     3A    -15.714072
       4A    -11.326626     5A    -11.311114     6A    -11.254345
       7A     -1.368135     8A     -1.321713     9A     -1.253501
      10A     -1.061589    11A     -0.909226    12A     -0.816981
      13A     -0.776494    14A     -0.723678    15A     -0.672722
      16A     -0.625463    17A     -0.593875    18A     -0.574573
      19A     -0.565675    20A     -0.544428    21A     -0.509544
      22A     -0.405764    23A     -0.383795    24A     -0.376029

  @DF-RHF Final Energy:  -321.94791297362764

   => Energetics <=

    Nuclear Repulsion Energy =            249.9576465867475008
    One-Electron Energy =                -935.7140530146295987
    Two-Electron Energy =                 363.8084934542544602
    Total Energy =                       -321.9479129736276377
  Basis Set: (AUG-CC-PVTZ AUX)
    Blend: AUG-CC-PVTZ-RI
    Molecular point group: c1

    Geometry (in Angstrom), charge = 0, multiplicity = 1:

       Center              X                  Y                   Z               Mass
    ------------   -----------------  -----------------  -----------------  -----------------
         O            1.479897117940     1.069744484921     0.108002959250    15.994914619570
         O            1.185207117940    -1.162559515079    -0.281153040750    15.994914619570
         N           -1.278836982060    -1.205080815079     0.065960959250    14.003074004430
         C           -0.697775882060     0.141459484921     0.397894959250    12.000000000000
         C           -1.362817382060     1.330539484921    -0.266563140750    12.000000000000
         C            0.813228117940     0.014220484921     0.031027959250    12.000000000000
         H           -0.777687882060     0.235891484921     1.484085959250     1.007825032230
         H           -1.854980882060    -1.138766515079    -0.834240040750     1.007825032230
         H           -1.914185882060    -1.579021515079     0.762008959250     1.007825032230
         H           -2.446277882060     1.369692484921     0.005276959250     1.007825032230
         H           -0.885284882060     2.218738484921    -0.011506040750     1.007825032230
         H           -1.338119882060     1.190364484921    -1.377940040750     1.007825032230
         H           -0.459828882060    -1.776202515079    -0.129343040750     1.007825032230

  Basis Set: AUG-CC-PVTZ
    Blend: AUG-CC-PVTZ
  Basis Set: (AUG-CC-PVTZ AUX)
    Blend: AUG-CC-PVTZ-JKFIT
	 Reference Energy          =    -321.9479129736276377 [Eh]
	 Singles Energy            =      -0.0000000000000000 [Eh]
	 Same-Spin Energy          =      -0.3219499147653903 [Eh]
	 Opposite-Spin Energy      =      -1.0067291828269465 [Eh]
	 Correlation Energy        =      -1.3286790975923368 [Eh]
	 Total Energy              =    -323.2765920712199659 [Eh]

	 ================> DF-SCS-MP2 Energies <==================
	-----------------------------------------------------------
	 SCS Same-Spin Scale       =       0.3333333333333333 [-]
	 SCS Opposite-Spin Scale   =       1.2000000000000000 [-]
	 SCS Same-Spin Energy      =      -0.1073166382551301 [Eh]
	 SCS Opposite-Spin Energy  =      -1.2080750193923357 [Eh]
	 SCS Correlation Energy    =      -1.3153916576474658 [Eh]
	 SCS Total Energy          =    -323.2633046312751048 [Eh]
	-----------------------------------------------------------

  Dipole Moment: [D]
     X:    -9.8068      Y:    -2.8449      Z:     0.7122     Total:    10.2359

*** Psi4 exiting successfully. Buy a developer a beer!
