                               Psi4 1.3.2 release

  ==> Input File <==

--------------------------------------------------------------------------
#psi4
#
memory 32 gb

molecule  {
0 1
  O        1.5890300     1.0650170     0.1165590
  O        1.2943400    -1.1672870    -0.2725970
  N       -1.2148064    -1.1942536     0.0943941
  C       -0.5886430     0.1367320     0.4064510
  C       -1.2872470     1.2925570    -0.2818200
  C        0.9223610     0.0094930     0.0395840
  H       -0.6856518     0.1970658     1.4936784
  H       -1.7458480    -1.1434940    -0.8256840
  H       -1.8050530    -1.5837490     0.7705650
  H       -2.3371450     1.3649650     0.0138330
  H       -0.7761520     2.2140110    -0.0029500
  H       -1.2289870     1.1856370    -1.3693840
  H       -0.3506960    -1.7809300    -0.1207870
units angstrom
no_reorient  #important for SAPT in psi4, default
symmetry c1  #important for SAPT in psi4, default
}

set PROPERTIES_ORIGIN ["COM"]
properties('MP2/aug-cc-pvtz', properties = ['dipole'])
--------------------------------------------------------------------------

    Molecular point group: c1
  Charge       = 0
  Multiplicity = 1
  Basis Set: AUG-CC-PVTZ
    Blend: AUG-CC-PVTZ
  Basis Set: (AUG-CC-PVTZ AUX)
    Blend: AUG-CC-PVTZ-JKFIT

    Orbital Energies [Eh]
    ---------------------

    Doubly Occupied:

       1A    -20.490914     2A    -20.474103     3A    -15.708213
       4A    -11.329306     5A    -11.311731     6A    -11.252451
       7A     -1.367538     8A     -1.321916     9A     -1.255811
      10A     -1.060696    11A     -0.910367    12A     -0.817528
      13A     -0.766663    14A     -0.728736    15A     -0.668610
      16A     -0.630466    17A     -0.582734    18A     -0.571982
      19A     -0.564007    20A     -0.552720    21A     -0.513173
      22A     -0.408201    23A     -0.386153    24A     -0.378207

  @DF-RHF Final Energy:  -321.95083853142404

   => Energetics <=

    Nuclear Repulsion Energy =            249.6006849099493081
    One-Electron Energy =                -934.9985912851938110
    Two-Electron Energy =                 363.4470678438204345
    Total Energy =                       -321.9508385314240400
  Basis Set: (AUG-CC-PVTZ AUX)
    Blend: AUG-CC-PVTZ-RI
    Molecular point group: c1

    Geometry (in Angstrom), charge = 0, multiplicity = 1:

       Center              X                  Y                   Z               Mass
    ------------   -----------------  -----------------  -----------------  -----------------
         O            1.491705976360     1.072165787845     0.108074491579    15.994914619570
         O            1.197015976360    -1.160138212155    -0.281081508421    15.994914619570
         N           -1.312130423640    -1.187104812155     0.085909591579    14.003074004430
         C           -0.685967023640     0.143880787845     0.397966491579    12.000000000000
         C           -1.384571023640     1.299705787845    -0.290304508421    12.000000000000
         C            0.825036976360     0.016641787845     0.031099491579    12.000000000000
         H           -0.782975823640     0.204214587845     1.485193891579     1.007825032230
         H           -1.843172023640    -1.136345212155    -0.834168508421     1.007825032230
         H           -1.902377023640    -1.576600212155     0.762080491579     1.007825032230
         H           -2.434469023640     1.372113787845     0.005348491579     1.007825032230
         H           -0.873476023640     2.221159787845    -0.011434508421     1.007825032230
         H           -1.326311023640     1.192785787845    -1.377868508421     1.007825032230
         H           -0.448020023640    -1.773781212155    -0.129271508421     1.007825032230

  Basis Set: AUG-CC-PVTZ
    Blend: AUG-CC-PVTZ
  Basis Set: (AUG-CC-PVTZ AUX)
    Blend: AUG-CC-PVTZ-JKFIT
	 Reference Energy          =    -321.9508385314240400 [Eh]
	 Singles Energy            =      -0.0000000000000000 [Eh]
	 Same-Spin Energy          =      -0.3223398468427595 [Eh]
	 Opposite-Spin Energy      =      -1.0071376396410594 [Eh]
	 Correlation Energy        =      -1.3294774864838188 [Eh]
	 Total Energy              =    -323.2803160179078645 [Eh]

	 ================> DF-SCS-MP2 Energies <==================
	-----------------------------------------------------------
	 SCS Same-Spin Scale       =       0.3333333333333333 [-]
	 SCS Opposite-Spin Scale   =       1.2000000000000000 [-]
	 SCS Same-Spin Energy      =      -0.1074466156142532 [Eh]
	 SCS Opposite-Spin Energy  =      -1.2085651675692712 [Eh]
	 SCS Correlation Energy    =      -1.3160117831835243 [Eh]
	 SCS Total Energy          =    -323.2668503146075523 [Eh]
	-----------------------------------------------------------

  Dipole Moment: [D]
     X:    -9.6651      Y:    -2.8082      Z:     0.6911     Total:    10.0885

*** Psi4 exiting successfully. Buy a developer a beer!
