                               Psi4 1.3.2 release

  ==> Input File <==

--------------------------------------------------------------------------
#psi4
#
memory 32 gb

molecule  {
0 1
  O        1.5890300     1.0650170     0.1165590
  O        1.2839787    -1.1709444    -0.2709587
  N       -1.2047650    -1.1860200     0.0435410
  C       -0.5902438     0.1233956     0.4042304
  C       -1.2872470     1.2925570    -0.2818200
  C        0.9223610     0.0094930     0.0395840
  H       -0.6685550     0.2311640     1.4926420
  H       -1.7458480    -1.1434940    -0.8256840
  H       -1.8050530    -1.5837490     0.7705650
  H       -2.3371450     1.3649650     0.0138330
  H       -0.7761520     2.2140110    -0.0029500
  H       -1.2289870     1.1856370    -1.3693840
  H       -0.3506960    -1.7809300    -0.1207870
units angstrom
no_reorient  #important for SAPT in psi4, default
symmetry c1  #important for SAPT in psi4, default
}

set PROPERTIES_ORIGIN ["COM"]
properties('MP2/aug-cc-pvtz', properties = ['dipole'])
--------------------------------------------------------------------------

    Molecular point group: c1
  Charge       = 0
  Multiplicity = 1
  Basis Set: AUG-CC-PVTZ
    Blend: AUG-CC-PVTZ
  Basis Set: (AUG-CC-PVTZ AUX)
    Blend: AUG-CC-PVTZ-JKFIT

    Orbital Energies [Eh]
    ---------------------

    Doubly Occupied:

       1A    -20.489962     2A    -20.473959     3A    -15.710284
       4A    -11.328412     5A    -11.309824     6A    -11.251413
       7A     -1.369119     8A     -1.323362     9A     -1.255892
      10A     -1.057630    11A     -0.910323    12A     -0.807987
      13A     -0.780936    14A     -0.727054    15A     -0.675688
      16A     -0.627603    17A     -0.582692    18A     -0.570461
      19A     -0.561395    20A     -0.553110    21A     -0.511284
      22A     -0.407815    23A     -0.385107    24A     -0.378278

  @DF-RHF Final Energy:  -321.95507910928978

   => Energetics <=

    Nuclear Repulsion Energy =            249.9656364713401047
    One-Electron Energy =                -935.7422498387436463
    Two-Electron Energy =                 363.8215342581137861
    Total Energy =                       -321.9550791092897839
  Basis Set: (AUG-CC-PVTZ AUX)
    Blend: AUG-CC-PVTZ-RI
    Molecular point group: c1

    Geometry (in Angstrom), charge = 0, multiplicity = 1:

       Center              X                  Y                   Z               Mass
    ------------   -----------------  -----------------  -----------------  -----------------
         O            1.492010270183     1.072939259678     0.116088029676    15.994914619570
         O            1.186958970183    -1.163022140322    -0.271429670324    15.994914619570
         N           -1.301784729817    -1.178097740322     0.043070029676    14.003074004430
         C           -0.687263529817     0.131317859678     0.403759429676    12.000000000000
         C           -1.384266729817     1.300479259678    -0.282290970324    12.000000000000
         C            0.825341270183     0.017415259678     0.039113029676    12.000000000000
         H           -0.765574729817     0.239086259678     1.492171029676     1.007825032230
         H           -1.842867729817    -1.135571740322    -0.826154970324     1.007825032230
         H           -1.902072729817    -1.575826740322     0.770094029676     1.007825032230
         H           -2.434164729817     1.372887259678     0.013362029676     1.007825032230
         H           -0.873171729817     2.221933259678    -0.003420970324     1.007825032230
         H           -1.326006729817     1.193559259678    -1.369854970324     1.007825032230
         H           -0.447715729817    -1.773007740322    -0.121257970324     1.007825032230

  Basis Set: AUG-CC-PVTZ
    Blend: AUG-CC-PVTZ
  Basis Set: (AUG-CC-PVTZ AUX)
    Blend: AUG-CC-PVTZ-JKFIT
	 Reference Energy          =    -321.9550791092897839 [Eh]
	 Singles Energy            =      -0.0000000000000000 [Eh]
	 Same-Spin Energy          =      -0.3222039018318538 [Eh]
	 Opposite-Spin Energy      =      -1.0067197402907913 [Eh]
	 Correlation Energy        =      -1.3289236421226449 [Eh]
	 Total Energy              =    -323.2840027514124017 [Eh]

	 ================> DF-SCS-MP2 Energies <==================
	-----------------------------------------------------------
	 SCS Same-Spin Scale       =       0.3333333333333333 [-]
	 SCS Opposite-Spin Scale   =       1.2000000000000000 [-]
	 SCS Same-Spin Energy      =      -0.1074013006106179 [Eh]
	 SCS Opposite-Spin Energy  =      -1.2080636883489495 [Eh]
	 SCS Correlation Energy    =      -1.3154649889595675 [Eh]
	 SCS Total Energy          =    -323.2705440982493315 [Eh]
	-----------------------------------------------------------

  Dipole Moment: [D]
     X:    -9.6731      Y:    -2.8572      Z:     0.7056     Total:    10.1109

*** Psi4 exiting successfully. Buy a developer a beer!
