                               Psi4 1.3.2 release

  ==> Input File <==

--------------------------------------------------------------------------
#psi4
#
memory 32 gb

molecule  {
0 1
  O        1.5890300     1.0650170     0.1165590
  O        1.2943400    -1.1672870    -0.2725970
  N       -1.2047650    -1.1860200     0.0435410
  C       -0.5886430     0.1367320     0.4064510
  C       -1.2872470     1.2925570    -0.2818200
  C        0.9155811     0.0077652     0.0132697
  H       -0.6875319     0.2322469     1.4909841
  H       -1.7458480    -1.1434940    -0.8256840
  H       -1.8050530    -1.5837490     0.7705650
  H       -2.3371450     1.3649650     0.0138330
  H       -0.7761520     2.2140110    -0.0029500
  H       -1.2289870     1.1856370    -1.3693840
  H       -0.3506960    -1.7809300    -0.1207870
units angstrom
no_reorient  #important for SAPT in psi4, default
symmetry c1  #important for SAPT in psi4, default
}

set PROPERTIES_ORIGIN ["COM"]
properties('MP2/aug-cc-pvtz', properties = ['dipole'])
--------------------------------------------------------------------------

    Molecular point group: c1
  Charge       = 0
  Multiplicity = 1
  Basis Set: AUG-CC-PVTZ
    Blend: AUG-CC-PVTZ
  Basis Set: (AUG-CC-PVTZ AUX)
    Blend: AUG-CC-PVTZ-JKFIT

    Orbital Energies [Eh]
    ---------------------

    Doubly Occupied:

       1A    -20.491511     2A    -20.471686     3A    -15.709807
       4A    -11.328428     5A    -11.311742     6A    -11.251388
       7A     -1.368569     8A     -1.321173     9A     -1.254104
      10A     -1.060465    11A     -0.909576    12A     -0.807913
      13A     -0.779948    14A     -0.725001    15A     -0.676119
      16A     -0.629622    17A     -0.581955    18A     -0.571364
      19A     -0.561389    20A     -0.553675    21A     -0.512882
      22A     -0.408221    23A     -0.384362    24A     -0.376545

  @DF-RHF Final Energy:  -321.95411037339039

   => Energetics <=

    Nuclear Repulsion Energy =            249.8435162767175370
    One-Electron Energy =                -935.5003611825258076
    Two-Electron Energy =                 363.7027345324178782
    Total Energy =                       -321.9541103733903924
  Basis Set: (AUG-CC-PVTZ AUX)
    Blend: AUG-CC-PVTZ-RI
    Molecular point group: c1

    Geometry (in Angstrom), charge = 0, multiplicity = 1:

       Center              X                  Y                   Z               Mass
    ------------   -----------------  -----------------  -----------------  -----------------
         O            1.491061862370     1.070705687980     0.119647917449    15.994914619570
         O            1.196371862370    -1.161598312020    -0.269508082551    15.994914619570
         N           -1.302733137630    -1.180331312020     0.046629917449    14.003074004430
         C           -0.686611137630     0.142420687980     0.409539917449    12.000000000000
         C           -1.385215137630     1.298245687980    -0.278731082551    12.000000000000
         C            0.817612962370     0.013453887980     0.016358617449    12.000000000000
         H           -0.785500037630     0.237935587980     1.494073017449     1.007825032230
         H           -1.843816137630    -1.137805312020    -0.822595082551     1.007825032230
         H           -1.903021137630    -1.578060312020     0.773653917449     1.007825032230
         H           -2.435113137630     1.370653687980     0.016921917449     1.007825032230
         H           -0.874120137630     2.219699687980     0.000138917449     1.007825032230
         H           -1.326955137630     1.191325687980    -1.366295082551     1.007825032230
         H           -0.448664137630    -1.775241312020    -0.117698082551     1.007825032230

  Basis Set: AUG-CC-PVTZ
    Blend: AUG-CC-PVTZ
  Basis Set: (AUG-CC-PVTZ AUX)
    Blend: AUG-CC-PVTZ-JKFIT
	 Reference Energy          =    -321.9541103733903924 [Eh]
	 Singles Energy            =      -0.0000000000000000 [Eh]
	 Same-Spin Energy          =      -0.3222120898249280 [Eh]
	 Opposite-Spin Energy      =      -1.0069686782276841 [Eh]
	 Correlation Energy        =      -1.3291807680526122 [Eh]
	 Total Energy              =    -323.2832911414429873 [Eh]

	 ================> DF-SCS-MP2 Energies <==================
	-----------------------------------------------------------
	 SCS Same-Spin Scale       =       0.3333333333333333 [-]
	 SCS Opposite-Spin Scale   =       1.2000000000000000 [-]
	 SCS Same-Spin Energy      =      -0.1074040299416427 [Eh]
	 SCS Opposite-Spin Energy  =      -1.2083624138732210 [Eh]
	 SCS Correlation Energy    =      -1.3157664438148635 [Eh]
	 SCS Total Energy          =    -323.2698768172052723 [Eh]
	-----------------------------------------------------------

  Dipole Moment: [D]
     X:    -9.7258      Y:    -2.8920      Z:     0.6977     Total:    10.1706

*** Psi4 exiting successfully. Buy a developer a beer!
