                               Psi4 1.3.2 release

  ==> Input File <==

--------------------------------------------------------------------------
#psi4
#
memory 32 gb

molecule  {
0 1
  O        1.5709562     1.0757813     0.1223925
  O        1.2734824    -1.1744132    -0.2697967
  N       -1.2047650    -1.1860200     0.0435410
  C       -0.5886430     0.1367320     0.4064510
  C       -1.2872470     1.2925570    -0.2818200
  C        0.9223610     0.0094930     0.0395840
  H       -0.6685550     0.2311640     1.4926420
  H       -1.7458480    -1.1434940    -0.8256840
  H       -1.8050530    -1.5837490     0.7705650
  H       -2.3371450     1.3649650     0.0138330
  H       -0.7761520     2.2140110    -0.0029500
  H       -1.2289870     1.1856370    -1.3693840
  H       -0.3506960    -1.7809300    -0.1207870
units angstrom
no_reorient  #important for SAPT in psi4, default
symmetry c1  #important for SAPT in psi4, default
}

set PROPERTIES_ORIGIN ["COM"]
properties('MP2/aug-cc-pvtz', properties = ['dipole'])
--------------------------------------------------------------------------

    Molecular point group: c1
  Charge       = 0
  Multiplicity = 1
  Basis Set: AUG-CC-PVTZ
    Blend: AUG-CC-PVTZ
  Basis Set: (AUG-CC-PVTZ AUX)
    Blend: AUG-CC-PVTZ-JKFIT

    Orbital Energies [Eh]
    ---------------------

    Doubly Occupied:

       1A    -20.491937     2A    -20.475442     3A    -15.707259
       4A    -11.329661     5A    -11.308709     6A    -11.250287
       7A     -1.368414     8A     -1.320095     9A     -1.258923
      10A     -1.058438    11A     -0.908526    12A     -0.804884
      13A     -0.778171    14A     -0.724635    15A     -0.675178
      16A     -0.628618    17A     -0.584168    18A     -0.571926
      19A     -0.560709    20A     -0.552779    21A     -0.513041
      22A     -0.409933    23A     -0.385078    24A     -0.380465

  @DF-RHF Final Energy:  -321.95566752295053

   => Energetics <=

    Nuclear Repulsion Energy =            250.1015823489827596
    One-Electron Energy =                -936.0199408047087672
    Two-Electron Energy =                 363.9626909327754447
    Total Energy =                       -321.9556675229505345
  Basis Set: (AUG-CC-PVTZ AUX)
    Blend: AUG-CC-PVTZ-RI
    Molecular point group: c1

    Geometry (in Angstrom), charge = 0, multiplicity = 1:

       Center              X                  Y                   Z               Mass
    ------------   -----------------  -----------------  -----------------  -----------------
         O            1.478852563648     1.080595924484     0.120365738132    15.994914619570
         O            1.181378763648    -1.169598575516    -0.271823461868    15.994914619570
         N           -1.296868636352    -1.181205375516     0.041514238132    14.003074004430
         C           -0.680746636352     0.141546624484     0.404424238132    12.000000000000
         C           -1.379350636352     1.297371624484    -0.283846761868    12.000000000000
         C            0.830257363648     0.014307624484     0.037557238132    12.000000000000
         H           -0.760658636352     0.235978624484     1.490615238132     1.007825032230
         H           -1.837951636352    -1.138679375516    -0.827710761868     1.007825032230
         H           -1.897156636352    -1.578934375516     0.768538238132     1.007825032230
         H           -2.429248636352     1.369779624484     0.011806238132     1.007825032230
         H           -0.868255636352     2.218825624484    -0.004976761868     1.007825032230
         H           -1.321090636352     1.190451624484    -1.371410761868     1.007825032230
         H           -0.442799636352    -1.776115375516    -0.122813761868     1.007825032230

  Basis Set: AUG-CC-PVTZ
    Blend: AUG-CC-PVTZ
  Basis Set: (AUG-CC-PVTZ AUX)
    Blend: AUG-CC-PVTZ-JKFIT
	 Reference Energy          =    -321.9556675229505345 [Eh]
	 Singles Energy            =      -0.0000000000000000 [Eh]
	 Same-Spin Energy          =      -0.3222280006861321 [Eh]
	 Opposite-Spin Energy      =      -1.0067758934575635 [Eh]
	 Correlation Energy        =      -1.3290038941436957 [Eh]
	 Total Energy              =    -323.2846714170942164 [Eh]

	 ================> DF-SCS-MP2 Energies <==================
	-----------------------------------------------------------
	 SCS Same-Spin Scale       =       0.3333333333333333 [-]
	 SCS Opposite-Spin Scale   =       1.2000000000000000 [-]
	 SCS Same-Spin Energy      =      -0.1074093335620440 [Eh]
	 SCS Opposite-Spin Energy  =      -1.2081310721490761 [Eh]
	 SCS Correlation Energy    =      -1.3155404057111202 [Eh]
	 SCS Total Energy          =    -323.2712079286616813 [Eh]
	-----------------------------------------------------------

  Dipole Moment: [D]
     X:    -9.5534      Y:    -2.8389      Z:     0.6898     Total:     9.9902

*** Psi4 exiting successfully. Buy a developer a beer!
