                               Psi4 1.4a3.dev225

  ==> Input File <==

--------------------------------------------------------------------------
#psi4
#
memory 32 gb

molecule  {
0 1
  O        1.5890300     1.0650170     0.1165590
  O        1.2943400    -1.1672870    -0.2725970
  N       -1.2047650    -1.1860200     0.0435410
  C       -0.5886430     0.1367320     0.4064510
  C       -1.2872470     1.2925570    -0.2818200
  C        0.9165171     0.0279807     0.0444885
  H       -0.6685550     0.2311640     1.4926420
  H       -1.7458480    -1.1434940    -0.8256840
  H       -1.8050530    -1.5837490     0.7705650
  H       -2.3371450     1.3649650     0.0138330
  H       -0.7761520     2.2140110    -0.0029500
  H       -1.2289870     1.1856370    -1.3693840
  H       -0.3506960    -1.7809300    -0.1207870
units angstrom
no_reorient  #important for SAPT in psi4, default
symmetry c1  #important for SAPT in psi4, default
}

set PROPERTIES_ORIGIN ["COM"]
properties('MP2/aug-cc-pvtz', properties = ['dipole'])
--------------------------------------------------------------------------

    Molecular point group: c1
  Charge       = 0
  Multiplicity = 1
  Basis Set: AUG-CC-PVTZ
    Blend: AUG-CC-PVTZ
  Basis Set: (AUG-CC-PVTZ AUX)
    Blend: AUG-CC-PVTZ-JKFIT

    Orbital Energies [Eh]
    ---------------------

    Doubly Occupied:

       1A    -20.485004     2A    -20.477200     3A    -15.709537
       4A    -11.327937     5A    -11.312161     6A    -11.252480
       7A     -1.365297     8A     -1.323170     9A     -1.251345
      10A     -1.061965    11A     -0.911350    12A     -0.806341
      13A     -0.778927    14A     -0.727205    15A     -0.675343
      16A     -0.628835    17A     -0.584839    18A     -0.570785
      19A     -0.561707    20A     -0.553595    21A     -0.510543
      22A     -0.404791    23A     -0.387239    24A     -0.377485

  @DF-RHF Final Energy:  -321.95431465952333

   => Energetics <=

    Nuclear Repulsion Energy =            249.8152864225926635
    One-Electron Energy =                -935.4490437557087716
    Two-Electron Energy =                 363.6794426735928027
    Total Energy =                       -321.9543146595233338
  Basis Set: (AUG-CC-PVTZ AUX)
    Blend: AUG-CC-PVTZ-RI
    Molecular point group: c1

    Geometry (in Angstrom), charge = 0, multiplicity = 1:

       Center              X                  Y                   Z               Mass
    ------------   -----------------  -----------------  -----------------  -----------------
         O            1.490720950677     1.067993718051     0.115422130998    15.994914619570
         O            1.196030950677    -1.164310281949    -0.273733869002    15.994914619570
         N           -1.303074049323    -1.183043281949     0.042404130998    14.003074004430
         C           -0.686952049323     0.139708718051     0.405314130998    12.000000000000
         C           -1.385556049323     1.295533718051    -0.282956869002    12.000000000000
         C            0.818208050677     0.030957418051     0.043351630998    12.000000000000
         H           -0.766864049323     0.234140718051     1.491505130998     1.007825032230
         H           -1.844157049323    -1.140517281949    -0.826820869002     1.007825032230
         H           -1.903362049323    -1.580772281949     0.769428130998     1.007825032230
         H           -2.435454049323     1.367941718051     0.012696130998     1.007825032230
         H           -0.874461049323     2.216987718051    -0.004086869002     1.007825032230
         H           -1.327296049323     1.188613718051    -1.370520869002     1.007825032230
         H           -0.449005049323    -1.777953281949    -0.121923869002     1.007825032230

  Basis Set: AUG-CC-PVTZ
    Blend: AUG-CC-PVTZ
  Basis Set: (AUG-CC-PVTZ AUX)
    Blend: AUG-CC-PVTZ-JKFIT
	 Reference Energy          =    -321.9543146595233338 [Eh]
	 Singles Energy            =      -0.0000000000000000 [Eh]
	 Same-Spin Energy          =      -0.3222249967878035 [Eh]
	 Opposite-Spin Energy      =      -1.0070202691278838 [Eh]
	 Correlation Energy        =      -1.3292452659156873 [Eh]
	 Total Energy              =    -323.2835599254390218 [Eh]

	 ================> DF-SCS-MP2 Energies <==================
	-----------------------------------------------------------
	 SCS Same-Spin Scale       =       0.3333333333333333 [-]
	 SCS Opposite-Spin Scale   =       1.2000000000000000 [-]
	 SCS Same-Spin Energy      =      -0.1074083322626012 [Eh]
	 SCS Opposite-Spin Energy  =      -1.2084243229534606 [Eh]
	 SCS Correlation Energy    =      -1.3158326552160617 [Eh]
	 SCS Total Energy          =    -323.2701473147394040 [Eh]
	-----------------------------------------------------------

  Dipole Moment: [D]
     X:    -9.7234      Y:    -2.6624      Z:     0.7498     Total:    10.1092

*** Psi4 exiting successfully. Buy a developer a beer!
