                               Psi4 1.3.2 release

  ==> Input File <==

--------------------------------------------------------------------------
#psi4
#
memory 32 gb

molecule  {
0 1
  O        1.5890300     1.0650170     0.1165590
  O        1.2943400    -1.1672870    -0.2725970
  N       -1.2047650    -1.1860200     0.0435410
  C       -0.5886430     0.1367320     0.4064510
  C       -1.2411593     1.2163060    -0.2364140
  C        0.9223610     0.0094930     0.0395840
  H       -0.6685550     0.2311640     1.4926420
  H       -1.7458480    -1.1434940    -0.8256840
  H       -1.8050530    -1.5837490     0.7705650
  H       -2.3371450     1.3649650     0.0138330
  H       -0.7761520     2.2140110    -0.0029500
  H       -1.2289870     1.1856370    -1.3693840
  H       -0.3506960    -1.7809300    -0.1207870
units angstrom
no_reorient  #important for SAPT in psi4, default
symmetry c1  #important for SAPT in psi4, default
}

set PROPERTIES_ORIGIN ["COM"]
properties('MP2/aug-cc-pvtz', properties = ['dipole'])
--------------------------------------------------------------------------

    Molecular point group: c1
  Charge       = 0
  Multiplicity = 1
  Basis Set: AUG-CC-PVTZ
    Blend: AUG-CC-PVTZ
  Basis Set: (AUG-CC-PVTZ AUX)
    Blend: AUG-CC-PVTZ-JKFIT

    Orbital Energies [Eh]
    ---------------------

    Doubly Occupied:

       1A    -20.490318     2A    -20.473928     3A    -15.709721
       4A    -11.328851     5A    -11.307768     6A    -11.255165
       7A     -1.369383     8A     -1.323108     9A     -1.255931
      10A     -1.079573    11A     -0.902321    12A     -0.808530
      13A     -0.780126    14A     -0.728456    15A     -0.681155
      16A     -0.633986    17A     -0.599192    18A     -0.572297
      19A     -0.547912    20A     -0.536013    21A     -0.515127
      22A     -0.406739    23A     -0.385299    24A     -0.377898

  @DF-RHF Final Energy:  -321.94334223999431

   => Energetics <=

    Nuclear Repulsion Energy =            251.4465398701555614
    One-Electron Energy =                -938.6421703325116823
    Two-Electron Energy =                 365.2522882223618126
    Total Energy =                       -321.9433422399943083
  Basis Set: (AUG-CC-PVTZ AUX)
    Blend: AUG-CC-PVTZ-RI
    Molecular point group: c1

    Geometry (in Angstrom), charge = 0, multiplicity = 1:

       Center              X                  Y                   Z               Mass
    ------------   -----------------  -----------------  -----------------  -----------------
         O            1.483722686256     1.080760635948     0.109964178490    15.994914619570
         O            1.189032686256    -1.151543364052    -0.279191821510    15.994914619570
         N           -1.310072313744    -1.170276364052     0.036946178490    14.003074004430
         C           -0.693950313744     0.152475635948     0.399856178490    12.000000000000
         C           -1.346466613744     1.232049635948    -0.243008821510    12.000000000000
         C            0.817053686256     0.025236635948     0.032989178490    12.000000000000
         H           -0.773862313744     0.246907635948     1.486047178490     1.007825032230
         H           -1.851155313744    -1.127750364052    -0.832278821510     1.007825032230
         H           -1.910360313744    -1.568005364052     0.763970178490     1.007825032230
         H           -2.442452313744     1.380708635948     0.007238178490     1.007825032230
         H           -0.881459313744     2.229754635948    -0.009544821510     1.007825032230
         H           -1.334294313744     1.201380635948    -1.375978821510     1.007825032230
         H           -0.456003313744    -1.765186364052    -0.127381821510     1.007825032230

  Basis Set: AUG-CC-PVTZ
    Blend: AUG-CC-PVTZ
  Basis Set: (AUG-CC-PVTZ AUX)
    Blend: AUG-CC-PVTZ-JKFIT
	 Reference Energy          =    -321.9433422399943083 [Eh]
	 Singles Energy            =      -0.0000000000000000 [Eh]
	 Same-Spin Energy          =      -0.3233116400477107 [Eh]
	 Opposite-Spin Energy      =      -1.0081258064012957 [Eh]
	 Correlation Energy        =      -1.3314374464490064 [Eh]
	 Total Energy              =    -323.2747796864433099 [Eh]

	 ================> DF-SCS-MP2 Energies <==================
	-----------------------------------------------------------
	 SCS Same-Spin Scale       =       0.3333333333333333 [-]
	 SCS Opposite-Spin Scale   =       1.2000000000000000 [-]
	 SCS Same-Spin Energy      =      -0.1077705466825702 [Eh]
	 SCS Opposite-Spin Energy  =      -1.2097509676815548 [Eh]
	 SCS Correlation Energy    =      -1.3175215143641250 [Eh]
	 SCS Total Energy          =    -323.2608637543584109 [Eh]
	-----------------------------------------------------------

  Dipole Moment: [D]
     X:    -9.6599      Y:    -2.7972      Z:     0.7243     Total:    10.0828

*** Psi4 exiting successfully. Buy a developer a beer!
