                               Psi4 1.3.2 release

  ==> Input File <==

--------------------------------------------------------------------------
#psi4
#
memory 32 gb

molecule  {
0 1
  O        1.5890300     1.0650170     0.1165590
  O        1.2943400    -1.1672870    -0.2725970
  N       -1.2047650    -1.1860200     0.0435410
  C       -0.5679596     0.1143352     0.4491739
  C       -1.2872470     1.2925570    -0.2818200
  C        0.9223610     0.0094930     0.0395840
  H       -0.6685550     0.2311640     1.4926420
  H       -1.7535264    -1.1782201    -0.8218673
  H       -1.8050530    -1.5837490     0.7705650
  H       -2.3371450     1.3649650     0.0138330
  H       -0.7761520     2.2140110    -0.0029500
  H       -1.2289870     1.1856370    -1.3693840
  H       -0.3506960    -1.7809300    -0.1207870
units angstrom
no_reorient  #important for SAPT in psi4, default
symmetry c1  #important for SAPT in psi4, default
}

set PROPERTIES_ORIGIN ["COM"]
properties('MP2/aug-cc-pvtz', properties = ['dipole'])
--------------------------------------------------------------------------

    Molecular point group: c1
  Charge       = 0
  Multiplicity = 1
  Basis Set: AUG-CC-PVTZ
    Blend: AUG-CC-PVTZ
  Basis Set: (AUG-CC-PVTZ AUX)
    Blend: AUG-CC-PVTZ-JKFIT

    Orbital Energies [Eh]
    ---------------------

    Doubly Occupied:

       1A    -20.489035     2A    -20.473193     3A    -15.709732
       4A    -11.327466     5A    -11.310590     6A    -11.253003
       7A     -1.367777     8A     -1.321358     9A     -1.254724
      10A     -1.053162    11A     -0.914056    12A     -0.808206
      13A     -0.775665    14A     -0.726671    15A     -0.682705
      16A     -0.626754    17A     -0.580518    18A     -0.570879
      19A     -0.560233    20A     -0.552419    21A     -0.510497
      22A     -0.407434    23A     -0.385951    24A     -0.377168

  @DF-RHF Final Energy:  -321.95229442453746

   => Energetics <=

    Nuclear Repulsion Energy =            249.5968103560554994
    One-Electron Energy =                -935.0198138106580927
    Two-Electron Energy =                 363.4707090300651657
    Total Energy =                       -321.9522944245374561
  Basis Set: (AUG-CC-PVTZ AUX)
    Blend: AUG-CC-PVTZ-RI
    Molecular point group: c1

    Geometry (in Angstrom), charge = 0, multiplicity = 1:

       Center              X                  Y                   Z               Mass
    ------------   -----------------  -----------------  -----------------  -----------------
         O            1.487233053838     1.073896306887     0.110282554384    15.994914619570
         O            1.192543053838    -1.158407693113    -0.278873445616    15.994914619570
         N           -1.306561946162    -1.177140693113     0.037264554384    14.003074004430
         C           -0.669756546162     0.123214506887     0.442897454384    12.000000000000
         C           -1.389043946162     1.301436306887    -0.288096445616    12.000000000000
         C            0.820564053838     0.018372306887     0.033307554384    12.000000000000
         H           -0.770351946162     0.240043306887     1.486365554384     1.007825032230
         H           -1.855323346162    -1.169340793113    -0.828143745616     1.007825032230
         H           -1.906849946162    -1.574869693113     0.764288554384     1.007825032230
         H           -2.438941946162     1.373844306887     0.007556554384     1.007825032230
         H           -0.877948946162     2.222890306887    -0.009226445616     1.007825032230
         H           -1.330783946162     1.194516306887    -1.375660445616     1.007825032230
         H           -0.452492946162    -1.772050693113    -0.127063445616     1.007825032230

  Basis Set: AUG-CC-PVTZ
    Blend: AUG-CC-PVTZ
  Basis Set: (AUG-CC-PVTZ AUX)
    Blend: AUG-CC-PVTZ-JKFIT
	 Reference Energy          =    -321.9522944245374561 [Eh]
	 Singles Energy            =      -0.0000000000000000 [Eh]
	 Same-Spin Energy          =      -0.3218447962495042 [Eh]
	 Opposite-Spin Energy      =      -1.0065678383637260 [Eh]
	 Correlation Energy        =      -1.3284126346132301 [Eh]
	 Total Energy              =    -323.2807070591506999 [Eh]

	 ================> DF-SCS-MP2 Energies <==================
	-----------------------------------------------------------
	 SCS Same-Spin Scale       =       0.3333333333333333 [-]
	 SCS Opposite-Spin Scale   =       1.2000000000000000 [-]
	 SCS Same-Spin Energy      =      -0.1072815987498347 [Eh]
	 SCS Opposite-Spin Energy  =      -1.2078814060364711 [Eh]
	 SCS Correlation Energy    =      -1.3151630047863059 [Eh]
	 SCS Total Energy          =    -323.2674574293237697 [Eh]
	-----------------------------------------------------------

  Dipole Moment: [D]
     X:    -9.7106      Y:    -2.8985      Z:     0.7637     Total:    10.1627

*** Psi4 exiting successfully. Buy a developer a beer!
