                               Psi4 1.3.2 release

  ==> Input File <==

--------------------------------------------------------------------------
#psi4
#
memory 32 gb

molecule  {
0 1
  O        1.6416942     1.0311171     0.0974417
  O        1.2943400    -1.1672870    -0.2725970
  N       -1.2047650    -1.1860200     0.0435410
  C       -0.5968704     0.0569231     0.3911528
  C       -1.2872470     1.2925570    -0.2818200
  C        0.9223610     0.0094930     0.0395840
  H       -0.6685550     0.2311640     1.4926420
  H       -1.7458480    -1.1434940    -0.8256840
  H       -1.8050530    -1.5837490     0.7705650
  H       -2.3371450     1.3649650     0.0138330
  H       -0.7761520     2.2140110    -0.0029500
  H       -1.2289870     1.1856370    -1.3693840
  H       -0.3506960    -1.7809300    -0.1207870
units angstrom
no_reorient  #important for SAPT in psi4, default
symmetry c1  #important for SAPT in psi4, default
}

set PROPERTIES_ORIGIN ["COM"]
properties('MP2/aug-cc-pvtz', properties = ['dipole'])
--------------------------------------------------------------------------

    Molecular point group: c1
  Charge       = 0
  Multiplicity = 1
  Basis Set: AUG-CC-PVTZ
    Blend: AUG-CC-PVTZ
  Basis Set: (AUG-CC-PVTZ AUX)
    Blend: AUG-CC-PVTZ-JKFIT

    Orbital Energies [Eh]
    ---------------------

    Doubly Occupied:

       1A    -20.484709     2A    -20.471452     3A    -15.718953
       4A    -11.325843     5A    -11.311035     6A    -11.254433
       7A     -1.378419     8A     -1.334253     9A     -1.248874
      10A     -1.050450    11A     -0.916492    12A     -0.819698
      13A     -0.791929    14A     -0.741455    15A     -0.674152
      16A     -0.622327    17A     -0.578303    18A     -0.570656
      19A     -0.556324    20A     -0.552016    21A     -0.502344
      22A     -0.403224    23A     -0.384002    24A     -0.373655

  @DF-RHF Final Energy:  -321.94565368311208

   => Energetics <=

    Nuclear Repulsion Energy =            249.9539425403364987
    One-Electron Energy =                -935.6691982074456746
    Two-Electron Energy =                 363.7696019839971200
    Total Energy =                       -321.9456536831120843
  Basis Set: (AUG-CC-PVTZ AUX)
    Blend: AUG-CC-PVTZ-RI
    Molecular point group: c1

    Geometry (in Angstrom), charge = 0, multiplicity = 1:

       Center              X                  Y                   Z               Mass
    ------------   -----------------  -----------------  -----------------  -----------------
         O            1.534246704886     1.053429360939     0.102461218123    15.994914619570
         O            1.186892504886    -1.144974739061    -0.267577481877    15.994914619570
         N           -1.312212495114    -1.163707739061     0.048560518123    14.003074004430
         C           -0.704317895114     0.079235360939     0.396172318123    12.000000000000
         C           -1.394694495114     1.314869260939    -0.276800481877    12.000000000000
         C            0.814913504886     0.031805260939     0.044603518123    12.000000000000
         H           -0.776002495114     0.253476260939     1.497661518123     1.007825032230
         H           -1.853295495114    -1.121181739061    -0.820664481877     1.007825032230
         H           -1.912500495114    -1.561436739061     0.775584518123     1.007825032230
         H           -2.444592495114     1.387277260939     0.018852518123     1.007825032230
         H           -0.883599495114     2.236323260939     0.002069518123     1.007825032230
         H           -1.336434495114     1.207949260939    -1.364364481877     1.007825032230
         H           -0.458143495114    -1.758617739061    -0.115767481877     1.007825032230

  Basis Set: AUG-CC-PVTZ
    Blend: AUG-CC-PVTZ
  Basis Set: (AUG-CC-PVTZ AUX)
    Blend: AUG-CC-PVTZ-JKFIT
	 Reference Energy          =    -321.9456536831120843 [Eh]
	 Singles Energy            =      -0.0000000000000000 [Eh]
	 Same-Spin Energy          =      -0.3225928971103227 [Eh]
	 Opposite-Spin Energy      =      -1.0070546191619272 [Eh]
	 Correlation Energy        =      -1.3296475162722499 [Eh]
	 Total Energy              =    -323.2753011993843302 [Eh]

	 ================> DF-SCS-MP2 Energies <==================
	-----------------------------------------------------------
	 SCS Same-Spin Scale       =       0.3333333333333333 [-]
	 SCS Opposite-Spin Scale   =       1.2000000000000000 [-]
	 SCS Same-Spin Energy      =      -0.1075309657034409 [Eh]
	 SCS Opposite-Spin Energy  =      -1.2084655429943125 [Eh]
	 SCS Correlation Energy    =      -1.3159965086977534 [Eh]
	 SCS Total Energy          =    -323.2616501918098493 [Eh]
	-----------------------------------------------------------

  Dipole Moment: [D]
     X:    -9.9352      Y:    -2.9290      Z:     0.7412     Total:    10.3844

*** Psi4 exiting successfully. Buy a developer a beer!
