                               Psi4 1.3.2 release

  ==> Input File <==

--------------------------------------------------------------------------
#psi4
#
memory 32 gb

molecule  {
0 1
  O        1.5890300     1.0650170     0.1165590
  O        1.2943400    -1.1672870    -0.2725970
  N       -1.2047650    -1.1860200     0.0435410
  C       -0.5886430     0.1367320     0.4064510
  C       -1.2872470     1.2925570    -0.2818200
  C        0.9223610     0.0094930     0.0395840
  H       -0.6685550     0.2311640     1.4926420
  H       -1.7986490    -1.1393441    -0.9105064
  H       -1.8050530    -1.5837490     0.7705650
  H       -2.3371450     1.3649650     0.0138330
  H       -0.7761520     2.2140110    -0.0029500
  H       -1.2289870     1.1856370    -1.3693840
  H       -0.3506960    -1.7809300    -0.1207870
units angstrom
no_reorient  #important for SAPT in psi4, default
symmetry c1  #important for SAPT in psi4, default
}

set PROPERTIES_ORIGIN ["COM"]
properties('MP2/aug-cc-pvtz', properties = ['dipole'])
--------------------------------------------------------------------------

    Molecular point group: c1
  Charge       = 0
  Multiplicity = 1
  Basis Set: AUG-CC-PVTZ
    Blend: AUG-CC-PVTZ
  Basis Set: (AUG-CC-PVTZ AUX)
    Blend: AUG-CC-PVTZ-JKFIT

    Orbital Energies [Eh]
    ---------------------

    Doubly Occupied:

       1A    -20.489030     2A    -20.472704     3A    -15.716482
       4A    -11.327538     5A    -11.310636     6A    -11.251327
       7A     -1.364276     8A     -1.311420     9A     -1.253869
      10A     -1.057480    11A     -0.905746    12A     -0.801351
      13A     -0.761600    14A     -0.721758    15A     -0.670516
      16A     -0.627845    17A     -0.581719    18A     -0.571294
      19A     -0.560514    20A     -0.553031    21A     -0.511823
      22A     -0.406648    23A     -0.384394    24A     -0.376880

  @DF-RHF Final Energy:  -321.94517228357444

   => Energetics <=

    Nuclear Repulsion Energy =            249.3257403118190894
    One-Electron Energy =                -934.5620633782600635
    Two-Electron Energy =                 363.2911507828665094
    Total Energy =                       -321.9451722835744363
  Basis Set: (AUG-CC-PVTZ AUX)
    Blend: AUG-CC-PVTZ-RI
    Molecular point group: c1

    Geometry (in Angstrom), charge = 0, multiplicity = 1:

       Center              X                  Y                   Z               Mass
    ------------   -----------------  -----------------  -----------------  -----------------
         O            1.490531022868     1.070438139181     0.117043061948    15.994914619570
         O            1.195841022868    -1.161865860819    -0.272112938052    15.994914619570
         N           -1.303263977132    -1.180598860819     0.044025061948    14.003074004430
         C           -0.687141977132     0.142153139181     0.406935061948    12.000000000000
         C           -1.385745977132     1.297978139181    -0.281335938052    12.000000000000
         C            0.823862022868     0.014914139181     0.040068061948    12.000000000000
         H           -0.767053977132     0.236585139181     1.493126061948     1.007825032230
         H           -1.897147977132    -1.133922960819    -0.910022338052     1.007825032230
         H           -1.903551977132    -1.578327860819     0.771049061948     1.007825032230
         H           -2.435643977132     1.370386139181     0.014317061948     1.007825032230
         H           -0.874650977132     2.219432139181    -0.002465938052     1.007825032230
         H           -1.327485977132     1.191058139181    -1.368899938052     1.007825032230
         H           -0.449194977132    -1.775508860819    -0.120302938052     1.007825032230

  Basis Set: AUG-CC-PVTZ
    Blend: AUG-CC-PVTZ
  Basis Set: (AUG-CC-PVTZ AUX)
    Blend: AUG-CC-PVTZ-JKFIT
	 Reference Energy          =    -321.9451722835744363 [Eh]
	 Singles Energy            =      -0.0000000000000000 [Eh]
	 Same-Spin Energy          =      -0.3226968867003199 [Eh]
	 Opposite-Spin Energy      =      -1.0085942243208907 [Eh]
	 Correlation Energy        =      -1.3312911110212107 [Eh]
	 Total Energy              =    -323.2764633945956234 [Eh]

	 ================> DF-SCS-MP2 Energies <==================
	-----------------------------------------------------------
	 SCS Same-Spin Scale       =       0.3333333333333333 [-]
	 SCS Opposite-Spin Scale   =       1.2000000000000000 [-]
	 SCS Same-Spin Energy      =      -0.1075656289001066 [Eh]
	 SCS Opposite-Spin Energy  =      -1.2103130691850688 [Eh]
	 SCS Correlation Energy    =      -1.3178786980851753 [Eh]
	 SCS Total Energy          =    -323.2630509816596032 [Eh]
	-----------------------------------------------------------

  Dipole Moment: [D]
     X:    -9.7595      Y:    -2.8260      Z:     0.6250     Total:    10.1796

*** Psi4 exiting successfully. Buy a developer a beer!
