                               Psi4 1.4a3.dev225

  ==> Input File <==

--------------------------------------------------------------------------
#psi4
#
memory 32 gb

molecule  {
0 1
  O        1.5890300     1.0650170     0.1165590
  O        1.2943400    -1.1672870    -0.2725970
  N       -1.2047650    -1.1860200     0.0435410
  C       -0.5886430     0.1367320     0.4064510
  C       -1.2642032     1.2544315    -0.2591170
  C        0.9223610     0.0094930     0.0395840
  H       -0.6685550     0.2311640     1.4926420
  H       -1.7458480    -1.1434940    -0.8256840
  H       -1.8050530    -1.5837490     0.7705650
  H       -2.3371450     1.3649650     0.0138330
  H       -0.7761520     2.2140110    -0.0029500
  H       -1.2289870     1.1856370    -1.3693840
  H       -0.3506960    -1.7809300    -0.1207870
units angstrom
no_reorient  #important for SAPT in psi4, default
symmetry c1  #important for SAPT in psi4, default
}

set PROPERTIES_ORIGIN ["COM"]
properties('MP2/aug-cc-pvtz', properties = ['dipole'])
--------------------------------------------------------------------------

    Molecular point group: c1
  Charge       = 0
  Multiplicity = 1
  Basis Set: AUG-CC-PVTZ
    Blend: AUG-CC-PVTZ
  Basis Set: (AUG-CC-PVTZ AUX)
    Blend: AUG-CC-PVTZ-JKFIT

    Orbital Energies [Eh]
    ---------------------

    Doubly Occupied:

       1A    -20.489957     2A    -20.473513     3A    -15.709758
       4A    -11.328428     5A    -11.309728     6A    -11.253083
       7A     -1.368412     8A     -1.322315     9A     -1.255373
      10A     -1.069202    11A     -0.906393    12A     -0.807586
      13A     -0.779911    14A     -0.726639    15A     -0.678150
      16A     -0.630410    17A     -0.590697    18A     -0.571114
      19A     -0.556385    20A     -0.545047    21A     -0.514805
      22A     -0.407125    23A     -0.385156    24A     -0.377635

  @DF-RHF Final Energy:  -321.95211846407108

   => Energetics <=

    Nuclear Repulsion Energy =            250.6158862740709594
    One-Electron Energy =                -937.0223616552935937
    Two-Electron Energy =                 364.4543569171515855
    Total Energy =                       -321.9521184640710771
  Basis Set: (AUG-CC-PVTZ AUX)
    Blend: AUG-CC-PVTZ-RI
    Molecular point group: c1

    Geometry (in Angstrom), charge = 0, multiplicity = 1:

       Center              X                  Y                   Z               Mass
    ------------   -----------------  -----------------  -----------------  -----------------
         O            1.486828065360     1.075622871462     0.113023618160    15.994914619570
         O            1.192138065360    -1.156681128538    -0.276132381840    15.994914619570
         N           -1.306966934640    -1.175414128538     0.040005618160    14.003074004430
         C           -0.690844934640     0.147337871462     0.402915618160    12.000000000000
         C           -1.366405134640     1.265037371462    -0.262652381840    12.000000000000
         C            0.820159065360     0.020098871462     0.036048618160    12.000000000000
         H           -0.770756934640     0.241769871462     1.489106618160     1.007825032230
         H           -1.848049934640    -1.132888128538    -0.829219381840     1.007825032230
         H           -1.907254934640    -1.573143128538     0.767029618160     1.007825032230
         H           -2.439346934640     1.375570871462     0.010297618160     1.007825032230
         H           -0.878353934640     2.224616871462    -0.006485381840     1.007825032230
         H           -1.331188934640     1.196242871462    -1.372919381840     1.007825032230
         H           -0.452897934640    -1.770324128538    -0.124322381840     1.007825032230

  Basis Set: AUG-CC-PVTZ
    Blend: AUG-CC-PVTZ
  Basis Set: (AUG-CC-PVTZ AUX)
    Blend: AUG-CC-PVTZ-JKFIT
	 Reference Energy          =    -321.9521184640710771 [Eh]
	 Singles Energy            =      -0.0000000000000000 [Eh]
	 Same-Spin Energy          =      -0.3226138756130944 [Eh]
	 Opposite-Spin Energy      =      -1.0072478728962890 [Eh]
	 Correlation Energy        =      -1.3298617485093835 [Eh]
	 Total Energy              =    -323.2819802125804358 [Eh]

	 ================> DF-SCS-MP2 Energies <==================
	-----------------------------------------------------------
	 SCS Same-Spin Scale       =       0.3333333333333333 [-]
	 SCS Opposite-Spin Scale   =       1.2000000000000000 [-]
	 SCS Same-Spin Energy      =      -0.1075379585376981 [Eh]
	 SCS Opposite-Spin Energy  =      -1.2086974474755467 [Eh]
	 SCS Correlation Energy    =      -1.3162354060132448 [Eh]
	 SCS Total Energy          =    -323.2683538700842973 [Eh]
	-----------------------------------------------------------

  Dipole Moment: [D]
     X:    -9.6872      Y:    -2.8160      Z:     0.7186     Total:    10.1138

*** Psi4 exiting successfully. Buy a developer a beer!
