                               Psi4 1.4a3.dev225

  ==> Input File <==

--------------------------------------------------------------------------
#psi4
#
memory 32 gb

molecule  {
0 1
  O        1.5890300     1.0650170     0.1165590
  O        1.2943400    -1.1672870    -0.2725970
  N       -1.2047650    -1.1860200     0.0435410
  C       -0.5886430     0.1367320     0.4064510
  C       -1.2872470     1.2925570    -0.2818200
  C        0.9077512     0.0557122     0.0518452
  H       -0.6685550     0.2311640     1.4926420
  H       -1.7458480    -1.1434940    -0.8256840
  H       -1.8050530    -1.5837490     0.7705650
  H       -2.3371450     1.3649650     0.0138330
  H       -0.7761520     2.2140110    -0.0029500
  H       -1.2289870     1.1856370    -1.3693840
  H       -0.3506960    -1.7809300    -0.1207870
units angstrom
no_reorient  #important for SAPT in psi4, default
symmetry c1  #important for SAPT in psi4, default
}

set PROPERTIES_ORIGIN ["COM"]
properties('MP2/aug-cc-pvtz', properties = ['dipole'])
--------------------------------------------------------------------------

    Molecular point group: c1
  Charge       = 0
  Multiplicity = 1
  Basis Set: AUG-CC-PVTZ
    Blend: AUG-CC-PVTZ
  Basis Set: (AUG-CC-PVTZ AUX)
    Blend: AUG-CC-PVTZ-JKFIT

    Orbital Energies [Eh]
    ---------------------

    Doubly Occupied:

       1A    -20.483243     2A    -20.478182     3A    -15.709249
       4A    -11.327562     5A    -11.313392     6A    -11.253639
       7A     -1.365766     8A     -1.327348     9A     -1.241450
      10A     -1.064563    11A     -0.913030    12A     -0.805825
      13A     -0.777986    14A     -0.730706    15A     -0.675088
      16A     -0.629634    17A     -0.587595    18A     -0.570068
      19A     -0.562272    20A     -0.553781    21A     -0.509186
      22A     -0.400160    23A     -0.389539    24A     -0.376470

  @DF-RHF Final Energy:  -321.95107526979524

   => Energetics <=

    Nuclear Repulsion Energy =            249.8308793310021372
    One-Electron Energy =                -935.4724430500764356
    Two-Electron Energy =                 363.6904884492790302
    Total Energy =                       -321.9510752697952398
  Basis Set: (AUG-CC-PVTZ AUX)
    Blend: AUG-CC-PVTZ-RI
    Molecular point group: c1

    Geometry (in Angstrom), charge = 0, multiplicity = 1:

       Center              X                  Y                   Z               Mass
    ------------   -----------------  -----------------  -----------------  -----------------
         O            1.491902236947     1.064256641400     0.114430747488    15.994914619570
         O            1.197212236947    -1.168047358600    -0.274725252512    15.994914619570
         N           -1.301892763053    -1.186780358600     0.041412747488    14.003074004430
         C           -0.685770763053     0.135971641400     0.404322747488    12.000000000000
         C           -1.384374763053     1.291796641400    -0.283948252512    12.000000000000
         C            0.810623436947     0.054951841400     0.049716947488    12.000000000000
         H           -0.765682763053     0.230403641400     1.490513747488     1.007825032230
         H           -1.842975763053    -1.144254358600    -0.827812252512     1.007825032230
         H           -1.902180763053    -1.584509358600     0.768436747488     1.007825032230
         H           -2.434272763053     1.364204641400     0.011704747488     1.007825032230
         H           -0.873279763053     2.213250641400    -0.005078252512     1.007825032230
         H           -1.326114763053     1.184876641400    -1.371512252512     1.007825032230
         H           -0.447823763053    -1.781690358600    -0.122915252512     1.007825032230

  Basis Set: AUG-CC-PVTZ
    Blend: AUG-CC-PVTZ
  Basis Set: (AUG-CC-PVTZ AUX)
    Blend: AUG-CC-PVTZ-JKFIT
	 Reference Energy          =    -321.9510752697952398 [Eh]
	 Singles Energy            =      -0.0000000000000000 [Eh]
	 Same-Spin Energy          =      -0.3223729247365676 [Eh]
	 Opposite-Spin Energy      =      -1.0074796058919140 [Eh]
	 Correlation Energy        =      -1.3298525306284816 [Eh]
	 Total Energy              =    -323.2809278004237399 [Eh]

	 ================> DF-SCS-MP2 Energies <==================
	-----------------------------------------------------------
	 SCS Same-Spin Scale       =       0.3333333333333333 [-]
	 SCS Opposite-Spin Scale   =       1.2000000000000000 [-]
	 SCS Same-Spin Energy      =      -0.1074576415788559 [Eh]
	 SCS Opposite-Spin Energy  =      -1.2089755270702967 [Eh]
	 SCS Correlation Energy    =      -1.3164331686491526 [Eh]
	 SCS Total Energy          =    -323.2675084384443949 [Eh]
	-----------------------------------------------------------

  Dipole Moment: [D]
     X:    -9.7436      Y:    -2.4078      Z:     0.8037     Total:    10.0688

*** Psi4 exiting successfully. Buy a developer a beer!
