                               Psi4 1.3.2 release

  ==> Input File <==

--------------------------------------------------------------------------
#psi4
#
memory 32 gb

molecule  {
0 1
  O        1.5890300     1.0650170     0.1165590
  O        1.2943400    -1.1672870    -0.2725970
  N       -1.2073462    -1.1882299     0.0562152
  C       -0.5886430     0.1367320     0.4064510
  C       -1.2872470     1.2925570    -0.2818200
  C        0.9223610     0.0094930     0.0395840
  H       -0.6728391     0.2226486     1.4930252
  H       -1.7458480    -1.1434940    -0.8256840
  H       -1.8050530    -1.5837490     0.7705650
  H       -2.3371450     1.3649650     0.0138330
  H       -0.7761520     2.2140110    -0.0029500
  H       -1.2289870     1.1856370    -1.3693840
  H       -0.3506960    -1.7809300    -0.1207870
units angstrom
no_reorient  #important for SAPT in psi4, default
symmetry c1  #important for SAPT in psi4, default
}

set PROPERTIES_ORIGIN ["COM"]
properties('MP2/aug-cc-pvtz', properties = ['dipole'])
--------------------------------------------------------------------------

    Molecular point group: c1
  Charge       = 0
  Multiplicity = 1
  Basis Set: AUG-CC-PVTZ
    Blend: AUG-CC-PVTZ
  Basis Set: (AUG-CC-PVTZ AUX)
    Blend: AUG-CC-PVTZ-JKFIT

    Orbital Energies [Eh]
    ---------------------

    Doubly Occupied:

       1A    -20.489922     2A    -20.473355     3A    -15.709360
       4A    -11.328360     5A    -11.311371     6A    -11.251873
       7A     -1.367518     8A     -1.321598     9A     -1.255082
      10A     -1.060281    11A     -0.910079    12A     -0.809575
      13A     -0.776276    14A     -0.725999    15A     -0.673958
      16A     -0.629396    17A     -0.583116    18A     -0.571738
      19A     -0.562031    20A     -0.553369    21A     -0.512678
      22A     -0.407507    23A     -0.385215    24A     -0.377573

  @DF-RHF Final Energy:  -321.95490011247472

   => Energetics <=

    Nuclear Repulsion Energy =            249.7604782425806036
    One-Electron Energy =                -935.3362960675889326
    Two-Electron Energy =                 363.6209177125336396
    Total Energy =                       -321.9549001124747178
  Basis Set: (AUG-CC-PVTZ AUX)
    Blend: AUG-CC-PVTZ-RI
    Molecular point group: c1

    Geometry (in Angstrom), charge = 0, multiplicity = 1:

       Center              X                  Y                   Z               Mass
    ------------   -----------------  -----------------  -----------------  -----------------
         O            1.490387820800     1.070928997566     0.114085656413    15.994914619570
         O            1.195697820800    -1.161375002434    -0.275070343587    15.994914619570
         N           -1.305988379200    -1.182317902434     0.053741856413    14.003074004430
         C           -0.687285179200     0.142643997566     0.403977656413    12.000000000000
         C           -1.385889179200     1.298468997566    -0.284293343587    12.000000000000
         C            0.823718820800     0.015404997566     0.037110656413    12.000000000000
         H           -0.771481279200     0.228560597566     1.490551856413     1.007825032230
         H           -1.844490179200    -1.137582002434    -0.828157343587     1.007825032230
         H           -1.903695179200    -1.577837002434     0.768091656413     1.007825032230
         H           -2.435787179200     1.370876997566     0.011359656413     1.007825032230
         H           -0.874794179200     2.219922997566    -0.005423343587     1.007825032230
         H           -1.327629179200     1.191548997566    -1.371857343587     1.007825032230
         H           -0.449338179200    -1.775018002434    -0.123260343587     1.007825032230

  Basis Set: AUG-CC-PVTZ
    Blend: AUG-CC-PVTZ
  Basis Set: (AUG-CC-PVTZ AUX)
    Blend: AUG-CC-PVTZ-JKFIT
	 Reference Energy          =    -321.9549001124747178 [Eh]
	 Singles Energy            =      -0.0000000000000000 [Eh]
	 Same-Spin Energy          =      -0.3221594469125130 [Eh]
	 Opposite-Spin Energy      =      -1.0067817294841905 [Eh]
	 Correlation Energy        =      -1.3289411763967036 [Eh]
	 Total Energy              =    -323.2838412888714288 [Eh]

	 ================> DF-SCS-MP2 Energies <==================
	-----------------------------------------------------------
	 SCS Same-Spin Scale       =       0.3333333333333333 [-]
	 SCS Opposite-Spin Scale   =       1.2000000000000000 [-]
	 SCS Same-Spin Energy      =      -0.1073864823041710 [Eh]
	 SCS Opposite-Spin Energy  =      -1.2081380753810287 [Eh]
	 SCS Correlation Energy    =      -1.3155245576851997 [Eh]
	 SCS Total Energy          =    -323.2704246701599118 [Eh]
	-----------------------------------------------------------

  Dipole Moment: [D]
     X:    -9.6996      Y:    -2.8275      Z:     0.7082     Total:    10.1281

*** Psi4 exiting successfully. Buy a developer a beer!
