                               Psi4 1.3.2 release

  ==> Input File <==

--------------------------------------------------------------------------
#psi4
#
memory 32 gb

molecule  {
0 1
  O        1.5890300     1.0650170     0.1165590
  O        1.2527326    -1.1813761    -0.2659024
  N       -1.2047650    -1.1860200     0.0435410
  C       -0.5943548     0.0833386     0.3974028
  C       -1.2872470     1.2925570    -0.2818200
  C        0.9223610     0.0094930     0.0395840
  H       -0.6685550     0.2311640     1.4926420
  H       -1.7458480    -1.1434940    -0.8256840
  H       -1.8050530    -1.5837490     0.7705650
  H       -2.3371450     1.3649650     0.0138330
  H       -0.7761520     2.2140110    -0.0029500
  H       -1.2289870     1.1856370    -1.3693840
  H       -0.3506960    -1.7809300    -0.1207870
units angstrom
no_reorient  #important for SAPT in psi4, default
symmetry c1  #important for SAPT in psi4, default
}

set PROPERTIES_ORIGIN ["COM"]
properties('MP2/aug-cc-pvtz', properties = ['dipole'])
--------------------------------------------------------------------------

    Molecular point group: c1
  Charge       = 0
  Multiplicity = 1
  Basis Set: AUG-CC-PVTZ
    Blend: AUG-CC-PVTZ
  Basis Set: (AUG-CC-PVTZ AUX)
    Blend: AUG-CC-PVTZ-JKFIT

    Orbital Energies [Eh]
    ---------------------

    Doubly Occupied:

       1A    -20.490990     2A    -20.476612     3A    -15.711309
       4A    -11.329631     5A    -11.305736     6A    -11.250669
       7A     -1.374658     8A     -1.328363     9A     -1.259098
      10A     -1.049942    11A     -0.910862    12A     -0.811741
      13A     -0.784999    14A     -0.733957    15A     -0.675285
      16A     -0.623609    17A     -0.582986    18A     -0.567687
      19A     -0.559649    20A     -0.551486    21A     -0.506528
      22A     -0.409540    23A     -0.385295    24A     -0.381080

  @DF-RHF Final Energy:  -321.95218099487215

   => Energetics <=

    Nuclear Repulsion Energy =            250.4418676276698363
    One-Electron Energy =                -936.6646722688619775
    Two-Electron Energy =                 364.2706236463200185
    Total Energy =                       -321.9521809948721511
  Basis Set: (AUG-CC-PVTZ AUX)
    Blend: AUG-CC-PVTZ-RI
    Molecular point group: c1

    Geometry (in Angstrom), charge = 0, multiplicity = 1:

       Center              X                  Y                   Z               Mass
    ------------   -----------------  -----------------  -----------------  -----------------
         O            1.498176749884     1.080211073632     0.116099889763    15.994914619570
         O            1.161879349884    -1.166182026368    -0.266361510237    15.994914619570
         N           -1.295618250116    -1.170825926368     0.043081889763    14.003074004430
         C           -0.685208050116     0.098532673632     0.396943689763    12.000000000000
         C           -1.378100250116     1.307751073632    -0.282279110237    12.000000000000
         C            0.831507749884     0.024687073632     0.039124889763    12.000000000000
         H           -0.759408250116     0.246358073632     1.492182889763     1.007825032230
         H           -1.836701250116    -1.128299926368    -0.826143110237     1.007825032230
         H           -1.895906250116    -1.568554926368     0.770105889763     1.007825032230
         H           -2.427998250116     1.380159073632     0.013373889763     1.007825032230
         H           -0.867005250116     2.229205073632    -0.003409110237     1.007825032230
         H           -1.319840250116     1.200831073632    -1.369843110237     1.007825032230
         H           -0.441549250116    -1.765735926368    -0.121246110237     1.007825032230

  Basis Set: AUG-CC-PVTZ
    Blend: AUG-CC-PVTZ
  Basis Set: (AUG-CC-PVTZ AUX)
    Blend: AUG-CC-PVTZ-JKFIT
	 Reference Energy          =    -321.9521809948721511 [Eh]
	 Singles Energy            =      -0.0000000000000000 [Eh]
	 Same-Spin Energy          =      -0.3225430453520146 [Eh]
	 Opposite-Spin Energy      =      -1.0068786134289169 [Eh]
	 Correlation Energy        =      -1.3294216587809315 [Eh]
	 Total Energy              =    -323.2816026536530671 [Eh]

	 ================> DF-SCS-MP2 Energies <==================
	-----------------------------------------------------------
	 SCS Same-Spin Scale       =       0.3333333333333333 [-]
	 SCS Opposite-Spin Scale   =       1.2000000000000000 [-]
	 SCS Same-Spin Energy      =      -0.1075143484506715 [Eh]
	 SCS Opposite-Spin Energy  =      -1.2082543361147002 [Eh]
	 SCS Correlation Energy    =      -1.3157686845653718 [Eh]
	 SCS Total Energy          =    -323.2679496794375495 [Eh]
	-----------------------------------------------------------

  Dipole Moment: [D]
     X:    -9.5567      Y:    -2.9211      Z:     0.6808     Total:    10.0164

*** Psi4 exiting successfully. Buy a developer a beer!
