                               Psi4 1.3.2 release

  ==> Input File <==

--------------------------------------------------------------------------
#psi4
#
memory 32 gb

molecule  {
0 1
  O        1.5890300     1.0650170     0.1165590
  O        1.2943400    -1.1672870    -0.2725970
  N       -1.1812823    -1.1944712     0.0354259
  C       -0.5886430     0.1367320     0.4064510
  C       -1.2872470     1.2925570    -0.2818200
  C        0.9178957    -0.0159700     0.0310346
  H       -0.6685550     0.2311640     1.4926420
  H       -1.7458480    -1.1434940    -0.8256840
  H       -1.8050530    -1.5837490     0.7705650
  H       -2.3371450     1.3649650     0.0138330
  H       -0.7761520     2.2140110    -0.0029500
  H       -1.2289870     1.1856370    -1.3693840
  H       -0.3506960    -1.7809300    -0.1207870
units angstrom
no_reorient  #important for SAPT in psi4, default
symmetry c1  #important for SAPT in psi4, default
}

set PROPERTIES_ORIGIN ["COM"]
properties('MP2/aug-cc-pvtz', properties = ['dipole'])
--------------------------------------------------------------------------

    Molecular point group: c1
  Charge       = 0
  Multiplicity = 1
  Basis Set: AUG-CC-PVTZ
    Blend: AUG-CC-PVTZ
  Basis Set: (AUG-CC-PVTZ AUX)
    Blend: AUG-CC-PVTZ-JKFIT

    Orbital Energies [Eh]
    ---------------------

    Doubly Occupied:

       1A    -20.494501     2A    -20.465651     3A    -15.712322
       4A    -11.327110     5A    -11.311667     6A    -11.251971
       7A     -1.373531     8A     -1.321278     9A     -1.249383
      10A     -1.059797    11A     -0.911017    12A     -0.807821
      13A     -0.785307    14A     -0.721254    15A     -0.678021
      16A     -0.629801    17A     -0.581954    18A     -0.572231
      19A     -0.560625    20A     -0.554452    21A     -0.514121
      22A     -0.408645    23A     -0.380170    24A     -0.373297

  @DF-RHF Final Energy:  -321.95200841003992

   => Energetics <=

    Nuclear Repulsion Energy =            250.0328488661403696
    One-Electron Energy =                -935.8778660133311860
    Two-Electron Energy =                 363.8930087371508648
    Total Energy =                       -321.9520084100399231
  Basis Set: (AUG-CC-PVTZ AUX)
    Blend: AUG-CC-PVTZ-RI
    Molecular point group: c1

    Geometry (in Angstrom), charge = 0, multiplicity = 1:

       Center              X                  Y                   Z               Mass
    ------------   -----------------  -----------------  -----------------  -----------------
         O            1.486842430856     1.075245464420     0.118511297954    15.994914619570
         O            1.192152430856    -1.157058535580    -0.270644702046    15.994914619570
         N           -1.283469869144    -1.184242735580     0.037378197954    14.003074004430
         C           -0.690830569144     0.146960464420     0.408403297954    12.000000000000
         C           -1.389434569144     1.302785464420    -0.279867702046    12.000000000000
         C            0.815708130856    -0.005741535580     0.032986897954    12.000000000000
         H           -0.770742569144     0.241392464420     1.494594297954     1.007825032230
         H           -1.848035569144    -1.133265535580    -0.823731702046     1.007825032230
         H           -1.907240569144    -1.573520535580     0.772517297954     1.007825032230
         H           -2.439332569144     1.375193464420     0.015785297954     1.007825032230
         H           -0.878339569144     2.224239464420    -0.000997702046     1.007825032230
         H           -1.331174569144     1.195865464420    -1.367431702046     1.007825032230
         H           -0.452883569144    -1.770701535580    -0.118834702046     1.007825032230

  Basis Set: AUG-CC-PVTZ
    Blend: AUG-CC-PVTZ
  Basis Set: (AUG-CC-PVTZ AUX)
    Blend: AUG-CC-PVTZ-JKFIT
	 Reference Energy          =    -321.9520084100399231 [Eh]
	 Singles Energy            =      -0.0000000000000000 [Eh]
	 Same-Spin Energy          =      -0.3220800471372096 [Eh]
	 Opposite-Spin Energy      =      -1.0067268235162432 [Eh]
	 Correlation Energy        =      -1.3288068706534528 [Eh]
	 Total Energy              =    -323.2808152806933890 [Eh]

	 ================> DF-SCS-MP2 Energies <==================
	-----------------------------------------------------------
	 SCS Same-Spin Scale       =       0.3333333333333333 [-]
	 SCS Opposite-Spin Scale   =       1.2000000000000000 [-]
	 SCS Same-Spin Energy      =      -0.1073600157124032 [Eh]
	 SCS Opposite-Spin Energy  =      -1.2080721882194918 [Eh]
	 SCS Correlation Energy    =      -1.3154322039318951 [Eh]
	 SCS Total Energy          =    -323.2674406139718144 [Eh]
	-----------------------------------------------------------

  Dipole Moment: [D]
     X:    -9.8254      Y:    -3.0774      Z:     0.6750     Total:    10.3182

*** Psi4 exiting successfully. Buy a developer a beer!
