                               Psi4 1.3.2 release

  ==> Input File <==

--------------------------------------------------------------------------
#psi4
#
memory 32 gb

molecule  {
0 1
  O        1.5890300     1.0650170     0.1165590
  O        1.2943400    -1.1672870    -0.2725970
  N       -1.2047650    -1.1860200     0.0435410
  C       -0.5066932     0.3126701     0.4547213
  C       -1.2872470     1.2925570    -0.2818200
  C        0.9223610     0.0094930     0.0395840
  H       -0.6685550     0.2311640     1.4926420
  H       -1.7458480    -1.1434940    -0.8256840
  H       -1.8050530    -1.5837490     0.7705650
  H       -2.3371450     1.3649650     0.0138330
  H       -0.7761520     2.2140110    -0.0029500
  H       -1.2289870     1.1856370    -1.3693840
  H       -0.3506960    -1.7809300    -0.1207870
units angstrom
no_reorient  #important for SAPT in psi4, default
symmetry c1  #important for SAPT in psi4, default
}

set PROPERTIES_ORIGIN ["COM"]
properties('MP2/aug-cc-pvtz', properties = ['dipole'])
--------------------------------------------------------------------------

    Molecular point group: c1
  Charge       = 0
  Multiplicity = 1
  Basis Set: AUG-CC-PVTZ
    Blend: AUG-CC-PVTZ
  Basis Set: (AUG-CC-PVTZ AUX)
    Blend: AUG-CC-PVTZ-JKFIT

    Orbital Energies [Eh]
    ---------------------

    Doubly Occupied:

       1A    -20.493010     2A    -20.476981     3A    -15.676025
       4A    -11.332009     5A    -11.330408     6A    -11.257109
       7A     -1.364825     8A     -1.282062     9A     -1.257165
      10A     -1.085132    11A     -0.913665    12A     -0.780956
      13A     -0.748018    14A     -0.720153    15A     -0.658828
      16A     -0.647872    17A     -0.608753    18A     -0.581348
      19A     -0.568083    20A     -0.533568    21A     -0.523695
      22A     -0.412537    23A     -0.389387    24A     -0.380668

  @DF-RHF Final Energy:  -321.93172028254378

   => Energetics <=

    Nuclear Repulsion Energy =            249.2341616255987162
    One-Electron Energy =                -934.2872503125618096
    Two-Electron Energy =                 363.1213684044192860
    Total Energy =                       -321.9317202825437789
  Basis Set: (AUG-CC-PVTZ AUX)
    Blend: AUG-CC-PVTZ-RI
    Molecular point group: c1

    Geometry (in Angstrom), charge = 0, multiplicity = 1:

       Center              X                  Y                   Z               Mass
    ------------   -----------------  -----------------  -----------------  -----------------
         O            1.478889935898     1.046775817343     0.109578187518    15.994914619570
         O            1.184199935898    -1.185528182657    -0.279577812482    15.994914619570
         N           -1.314905064102    -1.204261182657     0.036560187518    14.003074004430
         C           -0.616833264102     0.294428917343     0.447740487518    12.000000000000
         C           -1.397387064102     1.274315817343    -0.288800812482    12.000000000000
         C            0.812220935898    -0.008748182657     0.032603187518    12.000000000000
         H           -0.778695064102     0.212922817343     1.485661187518     1.007825032230
         H           -1.855988064102    -1.161735182657    -0.832664812482     1.007825032230
         H           -1.915193064102    -1.601990182657     0.763584187518     1.007825032230
         H           -2.447285064102     1.346723817343     0.006852187518     1.007825032230
         H           -0.886292064102     2.195769817343    -0.009930812482     1.007825032230
         H           -1.339127064102     1.167395817343    -1.376364812482     1.007825032230
         H           -0.460836064102    -1.799171182657    -0.127767812482     1.007825032230

  Basis Set: AUG-CC-PVTZ
    Blend: AUG-CC-PVTZ
  Basis Set: (AUG-CC-PVTZ AUX)
    Blend: AUG-CC-PVTZ-JKFIT
	 Reference Energy          =    -321.9317202825437789 [Eh]
	 Singles Energy            =      -0.0000000000000000 [Eh]
	 Same-Spin Energy          =      -0.3223220375232674 [Eh]
	 Opposite-Spin Energy      =      -1.0083161351423651 [Eh]
	 Correlation Energy        =      -1.3306381726656324 [Eh]
	 Total Energy              =    -323.2623584552094371 [Eh]

	 ================> DF-SCS-MP2 Energies <==================
	-----------------------------------------------------------
	 SCS Same-Spin Scale       =       0.3333333333333333 [-]
	 SCS Opposite-Spin Scale   =       1.2000000000000000 [-]
	 SCS Same-Spin Energy      =      -0.1074406791744225 [Eh]
	 SCS Opposite-Spin Energy  =      -1.2099793621708381 [Eh]
	 SCS Correlation Energy    =      -1.3174200413452606 [Eh]
	 SCS Total Energy          =    -323.2491403238890371 [Eh]
	-----------------------------------------------------------

  Dipole Moment: [D]
     X:    -9.4065      Y:    -2.1191      Z:     0.8062     Total:     9.6759

*** Psi4 exiting successfully. Buy a developer a beer!
