                               Psi4 1.3.2 release

  ==> Input File <==

--------------------------------------------------------------------------
#psi4
#
memory 32 gb

molecule  {
0 1
  O        1.5890300     1.0650170     0.1165590
  O        1.2943400    -1.1672870    -0.2725970
  N       -1.2047650    -1.1860200     0.0435410
  C       -0.5886430     0.1367320     0.4064510
  C       -1.2872470     1.2925570    -0.2818200
  C        0.9083431     0.0060768    -0.0129248
  H       -0.7064786     0.2333007     1.4889959
  H       -1.7458480    -1.1434940    -0.8256840
  H       -1.8050530    -1.5837490     0.7705650
  H       -2.3371450     1.3649650     0.0138330
  H       -0.7761520     2.2140110    -0.0029500
  H       -1.2289870     1.1856370    -1.3693840
  H       -0.3506960    -1.7809300    -0.1207870
units angstrom
no_reorient  #important for SAPT in psi4, default
symmetry c1  #important for SAPT in psi4, default
}

set PROPERTIES_ORIGIN ["COM"]
properties('MP2/aug-cc-pvtz', properties = ['dipole'])
--------------------------------------------------------------------------

    Molecular point group: c1
  Charge       = 0
  Multiplicity = 1
  Basis Set: AUG-CC-PVTZ
    Blend: AUG-CC-PVTZ
  Basis Set: (AUG-CC-PVTZ AUX)
    Blend: AUG-CC-PVTZ-JKFIT

    Orbital Energies [Eh]
    ---------------------

    Doubly Occupied:

       1A    -20.493449     2A    -20.470381     3A    -15.709884
       4A    -11.329006     5A    -11.312303     6A    -11.251114
       7A     -1.369650     8A     -1.320933     9A     -1.252417
      10A     -1.060737    11A     -0.908997    12A     -0.809153
      13A     -0.780323    14A     -0.725159    15A     -0.676473
      16A     -0.630346    17A     -0.580634    18A     -0.570987
      19A     -0.561364    20A     -0.553721    21A     -0.513131
      22A     -0.409005    23A     -0.383668    24A     -0.375406

  @DF-RHF Final Energy:  -321.95185353681347

   => Energetics <=

    Nuclear Repulsion Energy =            249.8518031748736234
    One-Electron Energy =                -935.5108296225722597
    Two-Electron Energy =                 363.7071729108851059
    Total Energy =                       -321.9518535368134735
  Basis Set: (AUG-CC-PVTZ AUX)
    Blend: AUG-CC-PVTZ-RI
    Molecular point group: c1

    Geometry (in Angstrom), charge = 0, multiplicity = 1:

       Center              X                  Y                   Z               Mass
    ------------   -----------------  -----------------  -----------------  -----------------
         O            1.492251685175     1.070921288816     0.123200371181    15.994914619570
         O            1.197561685175    -1.161382711184    -0.265955628819    15.994914619570
         N           -1.301543314825    -1.180115711184     0.050182371181    14.003074004430
         C           -0.685421314825     0.142636288816     0.413092371181    12.000000000000
         C           -1.384025314825     1.298461288816    -0.275178628819    12.000000000000
         C            0.811564785175     0.011981088816    -0.006283428819    12.000000000000
         H           -0.803256914825     0.239204988816     1.495637271181     1.007825032230
         H           -1.842626314825    -1.137589711184    -0.819042628819     1.007825032230
         H           -1.901831314825    -1.577844711184     0.777206371181     1.007825032230
         H           -2.433923314825     1.370869288816     0.020474371181     1.007825032230
         H           -0.872930314825     2.219915288816     0.003691371181     1.007825032230
         H           -1.325765314825     1.191541288816    -1.362742628819     1.007825032230
         H           -0.447474314825    -1.775025711184    -0.114145628819     1.007825032230

  Basis Set: AUG-CC-PVTZ
    Blend: AUG-CC-PVTZ
  Basis Set: (AUG-CC-PVTZ AUX)
    Blend: AUG-CC-PVTZ-JKFIT
	 Reference Energy          =    -321.9518535368134735 [Eh]
	 Singles Energy            =      -0.0000000000000000 [Eh]
	 Same-Spin Energy          =      -0.3223740577332318 [Eh]
	 Opposite-Spin Energy      =      -1.0073910102937411 [Eh]
	 Correlation Energy        =      -1.3297650680269730 [Eh]
	 Total Energy              =    -323.2816186048404461 [Eh]

	 ================> DF-SCS-MP2 Energies <==================
	-----------------------------------------------------------
	 SCS Same-Spin Scale       =       0.3333333333333333 [-]
	 SCS Opposite-Spin Scale   =       1.2000000000000000 [-]
	 SCS Same-Spin Energy      =      -0.1074580192444106 [Eh]
	 SCS Opposite-Spin Energy  =      -1.2088692123524893 [Eh]
	 SCS Correlation Energy    =      -1.3163272315968999 [Eh]
	 SCS Total Energy          =    -323.2681807684103887 [Eh]
	-----------------------------------------------------------

  Dipole Moment: [D]
     X:    -9.7423      Y:    -2.9487      Z:     0.6825     Total:    10.2016

*** Psi4 exiting successfully. Buy a developer a beer!
