                               Psi4 1.3.2 release

  ==> Input File <==

--------------------------------------------------------------------------
#psi4
#
memory 32 gb

molecule  {
0 1
  O        1.5890300     1.0650170     0.1165590
  O        1.2943400    -1.1672870    -0.2725970
  N       -1.2047650    -1.1860200     0.0435410
  C       -0.6100770     0.1575172     0.3632860
  C       -1.2872470     1.2925570    -0.2818200
  C        0.9223610     0.0094930     0.0395840
  H       -0.6685550     0.2311640     1.4926420
  H       -1.7375104    -1.1088198    -0.8284417
  H       -1.8050530    -1.5837490     0.7705650
  H       -2.3371450     1.3649650     0.0138330
  H       -0.7761520     2.2140110    -0.0029500
  H       -1.2289870     1.1856370    -1.3693840
  H       -0.3506960    -1.7809300    -0.1207870
units angstrom
no_reorient  #important for SAPT in psi4, default
symmetry c1  #important for SAPT in psi4, default
}

set PROPERTIES_ORIGIN ["COM"]
properties('MP2/aug-cc-pvtz', properties = ['dipole'])
--------------------------------------------------------------------------

    Molecular point group: c1
  Charge       = 0
  Multiplicity = 1
  Basis Set: AUG-CC-PVTZ
    Blend: AUG-CC-PVTZ
  Basis Set: (AUG-CC-PVTZ AUX)
    Blend: AUG-CC-PVTZ-JKFIT

    Orbital Energies [Eh]
    ---------------------

    Doubly Occupied:

       1A    -20.490331     2A    -20.473203     3A    -15.709855
       4A    -11.329125     5A    -11.312414     6A    -11.250386
       7A     -1.367446     8A     -1.322012     9A     -1.255128
      10A     -1.068824    11A     -0.905733    12A     -0.805981
      13A     -0.783690    14A     -0.722770    15A     -0.670581
      16A     -0.631705    17A     -0.589078    18A     -0.572653
      19A     -0.564999    20A     -0.549583    21A     -0.510574
      22A     -0.407062    23A     -0.383740    24A     -0.377700

  @DF-RHF Final Energy:  -321.95126526697709

   => Energetics <=

    Nuclear Repulsion Energy =            250.0303107013306203
    One-Electron Energy =                -935.8540055988918311
    Two-Electron Energy =                 363.8724296305840653
    Total Energy =                       -321.9512652669770887
  Basis Set: (AUG-CC-PVTZ AUX)
    Blend: AUG-CC-PVTZ-RI
    Molecular point group: c1

    Geometry (in Angstrom), charge = 0, multiplicity = 1:

       Center              X                  Y                   Z               Mass
    ------------   -----------------  -----------------  -----------------  -----------------
         O            1.492727497743     1.067291672497     0.121931152783    15.994914619570
         O            1.198037497743    -1.165012327503    -0.267224847217    15.994914619570
         N           -1.301067502257    -1.183745327503     0.048913152783    14.003074004430
         C           -0.706379502257     0.159791872497     0.368658152783    12.000000000000
         C           -1.383549502257     1.294831672497    -0.276447847217    12.000000000000
         C            0.826058497743     0.011767672497     0.044956152783    12.000000000000
         H           -0.764857502257     0.233438672497     1.498014152783     1.007825032230
         H           -1.833812902257    -1.106545127503    -0.823069547217     1.007825032230
         H           -1.901355502257    -1.581474327503     0.775937152783     1.007825032230
         H           -2.433447502257     1.367239672497     0.019205152783     1.007825032230
         H           -0.872454502257     2.216285672497     0.002422152783     1.007825032230
         H           -1.325289502257     1.187911672497    -1.364011847217     1.007825032230
         H           -0.446998502257    -1.778655327503    -0.115414847217     1.007825032230

  Basis Set: AUG-CC-PVTZ
    Blend: AUG-CC-PVTZ
  Basis Set: (AUG-CC-PVTZ AUX)
    Blend: AUG-CC-PVTZ-JKFIT
	 Reference Energy          =    -321.9512652669770887 [Eh]
	 Singles Energy            =      -0.0000000000000000 [Eh]
	 Same-Spin Energy          =      -0.3226323016777852 [Eh]
	 Opposite-Spin Energy      =      -1.0073092206046235 [Eh]
	 Correlation Energy        =      -1.3299415222824087 [Eh]
	 Total Energy              =    -323.2812067892594996 [Eh]

	 ================> DF-SCS-MP2 Energies <==================
	-----------------------------------------------------------
	 SCS Same-Spin Scale       =       0.3333333333333333 [-]
	 SCS Opposite-Spin Scale   =       1.2000000000000000 [-]
	 SCS Same-Spin Energy      =      -0.1075441005592617 [Eh]
	 SCS Opposite-Spin Energy  =      -1.2087710647255481 [Eh]
	 SCS Correlation Energy    =      -1.3163151652848097 [Eh]
	 SCS Total Energy          =    -323.2675804322619229 [Eh]
	-----------------------------------------------------------

  Dipole Moment: [D]
     X:    -9.7007      Y:    -2.7661      Z:     0.6576     Total:    10.1088

*** Psi4 exiting successfully. Buy a developer a beer!
