                               Psi4 1.3.2 release

  ==> Input File <==

--------------------------------------------------------------------------
#psi4
#
memory 32 gb

molecule  {
0 1
  O        1.5890300     1.0650170     0.1165590
  O        1.2943400    -1.1672870    -0.2725970
  N       -1.2047650    -1.1860200     0.0435410
  C       -0.5886430     0.1367320     0.4064510
  C       -1.2872470     1.2925570    -0.2818200
  C        0.9223610     0.0094930     0.0395840
  H       -0.6758648     0.2398020     1.5919997
  H       -1.7458480    -1.1434940    -0.8256840
  H       -1.8050530    -1.5837490     0.7705650
  H       -2.3371450     1.3649650     0.0138330
  H       -0.7761520     2.2140110    -0.0029500
  H       -1.2289870     1.1856370    -1.3693840
  H       -0.3506960    -1.7809300    -0.1207870
units angstrom
no_reorient  #important for SAPT in psi4, default
symmetry c1  #important for SAPT in psi4, default
}

set PROPERTIES_ORIGIN ["COM"]
properties('MP2/aug-cc-pvtz', properties = ['dipole'])
--------------------------------------------------------------------------

    Molecular point group: c1
  Charge       = 0
  Multiplicity = 1
  Basis Set: AUG-CC-PVTZ
    Blend: AUG-CC-PVTZ
  Basis Set: (AUG-CC-PVTZ AUX)
    Blend: AUG-CC-PVTZ-JKFIT

    Orbital Energies [Eh]
    ---------------------

    Doubly Occupied:

       1A    -20.490009     2A    -20.473237     3A    -15.710496
       4A    -11.328740     5A    -11.322304     6A    -11.252524
       7A     -1.367636     8A     -1.321796     9A     -1.255054
      10A     -1.057096    11A     -0.905776    12A     -0.803518
      13A     -0.779936    14A     -0.725508    15A     -0.666927
      16A     -0.626269    17A     -0.583490    18A     -0.571736
      19A     -0.561575    20A     -0.549271    21A     -0.507586
      22A     -0.407590    23A     -0.385275    24A     -0.377504

  @DF-RHF Final Energy:  -321.94832608060636

   => Energetics <=

    Nuclear Repulsion Energy =            249.3252960241536869
    One-Electron Energy =                -934.4855380897411123
    Two-Electron Energy =                 363.2119159849810899
    Total Energy =                       -321.9483260806063640
  Basis Set: (AUG-CC-PVTZ AUX)
    Blend: AUG-CC-PVTZ-RI
    Molecular point group: c1

    Geometry (in Angstrom), charge = 0, multiplicity = 1:

       Center              X                  Y                   Z               Mass
    ------------   -----------------  -----------------  -----------------  -----------------
         O            1.490016161943     1.070387343702     0.114958545895    15.994914619570
         O            1.195326161943    -1.161916656298    -0.274197454105    15.994914619570
         N           -1.303778838057    -1.180649656298     0.041940545895    14.003074004430
         C           -0.687656838057     0.142102343702     0.404850545895    12.000000000000
         C           -1.386260838057     1.297927343702    -0.283420454105    12.000000000000
         C            0.823347161943     0.014863343702     0.037983545895    12.000000000000
         H           -0.774878638057     0.245172343702     1.590399245895     1.007825032230
         H           -1.844861838057    -1.138123656298    -0.827284454105     1.007825032230
         H           -1.904066838057    -1.578378656298     0.768964545895     1.007825032230
         H           -2.436158838057     1.370335343702     0.012232545895     1.007825032230
         H           -0.875165838057     2.219381343702    -0.004550454105     1.007825032230
         H           -1.328000838057     1.191007343702    -1.370984454105     1.007825032230
         H           -0.449709838057    -1.775559656298    -0.122387454105     1.007825032230

  Basis Set: AUG-CC-PVTZ
    Blend: AUG-CC-PVTZ
  Basis Set: (AUG-CC-PVTZ AUX)
    Blend: AUG-CC-PVTZ-JKFIT
	 Reference Energy          =    -321.9483260806063640 [Eh]
	 Singles Energy            =      -0.0000000000000000 [Eh]
	 Same-Spin Energy          =      -0.3222770560043483 [Eh]
	 Opposite-Spin Energy      =      -1.0075742971290222 [Eh]
	 Correlation Energy        =      -1.3298513531333704 [Eh]
	 Total Energy              =    -323.2781774337397565 [Eh]

	 ================> DF-SCS-MP2 Energies <==================
	-----------------------------------------------------------
	 SCS Same-Spin Scale       =       0.3333333333333333 [-]
	 SCS Opposite-Spin Scale   =       1.2000000000000000 [-]
	 SCS Same-Spin Energy      =      -0.1074256853347828 [Eh]
	 SCS Opposite-Spin Energy  =      -1.2090891565548267 [Eh]
	 SCS Correlation Energy    =      -1.3165148418896095 [Eh]
	 SCS Total Energy          =    -323.2648409224959778 [Eh]
	-----------------------------------------------------------

  Dipole Moment: [D]
     X:    -9.7005      Y:    -2.8256      Z:     0.6816     Total:    10.1266

*** Psi4 exiting successfully. Buy a developer a beer!
