                               Psi4 1.3.2 release

  ==> Input File <==

--------------------------------------------------------------------------
#psi4
#
memory 32 gb

molecule  {
0 1
  O        1.5890300     1.0650170     0.1165590
  O        1.2943400    -1.1672870    -0.2725970
  N       -1.2047650    -1.1860200     0.0435410
  C       -0.5801360     0.1452312     0.4119621
  C       -1.2872470     1.2925570    -0.2818200
  C        0.9223610     0.0094930     0.0395840
  H       -0.6685550     0.2311640     1.4926420
  H       -1.7458480    -1.1434940    -0.8256840
  H       -1.8050530    -1.5837490     0.7705650
  H       -2.3371450     1.3649650     0.0138330
  H       -0.7700904     2.2089849     0.0023859
  H       -1.2289870     1.1856370    -1.3693840
  H       -0.3506960    -1.7809300    -0.1207870
units angstrom
no_reorient  #important for SAPT in psi4, default
symmetry c1  #important for SAPT in psi4, default
}

set PROPERTIES_ORIGIN ["COM"]
properties('MP2/aug-cc-pvtz', properties = ['dipole'])
--------------------------------------------------------------------------

    Molecular point group: c1
  Charge       = 0
  Multiplicity = 1
  Basis Set: AUG-CC-PVTZ
    Blend: AUG-CC-PVTZ
  Basis Set: (AUG-CC-PVTZ AUX)
    Blend: AUG-CC-PVTZ-JKFIT

    Orbital Energies [Eh]
    ---------------------

    Doubly Occupied:

       1A    -20.489686     2A    -20.473177     3A    -15.708119
       4A    -11.327967     5A    -11.312156     6A    -11.252022
       7A     -1.366810     8A     -1.319247     9A     -1.255038
      10A     -1.061132    11A     -0.910468    12A     -0.805095
      13A     -0.777441    14A     -0.724231    15A     -0.675726
      16A     -0.629865    17A     -0.583664    18A     -0.573300
      19A     -0.560313    20A     -0.553903    21A     -0.513203
      22A     -0.407729    23A     -0.385497    24A     -0.377452

  @DF-RHF Final Energy:  -321.95520563342399

   => Energetics <=

    Nuclear Repulsion Energy =            249.8013601316171162
    One-Electron Energy =                -935.4266464850486500
    Two-Electron Energy =                 363.6700807200075474
    Total Energy =                       -321.9552056334239865
  Basis Set: (AUG-CC-PVTZ AUX)
    Blend: AUG-CC-PVTZ-RI
    Molecular point group: c1

    Geometry (in Angstrom), charge = 0, multiplicity = 1:

       Center              X                  Y                   Z               Mass
    ------------   -----------------  -----------------  -----------------  -----------------
         O            1.488718429833     1.069396645466     0.115279995304    15.994914619570
         O            1.194028429833    -1.162907354534    -0.273876004696    15.994914619570
         N           -1.305076570167    -1.181640354534     0.042261995304    14.003074004430
         C           -0.680447570167     0.149610845466     0.410683095304    12.000000000000
         C           -1.387558570167     1.296936645466    -0.283099004696    12.000000000000
         C            0.822049429833     0.013872645466     0.038304995304    12.000000000000
         H           -0.768866570167     0.235543645466     1.491362995304     1.007825032230
         H           -1.846159570167    -1.139114354534    -0.826963004696     1.007825032230
         H           -1.905364570167    -1.579369354534     0.769285995304     1.007825032230
         H           -2.437456570167     1.369344645466     0.012553995304     1.007825032230
         H           -0.870401970167     2.213364545466     0.001106895304     1.007825032230
         H           -1.329298570167     1.190016645466    -1.370663004696     1.007825032230
         H           -0.451007570167    -1.776550354534    -0.122066004696     1.007825032230

  Basis Set: AUG-CC-PVTZ
    Blend: AUG-CC-PVTZ
  Basis Set: (AUG-CC-PVTZ AUX)
    Blend: AUG-CC-PVTZ-JKFIT
	 Reference Energy          =    -321.9552056334239865 [Eh]
	 Singles Energy            =      -0.0000000000000000 [Eh]
	 Same-Spin Energy          =      -0.3220504387401090 [Eh]
	 Opposite-Spin Energy      =      -1.0067263377752518 [Eh]
	 Correlation Energy        =      -1.3287767765153609 [Eh]
	 Total Energy              =    -323.2839824099393695 [Eh]

	 ================> DF-SCS-MP2 Energies <==================
	-----------------------------------------------------------
	 SCS Same-Spin Scale       =       0.3333333333333333 [-]
	 SCS Opposite-Spin Scale   =       1.2000000000000000 [-]
	 SCS Same-Spin Energy      =      -0.1073501462467030 [Eh]
	 SCS Opposite-Spin Energy  =      -1.2080716053303020 [Eh]
	 SCS Correlation Energy    =      -1.3154217515770050 [Eh]
	 SCS Total Energy          =    -323.2706273850009779 [Eh]
	-----------------------------------------------------------

  Dipole Moment: [D]
     X:    -9.7007      Y:    -2.8048      Z:     0.7254     Total:    10.1240

*** Psi4 exiting successfully. Buy a developer a beer!
