                               Psi4 1.3.2 release

  ==> Input File <==

--------------------------------------------------------------------------
#psi4
#
memory 32 gb

molecule  {
0 1
  O        1.5890300     1.0650170     0.1165590
  O        1.2943400    -1.1672870    -0.2725970
  N       -1.2047650    -1.1860200     0.0435410
  C       -0.5886430     0.1367320     0.4064510
  C       -1.1950717     1.1400549    -0.1910080
  C        0.9223610     0.0094930     0.0395840
  H       -0.6685550     0.2311640     1.4926420
  H       -1.7458480    -1.1434940    -0.8256840
  H       -1.8050530    -1.5837490     0.7705650
  H       -2.3371450     1.3649650     0.0138330
  H       -0.7761520     2.2140110    -0.0029500
  H       -1.2289870     1.1856370    -1.3693840
  H       -0.3506960    -1.7809300    -0.1207870
units angstrom
no_reorient  #important for SAPT in psi4, default
symmetry c1  #important for SAPT in psi4, default
}

set PROPERTIES_ORIGIN ["COM"]
properties('MP2/aug-cc-pvtz', properties = ['dipole'])
--------------------------------------------------------------------------

    Molecular point group: c1
  Charge       = 0
  Multiplicity = 1
  Basis Set: AUG-CC-PVTZ
    Blend: AUG-CC-PVTZ
  Basis Set: (AUG-CC-PVTZ AUX)
    Blend: AUG-CC-PVTZ-JKFIT

    Orbital Energies [Eh]
    ---------------------

    Doubly Occupied:

       1A    -20.491263     2A    -20.474953     3A    -15.709505
       4A    -11.330062     5A    -11.302768     6A    -11.260917
       7A     -1.371893     8A     -1.325009     9A     -1.257354
      10A     -1.104716    11A     -0.893671    12A     -0.810814
      13A     -0.779973    14A     -0.732859    15A     -0.689021
      16A     -0.647923    17A     -0.611429    18A     -0.574111
      19A     -0.533674    20A     -0.521162    21A     -0.505095
      22A     -0.405271    23A     -0.385126    24A     -0.378524

  @DF-RHF Final Energy:  -321.90415018399796

   => Energetics <=

    Nuclear Repulsion Energy =            253.2220202212463107
    One-Electron Energy =                -942.0581560278534425
    Two-Electron Energy =                 366.9319856226091474
    Total Energy =                       -321.9041501839979560
  Basis Set: (AUG-CC-PVTZ AUX)
    Blend: AUG-CC-PVTZ-RI
    Molecular point group: c1

    Geometry (in Angstrom), charge = 0, multiplicity = 1:

       Center              X                  Y                   Z               Mass
    ------------   -----------------  -----------------  -----------------  -----------------
         O            1.477511954999     1.091036178396     0.103845299151    15.994914619570
         O            1.182821954999    -1.141267821604    -0.285310700849    15.994914619570
         N           -1.316283045001    -1.160000821604     0.030827299151    14.003074004430
         C           -0.700161045001     0.162751178396     0.393737299151    12.000000000000
         C           -1.306589745001     1.166074078396    -0.203721700849    12.000000000000
         C            0.810842954999     0.035512178396     0.026870299151    12.000000000000
         H           -0.780073045001     0.257183178396     1.479928299151     1.007825032230
         H           -1.857366045001    -1.117474821604    -0.838397700849     1.007825032230
         H           -1.916571045001    -1.557729821604     0.757851299151     1.007825032230
         H           -2.448663045001     1.390984178396     0.001119299151     1.007825032230
         H           -0.887670045001     2.240030178396    -0.015663700849     1.007825032230
         H           -1.340505045001     1.211656178396    -1.382097700849     1.007825032230
         H           -0.462214045001    -1.754910821604    -0.133500700849     1.007825032230

  Basis Set: AUG-CC-PVTZ
    Blend: AUG-CC-PVTZ
  Basis Set: (AUG-CC-PVTZ AUX)
    Blend: AUG-CC-PVTZ-JKFIT
	 Reference Energy          =    -321.9041501839979560 [Eh]
	 Singles Energy            =      -0.0000000000000000 [Eh]
	 Same-Spin Energy          =      -0.3254352033384098 [Eh]
	 Opposite-Spin Energy      =      -1.0110906896717593 [Eh]
	 Correlation Energy        =      -1.3365258930101691 [Eh]
	 Total Energy              =    -323.2406760770081178 [Eh]

	 ================> DF-SCS-MP2 Energies <==================
	-----------------------------------------------------------
	 SCS Same-Spin Scale       =       0.3333333333333333 [-]
	 SCS Opposite-Spin Scale   =       1.2000000000000000 [-]
	 SCS Same-Spin Energy      =      -0.1084784011128032 [Eh]
	 SCS Opposite-Spin Energy  =      -1.2133088276061110 [Eh]
	 SCS Correlation Energy    =      -1.3217872287189143 [Eh]
	 SCS Total Energy          =    -323.2259374127168599 [Eh]
	-----------------------------------------------------------

  Dipole Moment: [D]
     X:    -9.5811      Y:    -2.7577      Z:     0.7405     Total:     9.9975

*** Psi4 exiting successfully. Buy a developer a beer!
