                               Psi4 1.3.2 release

  ==> Input File <==

--------------------------------------------------------------------------
#psi4
#
memory 32 gb

molecule  {
0 1
  O        1.5890300     1.0650170     0.1165590
  O        1.2943400    -1.1672870    -0.2725970
  N       -1.2047650    -1.1860200     0.0435410
  C       -0.5886430     0.1367320     0.4064510
  C       -1.2872470     1.2925570    -0.2818200
  C        0.8931413     0.1019314     0.0641064
  H       -0.6685550     0.2311640     1.4926420
  H       -1.7458480    -1.1434940    -0.8256840
  H       -1.8050530    -1.5837490     0.7705650
  H       -2.3371450     1.3649650     0.0138330
  H       -0.7761520     2.2140110    -0.0029500
  H       -1.2289870     1.1856370    -1.3693840
  H       -0.3506960    -1.7809300    -0.1207870
units angstrom
no_reorient  #important for SAPT in psi4, default
symmetry c1  #important for SAPT in psi4, default
}

set PROPERTIES_ORIGIN ["COM"]
properties('MP2/aug-cc-pvtz', properties = ['dipole'])
--------------------------------------------------------------------------

    Molecular point group: c1
  Charge       = 0
  Multiplicity = 1
  Basis Set: AUG-CC-PVTZ
    Blend: AUG-CC-PVTZ
  Basis Set: (AUG-CC-PVTZ AUX)
    Blend: AUG-CC-PVTZ-JKFIT

    Orbital Energies [Eh]
    ---------------------

    Doubly Occupied:

       1A    -20.493087     2A    -20.467125     3A    -15.708804
       4A    -11.326600     5A    -11.315360     6A    -11.255504
       7A     -1.376387     8A     -1.333101     9A     -1.218990
      10A     -1.068907    11A     -0.915770    12A     -0.805100
      13A     -0.776492    14A     -0.736817    15A     -0.675273
      16A     -0.633625    17A     -0.592397    18A     -0.570564
      19A     -0.563300    20A     -0.554655    21A     -0.510873
      22A     -0.391451    23A     -0.389098    24A     -0.371951

  @DF-RHF Final Energy:  -321.94081680911540

   => Energetics <=

    Nuclear Repulsion Energy =            249.8957685655747127
    One-Electron Energy =                -935.5707081455465186
    Two-Electron Energy =                 363.7341227708564020
    Total Energy =                       -321.9408168091154039
  Basis Set: (AUG-CC-PVTZ AUX)
    Blend: AUG-CC-PVTZ-RI
    Molecular point group: c1

    Geometry (in Angstrom), charge = 0, multiplicity = 1:

       Center              X                  Y                   Z               Mass
    ------------   -----------------  -----------------  -----------------  -----------------
         O            1.493871056382     1.058028175824     0.112778437147    15.994914619570
         O            1.199181056382    -1.174275824176    -0.276377562853    15.994914619570
         N           -1.299923943618    -1.193008824176     0.039760437147    14.003074004430
         C           -0.683801943618     0.129743175824     0.402670437147    12.000000000000
         C           -1.382405943618     1.285568175824    -0.285600562853    12.000000000000
         C            0.797982356382     0.094942575824     0.060325837147    12.000000000000
         H           -0.763713943618     0.224175175824     1.488861437147     1.007825032230
         H           -1.841006943618    -1.150482824176    -0.829464562853     1.007825032230
         H           -1.900211943618    -1.590737824176     0.766784437147     1.007825032230
         H           -2.432303943618     1.357976175824     0.010052437147     1.007825032230
         H           -0.871310943618     2.207022175824    -0.006730562853     1.007825032230
         H           -1.324145943618     1.178648175824    -1.373164562853     1.007825032230
         H           -0.445854943618    -1.787918824176    -0.124567562853     1.007825032230

  Basis Set: AUG-CC-PVTZ
    Blend: AUG-CC-PVTZ
  Basis Set: (AUG-CC-PVTZ AUX)
    Blend: AUG-CC-PVTZ-JKFIT
	 Reference Energy          =    -321.9408168091154039 [Eh]
	 Singles Energy            =      -0.0000000000000000 [Eh]
	 Same-Spin Energy          =      -0.3226410061776706 [Eh]
	 Opposite-Spin Energy      =      -1.0083243422098804 [Eh]
	 Correlation Energy        =      -1.3309653483875510 [Eh]
	 Total Energy              =    -323.2717821575029689 [Eh]

	 ================> DF-SCS-MP2 Energies <==================
	-----------------------------------------------------------
	 SCS Same-Spin Scale       =       0.3333333333333333 [-]
	 SCS Opposite-Spin Scale   =       1.2000000000000000 [-]
	 SCS Same-Spin Energy      =      -0.1075470020592235 [Eh]
	 SCS Opposite-Spin Energy  =      -1.2099892106518564 [Eh]
	 SCS Correlation Energy    =      -1.3175362127110799 [Eh]
	 SCS Total Energy          =    -323.2583530218265082 [Eh]
	-----------------------------------------------------------

  Dipole Moment: [D]
     X:    -9.7744      Y:    -1.9842      Z:     0.8934     Total:    10.0137

*** Psi4 exiting successfully. Buy a developer a beer!
