                               Psi4 1.3.2 release

  ==> Input File <==

--------------------------------------------------------------------------
#psi4
#
memory 32 gb

molecule  {
0 1
  O        1.5890300     1.0650170     0.1165590
  O        1.2943400    -1.1672870    -0.2725970
  N       -1.2047650    -1.1860200     0.0435410
  C       -0.5476681     0.2247010     0.4305862
  C       -1.2872470     1.2925570    -0.2818200
  C        0.9223610     0.0094930     0.0395840
  H       -0.6685550     0.2311640     1.4926420
  H       -1.7458480    -1.1434940    -0.8256840
  H       -1.8050530    -1.5837490     0.7705650
  H       -2.3371450     1.3649650     0.0138330
  H       -0.7761520     2.2140110    -0.0029500
  H       -1.2289870     1.1856370    -1.3693840
  H       -0.3506960    -1.7809300    -0.1207870
units angstrom
no_reorient  #important for SAPT in psi4, default
symmetry c1  #important for SAPT in psi4, default
}

set PROPERTIES_ORIGIN ["COM"]
properties('MP2/aug-cc-pvtz', properties = ['dipole'])
--------------------------------------------------------------------------

    Molecular point group: c1
  Charge       = 0
  Multiplicity = 1
  Basis Set: AUG-CC-PVTZ
    Blend: AUG-CC-PVTZ
  Basis Set: (AUG-CC-PVTZ AUX)
    Blend: AUG-CC-PVTZ-JKFIT

    Orbital Energies [Eh]
    ---------------------

    Doubly Occupied:

       1A    -20.490992     2A    -20.474020     3A    -15.695246
       4A    -11.329090     5A    -11.319760     6A    -11.253634
       7A     -1.363801     8A     -1.301673     9A     -1.256276
      10A     -1.072828    11A     -0.910869    12A     -0.792973
      13A     -0.764250    14A     -0.719592    15A     -0.669161
      16A     -0.638154    17A     -0.594646    18A     -0.578054
      19A     -0.562719    20A     -0.548007    21A     -0.518980
      22A     -0.409927    23A     -0.387188    24A     -0.378351

  @DF-RHF Final Energy:  -321.94912459061686

   => Energetics <=

    Nuclear Repulsion Energy =            249.5250267974764427
    One-Electron Energy =                -934.8879191305677523
    Two-Electron Energy =                 363.4137677424744197
    Total Energy =                       -321.9491245906168615
  Basis Set: (AUG-CC-PVTZ AUX)
    Blend: AUG-CC-PVTZ-RI
    Molecular point group: c1

    Geometry (in Angstrom), charge = 0, multiplicity = 1:

       Center              X                  Y                   Z               Mass
    ------------   -----------------  -----------------  -----------------  -----------------
         O            1.484411683443     1.058630468898     0.112830615936    15.994914619570
         O            1.189721683443    -1.173673531102    -0.276325384064    15.994914619570
         N           -1.309383316557    -1.192406531102     0.039812615936    14.003074004430
         C           -0.652286416557     0.218314468898     0.426857815936    12.000000000000
         C           -1.391865316557     1.286170468898    -0.285548384064    12.000000000000
         C            0.817742683443     0.003106468898     0.035855615936    12.000000000000
         H           -0.773173316557     0.224777468898     1.488913615936     1.007825032230
         H           -1.850466316557    -1.149880531102    -0.829412384064     1.007825032230
         H           -1.909671316557    -1.590135531102     0.766836615936     1.007825032230
         H           -2.441763316557     1.358578468898     0.010104615936     1.007825032230
         H           -0.880770316557     2.207624468898    -0.006678384064     1.007825032230
         H           -1.333605316557     1.179250468898    -1.373112384064     1.007825032230
         H           -0.455314316557    -1.787316531102    -0.124515384064     1.007825032230

  Basis Set: AUG-CC-PVTZ
    Blend: AUG-CC-PVTZ
  Basis Set: (AUG-CC-PVTZ AUX)
    Blend: AUG-CC-PVTZ-JKFIT
	 Reference Energy          =    -321.9491245906168615 [Eh]
	 Singles Energy            =      -0.0000000000000000 [Eh]
	 Same-Spin Energy          =      -0.3219645586955059 [Eh]
	 Opposite-Spin Energy      =      -1.0072196831901170 [Eh]
	 Correlation Energy        =      -1.3291842418856228 [Eh]
	 Total Energy              =    -323.2783088325024892 [Eh]

	 ================> DF-SCS-MP2 Energies <==================
	-----------------------------------------------------------
	 SCS Same-Spin Scale       =       0.3333333333333333 [-]
	 SCS Opposite-Spin Scale   =       1.2000000000000000 [-]
	 SCS Same-Spin Energy      =      -0.1073215195651686 [Eh]
	 SCS Opposite-Spin Energy  =      -1.2086636198281404 [Eh]
	 SCS Correlation Energy    =      -1.3159851393933091 [Eh]
	 SCS Total Energy          =    -323.2651097300101810 [Eh]
	-----------------------------------------------------------

  Dipole Moment: [D]
     X:    -9.6060      Y:    -2.5236      Z:     0.7605     Total:     9.9610

*** Psi4 exiting successfully. Buy a developer a beer!
