                               Psi4 1.3.2 release

  ==> Input File <==

--------------------------------------------------------------------------
#psi4
#
memory 32 gb

molecule  {
0 1
  O        1.5890300     1.0650170     0.1165590
  O        1.2943400    -1.1672870    -0.2725970
  N       -1.2047650    -1.1860200     0.0435410
  C       -0.5886430     0.1367320     0.4064510
  C       -1.2872470     1.2925570    -0.2818200
  C        0.9006490     0.0044281    -0.0389916
  H       -0.7253895     0.2343252     1.4866779
  H       -1.7458480    -1.1434940    -0.8256840
  H       -1.8050530    -1.5837490     0.7705650
  H       -2.3371450     1.3649650     0.0138330
  H       -0.7761520     2.2140110    -0.0029500
  H       -1.2289870     1.1856370    -1.3693840
  H       -0.3506960    -1.7809300    -0.1207870
units angstrom
no_reorient  #important for SAPT in psi4, default
symmetry c1  #important for SAPT in psi4, default
}

set PROPERTIES_ORIGIN ["COM"]
properties('MP2/aug-cc-pvtz', properties = ['dipole'])
--------------------------------------------------------------------------

    Molecular point group: c1
  Charge       = 0
  Multiplicity = 1
  Basis Set: AUG-CC-PVTZ
    Blend: AUG-CC-PVTZ
  Basis Set: (AUG-CC-PVTZ AUX)
    Blend: AUG-CC-PVTZ-JKFIT

    Orbital Energies [Eh]
    ---------------------

    Doubly Occupied:

       1A    -20.495436     2A    -20.469220     3A    -15.709963
       4A    -11.329794     5A    -11.312978     6A    -11.250867
       7A     -1.370758     8A     -1.320851     9A     -1.249869
      10A     -1.061052    11A     -0.908476    12A     -0.810438
      13A     -0.780692    14A     -0.725480    15A     -0.676732
      16A     -0.631100    17A     -0.579280    18A     -0.570539
      19A     -0.561269    20A     -0.553673    21A     -0.513225
      22A     -0.409638    23A     -0.382857    24A     -0.373991

  @DF-RHF Final Energy:  -321.94839254406554

   => Energetics <=

    Nuclear Repulsion Energy =            249.8410301657088439
    One-Electron Energy =                -935.4824953448044198
    Two-Electron Energy =                 363.6930726350300347
    Total Energy =                       -321.9483925440655412
  Basis Set: (AUG-CC-PVTZ AUX)
    Blend: AUG-CC-PVTZ-RI
    Molecular point group: c1

    Geometry (in Angstrom), charge = 0, multiplicity = 1:

       Center              X                  Y                   Z               Mass
    ------------   -----------------  -----------------  -----------------  -----------------
         O            1.493502566504     1.071131871322     0.126739348769    15.994914619570
         O            1.198812566504    -1.161172128678    -0.262416651231    15.994914619570
         N           -1.300292433496    -1.179905128678     0.053721348769    14.003074004430
         C           -0.684170433496     0.142846871322     0.416631348769    12.000000000000
         C           -1.382774433496     1.298671871322    -0.271639651231    12.000000000000
         C            0.805121566504     0.010542971322    -0.028811251231    12.000000000000
         H           -0.820916933496     0.240440071322     1.496858248769     1.007825032230
         H           -1.841375433496    -1.137379128678    -0.815503651231     1.007825032230
         H           -1.900580433496    -1.577634128678     0.780745348769     1.007825032230
         H           -2.432672433496     1.371079871322     0.024013348769     1.007825032230
         H           -0.871679433496     2.220125871322     0.007230348769     1.007825032230
         H           -1.324514433496     1.191751871322    -1.359203651231     1.007825032230
         H           -0.446223433496    -1.774815128678    -0.110606651231     1.007825032230

  Basis Set: AUG-CC-PVTZ
    Blend: AUG-CC-PVTZ
  Basis Set: (AUG-CC-PVTZ AUX)
    Blend: AUG-CC-PVTZ-JKFIT
	 Reference Energy          =    -321.9483925440655412 [Eh]
	 Singles Energy            =      -0.0000000000000000 [Eh]
	 Same-Spin Energy          =      -0.3226114583458149 [Eh]
	 Opposite-Spin Energy      =      -1.0079907661478562 [Eh]
	 Correlation Energy        =      -1.3306022244936710 [Eh]
	 Total Energy              =    -323.2789947685591869 [Eh]

	 ================> DF-SCS-MP2 Energies <==================
	-----------------------------------------------------------
	 SCS Same-Spin Scale       =       0.3333333333333333 [-]
	 SCS Opposite-Spin Scale   =       1.2000000000000000 [-]
	 SCS Same-Spin Energy      =      -0.1075371527819383 [Eh]
	 SCS Opposite-Spin Energy  =      -1.2095889193774274 [Eh]
	 SCS Correlation Energy    =      -1.3171260721593656 [Eh]
	 SCS Total Energy          =    -323.2655186162248810 [Eh]
	-----------------------------------------------------------

  Dipole Moment: [D]
     X:    -9.7583      Y:    -3.0029      Z:     0.6683     Total:    10.2317

*** Psi4 exiting successfully. Buy a developer a beer!
