                               Psi4 1.3.2 release

  ==> Input File <==

--------------------------------------------------------------------------
#psi4
#
memory 32 gb

molecule  {
0 1
  O        1.5890300     1.0650170     0.1165590
  O        1.2943400    -1.1672870    -0.2725970
  N       -1.2047650    -1.1860200     0.0435410
  C       -0.5972032     0.1283208     0.4008875
  C       -1.2872470     1.2925570    -0.2818200
  C        0.9223610     0.0094930     0.0395840
  H       -0.6685550     0.2311640     1.4926420
  H       -1.7458480    -1.1434940    -0.8256840
  H       -1.8050530    -1.5837490     0.7705650
  H       -2.3371450     1.3649650     0.0138330
  H       -0.7822525     2.2189669    -0.0083071
  H       -1.2289870     1.1856370    -1.3693840
  H       -0.3506960    -1.7809300    -0.1207870
units angstrom
no_reorient  #important for SAPT in psi4, default
symmetry c1  #important for SAPT in psi4, default
}

set PROPERTIES_ORIGIN ["COM"]
properties('MP2/aug-cc-pvtz', properties = ['dipole'])
--------------------------------------------------------------------------

    Molecular point group: c1
  Charge       = 0
  Multiplicity = 1
  Basis Set: AUG-CC-PVTZ
    Blend: AUG-CC-PVTZ
  Basis Set: (AUG-CC-PVTZ AUX)
    Blend: AUG-CC-PVTZ-JKFIT

    Orbital Energies [Eh]
    ---------------------

    Doubly Occupied:

       1A    -20.489592     2A    -20.473117     3A    -15.711271
       4A    -11.328205     5A    -11.310488     6A    -11.251377
       7A     -1.368467     8A     -1.323823     9A     -1.254727
      10A     -1.059361    11A     -0.910029    12A     -0.808359
      13A     -0.781709    14A     -0.725916    15A     -0.675479
      16A     -0.628033    17A     -0.583003    18A     -0.569883
      19A     -0.562704    20A     -0.552754    21A     -0.511717
      22A     -0.406885    23A     -0.384327    24A     -0.377348

  @DF-RHF Final Energy:  -321.95475282152989

   => Energetics <=

    Nuclear Repulsion Energy =            249.8310935720010661
    One-Electron Energy =                -935.4745490092515183
    Two-Electron Energy =                 363.6887026157205014
    Total Energy =                       -321.9547528215298939
  Basis Set: (AUG-CC-PVTZ AUX)
    Blend: AUG-CC-PVTZ-RI
    Molecular point group: c1

    Geometry (in Angstrom), charge = 0, multiplicity = 1:

       Center              X                  Y                   Z               Mass
    ------------   -----------------  -----------------  -----------------  -----------------
         O            1.491156041600     1.071562504182     0.116893421679    15.994914619570
         O            1.196466041600    -1.160741495818    -0.272262578321    15.994914619570
         N           -1.302638958400    -1.179474495818     0.043875421679    14.003074004430
         C           -0.695077158400     0.134866304182     0.401221921679    12.000000000000
         C           -1.385120958400     1.299102504182    -0.281485578321    12.000000000000
         C            0.824487041600     0.016038504182     0.039918421679    12.000000000000
         H           -0.766428958400     0.237709504182     1.492976421679     1.007825032230
         H           -1.843721958400    -1.136948495818    -0.825349578321     1.007825032230
         H           -1.902926958400    -1.577203495818     0.770899421679     1.007825032230
         H           -2.435018958400     1.371510504182     0.014167421679     1.007825032230
         H           -0.880126458400     2.225512404182    -0.007972678321     1.007825032230
         H           -1.326860958400     1.192182504182    -1.369049578321     1.007825032230
         H           -0.448569958400    -1.774384495818    -0.120452578321     1.007825032230

  Basis Set: AUG-CC-PVTZ
    Blend: AUG-CC-PVTZ
  Basis Set: (AUG-CC-PVTZ AUX)
    Blend: AUG-CC-PVTZ-JKFIT
	 Reference Energy          =    -321.9547528215298939 [Eh]
	 Singles Energy            =      -0.0000000000000000 [Eh]
	 Same-Spin Energy          =      -0.3222165502392418 [Eh]
	 Opposite-Spin Energy      =      -1.0067457880182515 [Eh]
	 Correlation Energy        =      -1.3289623382574933 [Eh]
	 Total Energy              =    -323.2837151597873913 [Eh]

	 ================> DF-SCS-MP2 Energies <==================
	-----------------------------------------------------------
	 SCS Same-Spin Scale       =       0.3333333333333333 [-]
	 SCS Opposite-Spin Scale   =       1.2000000000000000 [-]
	 SCS Same-Spin Energy      =      -0.1074055167464139 [Eh]
	 SCS Opposite-Spin Energy  =      -1.2080949456219019 [Eh]
	 SCS Correlation Energy    =      -1.3155004623683157 [Eh]
	 SCS Total Energy          =    -323.2702532838982279 [Eh]
	-----------------------------------------------------------

  Dipole Moment: [D]
     X:    -9.7155      Y:    -2.8599      Z:     0.7018     Total:    10.1520

*** Psi4 exiting successfully. Buy a developer a beer!
