                               Psi4 1.3.2 release

  ==> Input File <==

--------------------------------------------------------------------------
#psi4
#
memory 32 gb

molecule  {
0 1
  O        1.5890300     1.0650170     0.1165590
  O        1.2943400    -1.1672870    -0.2725970
  N       -1.2047650    -1.1860200     0.0435410
  C       -0.5886430     0.1367320     0.4064510
  C       -1.3333347     1.3688080    -0.3272260
  C        0.9223610     0.0094930     0.0395840
  H       -0.6685550     0.2311640     1.4926420
  H       -1.7458480    -1.1434940    -0.8256840
  H       -1.8050530    -1.5837490     0.7705650
  H       -2.3371450     1.3649650     0.0138330
  H       -0.7761520     2.2140110    -0.0029500
  H       -1.2289870     1.1856370    -1.3693840
  H       -0.3506960    -1.7809300    -0.1207870
units angstrom
no_reorient  #important for SAPT in psi4, default
symmetry c1  #important for SAPT in psi4, default
}

set PROPERTIES_ORIGIN ["COM"]
properties('MP2/aug-cc-pvtz', properties = ['dipole'])
--------------------------------------------------------------------------

    Molecular point group: c1
  Charge       = 0
  Multiplicity = 1
  Basis Set: AUG-CC-PVTZ
    Blend: AUG-CC-PVTZ
  Basis Set: (AUG-CC-PVTZ AUX)
    Blend: AUG-CC-PVTZ-JKFIT

    Orbital Energies [Eh]
    ---------------------

    Doubly Occupied:

       1A    -20.489001     2A    -20.472389     3A    -15.709512
       4A    -11.327452     5A    -11.313300     6A    -11.251268
       7A     -1.366077     8A     -1.320216     9A     -1.253958
      10A     -1.046023    11A     -0.917012    12A     -0.805125
      13A     -0.778639    14A     -0.722212    15A     -0.671995
      16A     -0.630645    17A     -0.586447    18A     -0.576405
      19A     -0.569670    20A     -0.548564    21A     -0.501419
      22A     -0.407089    23A     -0.384240    24A     -0.376897

  @DF-RHF Final Energy:  -321.94776086273174

   => Energetics <=

    Nuclear Repulsion Energy =            248.2885976422719523
    One-Electron Energy =                -932.4216047225120292
    Two-Electron Energy =                 362.1852462175083360
    Total Energy =                       -321.9477608627317409
  Basis Set: (AUG-CC-PVTZ AUX)
    Blend: AUG-CC-PVTZ-RI
    Molecular point group: c1

    Geometry (in Angstrom), charge = 0, multiplicity = 1:

       Center              X                  Y                   Z               Mass
    ------------   -----------------  -----------------  -----------------  -----------------
         O            1.496144175721     1.060209578004     0.122201937169    15.994914619570
         O            1.201454175721    -1.172094421996    -0.266954062831    15.994914619570
         N           -1.297650824279    -1.190827421996     0.049183937169    14.003074004430
         C           -0.681528824279     0.131924578004     0.412093937169    12.000000000000
         C           -1.426220524279     1.364000578004    -0.321583062831    12.000000000000
         C            0.829475175721     0.004685578004     0.045226937169    12.000000000000
         H           -0.761440824279     0.226356578004     1.498284937169     1.007825032230
         H           -1.838733824279    -1.148301421996    -0.820041062831     1.007825032230
         H           -1.897938824279    -1.588556421996     0.776207937169     1.007825032230
         H           -2.430030824279     1.360157578004     0.019475937169     1.007825032230
         H           -0.869037824279     2.209203578004     0.002692937169     1.007825032230
         H           -1.321872824279     1.180829578004    -1.363741062831     1.007825032230
         H           -0.443581824279    -1.785737421996    -0.115144062831     1.007825032230

  Basis Set: AUG-CC-PVTZ
    Blend: AUG-CC-PVTZ
  Basis Set: (AUG-CC-PVTZ AUX)
    Blend: AUG-CC-PVTZ-JKFIT
	 Reference Energy          =    -321.9477608627317409 [Eh]
	 Singles Energy            =      -0.0000000000000000 [Eh]
	 Same-Spin Energy          =      -0.3216967941791866 [Eh]
	 Opposite-Spin Energy      =      -1.0066209327424260 [Eh]
	 Correlation Energy        =      -1.3283177269216127 [Eh]
	 Total Energy              =    -323.2760785896533662 [Eh]

	 ================> DF-SCS-MP2 Energies <==================
	-----------------------------------------------------------
	 SCS Same-Spin Scale       =       0.3333333333333333 [-]
	 SCS Opposite-Spin Scale   =       1.2000000000000000 [-]
	 SCS Same-Spin Energy      =      -0.1072322647263955 [Eh]
	 SCS Opposite-Spin Energy  =      -1.2079451192909112 [Eh]
	 SCS Correlation Energy    =      -1.3151773840173067 [Eh]
	 SCS Total Energy          =    -323.2629382467490586 [Eh]
	-----------------------------------------------------------

  Dipole Moment: [D]
     X:    -9.7393      Y:    -2.8625      Z:     0.7052     Total:    10.1757

*** Psi4 exiting successfully. Buy a developer a beer!
