                               Psi4 1.3.2 release

  ==> Input File <==

--------------------------------------------------------------------------
#psi4
#
memory 32 gb

molecule  {
0 1
  O        1.5890300     1.0650170     0.1165590
  O        1.2943400    -1.1672870    -0.2725970
  N       -1.2740589    -1.1582598     0.0685396
  C       -0.5886430     0.1367320     0.4064510
  C       -1.2872470     1.2925570    -0.2818200
  C        0.9329905     0.0860834     0.0658920
  H       -0.6685550     0.2311640     1.4926420
  H       -1.7458480    -1.1434940    -0.8256840
  H       -1.8050530    -1.5837490     0.7705650
  H       -2.3371450     1.3649650     0.0138330
  H       -0.7761520     2.2140110    -0.0029500
  H       -1.2289870     1.1856370    -1.3693840
  H       -0.3506960    -1.7809300    -0.1207870
units angstrom
no_reorient  #important for SAPT in psi4, default
symmetry c1  #important for SAPT in psi4, default
}

set PROPERTIES_ORIGIN ["COM"]
properties('MP2/aug-cc-pvtz', properties = ['dipole'])
--------------------------------------------------------------------------

    Molecular point group: c1
  Charge       = 0
  Multiplicity = 1
  Basis Set: AUG-CC-PVTZ
    Blend: AUG-CC-PVTZ
  Basis Set: (AUG-CC-PVTZ AUX)
    Blend: AUG-CC-PVTZ-JKFIT

    Orbital Energies [Eh]
    ---------------------

    Doubly Occupied:

       1A    -20.495252     2A    -20.476176     3A    -15.701052
       4A    -11.329518     5A    -11.310775     6A    -11.250823
       7A     -1.384088     8A     -1.329539     9A     -1.237412
      10A     -1.061838    11A     -0.907807    12A     -0.815946
      13A     -0.751938    14A     -0.734796    15A     -0.670401
      16A     -0.633313    17A     -0.592700    18A     -0.571489
      19A     -0.561936    20A     -0.552321    21A     -0.518248
      22A     -0.399307    23A     -0.389402    24A     -0.381832

  @DF-RHF Final Energy:  -321.94012753216271

   => Energetics <=

    Nuclear Repulsion Energy =            249.3556316650514759
    One-Electron Energy =                -934.4757006187318211
    Two-Electron Energy =                 363.1799414215176967
    Total Energy =                       -321.9401275321627054
  Basis Set: (AUG-CC-PVTZ AUX)
    Blend: AUG-CC-PVTZ-RI
    Molecular point group: c1

    Geometry (in Angstrom), charge = 0, multiplicity = 1:

       Center              X                  Y                   Z               Mass
    ------------   -----------------  -----------------  -----------------  -----------------
         O            1.499397727242     1.055798447453     0.108606689470    15.994914619570
         O            1.204707727242    -1.176505552547    -0.280549310530    15.994914619570
         N           -1.363691172758    -1.167478352547     0.060587289470    14.003074004430
         C           -0.678275272758     0.127513447453     0.398498689470    12.000000000000
         C           -1.376879272758     1.283338447453    -0.289772310530    12.000000000000
         C            0.843358227242     0.076864847453     0.057939689470    12.000000000000
         H           -0.758187272758     0.221945447453     1.484689689470     1.007825032230
         H           -1.835480272758    -1.152712552547    -0.833636310530     1.007825032230
         H           -1.894685272758    -1.592967552547     0.762612689470     1.007825032230
         H           -2.426777272758     1.355746447453     0.005880689470     1.007825032230
         H           -0.865784272758     2.204792447453    -0.010902310530     1.007825032230
         H           -1.318619272758     1.176418447453    -1.377336310530     1.007825032230
         H           -0.440328272758    -1.790148552547    -0.128739310530     1.007825032230

  Basis Set: AUG-CC-PVTZ
    Blend: AUG-CC-PVTZ
  Basis Set: (AUG-CC-PVTZ AUX)
    Blend: AUG-CC-PVTZ-JKFIT
	 Reference Energy          =    -321.9401275321627054 [Eh]
	 Singles Energy            =      -0.0000000000000000 [Eh]
	 Same-Spin Energy          =      -0.3225672815486851 [Eh]
	 Opposite-Spin Energy      =      -1.0075061209766485 [Eh]
	 Correlation Energy        =      -1.3300734025253336 [Eh]
	 Total Energy              =    -323.2702009346880345 [Eh]

	 ================> DF-SCS-MP2 Energies <==================
	-----------------------------------------------------------
	 SCS Same-Spin Scale       =       0.3333333333333333 [-]
	 SCS Opposite-Spin Scale   =       1.2000000000000000 [-]
	 SCS Same-Spin Energy      =      -0.1075224271828950 [Eh]
	 SCS Opposite-Spin Energy  =      -1.2090073451719781 [Eh]
	 SCS Correlation Energy    =      -1.3165297723548730 [Eh]
	 SCS Total Energy          =    -323.2566573045176028 [Eh]
	-----------------------------------------------------------

  Dipole Moment: [D]
     X:    -9.3251      Y:    -2.0780      Z:     0.8290     Total:     9.5897

*** Psi4 exiting successfully. Buy a developer a beer!
