                               Psi4 1.4a3.dev225

  ==> Input File <==

--------------------------------------------------------------------------
#psi4
#
memory 32 gb

molecule  {
0 1
  O        1.5890300     1.0650170     0.1165590
  O        1.2943400    -1.1672870    -0.2725970
  N       -1.2047650    -1.1860200     0.0435410
  C       -0.5886430     0.1367320     0.4064510
  C       -1.2872470     1.2925570    -0.2818200
  C        0.9223610     0.0094930     0.0395840
  H       -0.6685550     0.2311640     1.4926420
  H       -1.7194475    -1.1455689    -0.7832728
  H       -1.8050530    -1.5837490     0.7705650
  H       -2.3371450     1.3649650     0.0138330
  H       -0.7761520     2.2140110    -0.0029500
  H       -1.2289870     1.1856370    -1.3693840
  H       -0.3506960    -1.7809300    -0.1207870
units angstrom
no_reorient  #important for SAPT in psi4, default
symmetry c1  #important for SAPT in psi4, default
}

set PROPERTIES_ORIGIN ["COM"]
properties('MP2/aug-cc-pvtz', properties = ['dipole'])
--------------------------------------------------------------------------

    Molecular point group: c1
  Charge       = 0
  Multiplicity = 1
  Basis Set: AUG-CC-PVTZ
    Blend: AUG-CC-PVTZ
  Basis Set: (AUG-CC-PVTZ AUX)
    Blend: AUG-CC-PVTZ-JKFIT

    Orbital Energies [Eh]
    ---------------------

    Doubly Occupied:

       1A    -20.489936     2A    -20.473352     3A    -15.705768
       4A    -11.328345     5A    -11.311660     6A    -11.251872
       7A     -1.370204     8A     -1.327355     9A     -1.255371
      10A     -1.061891    11A     -0.913138    12A     -0.811551
      13A     -0.787267    14A     -0.726358    15A     -0.677700
      16A     -0.629430    17A     -0.583905    18A     -0.571840
      19A     -0.561770    20A     -0.553793    21A     -0.512812
      22A     -0.407633    23A     -0.385192    24A     -0.377645

  @DF-RHF Final Energy:  -321.95484046905227

   => Energetics <=

    Nuclear Repulsion Energy =            250.0871837883084083
    One-Electron Energy =                -935.9324746027053834
    Two-Electron Energy =                 363.8904503453447319
    Total Energy =                       -321.9548404690522716
  Basis Set: (AUG-CC-PVTZ AUX)
    Blend: AUG-CC-PVTZ-RI
    Molecular point group: c1

    Geometry (in Angstrom), charge = 0, multiplicity = 1:

       Center              X                  Y                   Z               Mass
    ------------   -----------------  -----------------  -----------------  -----------------
         O            1.489634635049     1.070508590308     0.115603055771    15.994914619570
         O            1.194944635049    -1.161795409692    -0.273552944229    15.994914619570
         N           -1.304160364951    -1.180528409692     0.042585055771    14.003074004430
         C           -0.688038364951     0.142223590308     0.405495055771    12.000000000000
         C           -1.386642364951     1.298048590308    -0.282775944229    12.000000000000
         C            0.822965635049     0.014984590308     0.038628055771    12.000000000000
         H           -0.767950364951     0.236655590308     1.491686055771     1.007825032230
         H           -1.818842864951    -1.140077309692    -0.784228744229     1.007825032230
         H           -1.904448364951    -1.578257409692     0.769609055771     1.007825032230
         H           -2.436540364951     1.370456590308     0.012877055771     1.007825032230
         H           -0.875547364951     2.219502590308    -0.003905944229     1.007825032230
         H           -1.328382364951     1.191128590308    -1.370339944229     1.007825032230
         H           -0.450091364951    -1.775438409692    -0.121742944229     1.007825032230

  Basis Set: AUG-CC-PVTZ
    Blend: AUG-CC-PVTZ
  Basis Set: (AUG-CC-PVTZ AUX)
    Blend: AUG-CC-PVTZ-JKFIT
	 Reference Energy          =    -321.9548404690522716 [Eh]
	 Singles Energy            =      -0.0000000000000000 [Eh]
	 Same-Spin Energy          =      -0.3218592873648246 [Eh]
	 Opposite-Spin Energy      =      -1.0058946736301206 [Eh]
	 Correlation Energy        =      -1.3277539609949454 [Eh]
	 Total Energy              =    -323.2825944300471974 [Eh]

	 ================> DF-SCS-MP2 Energies <==================
	-----------------------------------------------------------
	 SCS Same-Spin Scale       =       0.3333333333333333 [-]
	 SCS Opposite-Spin Scale   =       1.2000000000000000 [-]
	 SCS Same-Spin Energy      =      -0.1072864291216082 [Eh]
	 SCS Opposite-Spin Energy  =      -1.2070736083561446 [Eh]
	 SCS Correlation Energy    =      -1.3143600374777529 [Eh]
	 SCS Total Energy          =    -323.2692005065300123 [Eh]
	-----------------------------------------------------------

  Dipole Moment: [D]
     X:    -9.6832      Y:    -2.8348      Z:     0.7574     Total:    10.1180

*** Psi4 exiting successfully. Buy a developer a beer!
