                               Psi4 1.3.2 release

  ==> Input File <==

--------------------------------------------------------------------------
#psi4
#
memory 32 gb

molecule  {
0 1
  O        1.5890300     1.0650170     0.1165590
  O        1.2943400    -1.1672870    -0.2725970
  N       -1.2047650    -1.1860200     0.0435410
  C       -0.5716828     0.1538179     0.4174204
  C       -1.2872470     1.2925570    -0.2818200
  C        0.9223610     0.0094930     0.0395840
  H       -0.6685550     0.2311640     1.4926420
  H       -1.7458480    -1.1434940    -0.8256840
  H       -1.8050530    -1.5837490     0.7705650
  H       -2.3371450     1.3649650     0.0138330
  H       -0.7640682     2.2038891     0.0077001
  H       -1.2289870     1.1856370    -1.3693840
  H       -0.3506960    -1.7809300    -0.1207870
units angstrom
no_reorient  #important for SAPT in psi4, default
symmetry c1  #important for SAPT in psi4, default
}

set PROPERTIES_ORIGIN ["COM"]
properties('MP2/aug-cc-pvtz', properties = ['dipole'])
--------------------------------------------------------------------------

    Molecular point group: c1
  Charge       = 0
  Multiplicity = 1
  Basis Set: AUG-CC-PVTZ
    Blend: AUG-CC-PVTZ
  Basis Set: (AUG-CC-PVTZ AUX)
    Blend: AUG-CC-PVTZ-JKFIT

    Orbital Energies [Eh]
    ---------------------

    Doubly Occupied:

       1A    -20.489764     2A    -20.473267     3A    -15.706419
       4A    -11.327899     5A    -11.313067     6A    -11.252387
       7A     -1.366211     8A     -1.316832     9A     -1.255227
      10A     -1.062053    11A     -0.910778    12A     -0.803488
      13A     -0.775325    14A     -0.723584    15A     -0.675624
      16A     -0.630812    17A     -0.584364    18A     -0.574745
      19A     -0.559903    20A     -0.553523    21A     -0.513870
      22A     -0.408167    23A     -0.386060    24A     -0.377544

  @DF-RHF Final Energy:  -321.95492274390352

   => Energetics <=

    Nuclear Repulsion Energy =            249.7871595252074428
    One-Electron Energy =                -935.4023370406782760
    Two-Electron Energy =                 363.6602547715672813
    Total Energy =                       -321.9549227439035235
  Basis Set: (AUG-CC-PVTZ AUX)
    Blend: AUG-CC-PVTZ-RI
    Molecular point group: c1

    Geometry (in Angstrom), charge = 0, multiplicity = 1:

       Center              X                  Y                   Z               Mass
    ------------   -----------------  -----------------  -----------------  -----------------
         O            1.487511124648     1.068297181371     0.114484293664    15.994914619570
         O            1.192821124648    -1.164006818629    -0.274671706336    15.994914619570
         N           -1.306283875352    -1.182739818629     0.041466293664    14.003074004430
         C           -0.673201675352     0.157098081371     0.415345693664    12.000000000000
         C           -1.388765875352     1.295837181371    -0.283894706336    12.000000000000
         C            0.820842124648     0.012773181371     0.037509293664    12.000000000000
         H           -0.770073875352     0.234444181371     1.490567293664     1.007825032230
         H           -1.847366875352    -1.140213818629    -0.827758706336     1.007825032230
         H           -1.906571875352    -1.580468818629     0.768490293664     1.007825032230
         H           -2.438663875352     1.368245181371     0.011758293664     1.007825032230
         H           -0.865587075352     2.207169281371     0.005625393664     1.007825032230
         H           -1.330505875352     1.188917181371    -1.371458706336     1.007825032230
         H           -0.452214875352    -1.777649818629    -0.122861706336     1.007825032230

  Basis Set: AUG-CC-PVTZ
    Blend: AUG-CC-PVTZ
  Basis Set: (AUG-CC-PVTZ AUX)
    Blend: AUG-CC-PVTZ-JKFIT
	 Reference Energy          =    -321.9549227439035235 [Eh]
	 Singles Energy            =      -0.0000000000000000 [Eh]
	 Same-Spin Energy          =      -0.3219897972872329 [Eh]
	 Opposite-Spin Energy      =      -1.0067520760765007 [Eh]
	 Correlation Energy        =      -1.3287418733637337 [Eh]
	 Total Energy              =    -323.2836646172672772 [Eh]

	 ================> DF-SCS-MP2 Energies <==================
	-----------------------------------------------------------
	 SCS Same-Spin Scale       =       0.3333333333333333 [-]
	 SCS Opposite-Spin Scale   =       1.2000000000000000 [-]
	 SCS Same-Spin Energy      =      -0.1073299324290776 [Eh]
	 SCS Opposite-Spin Energy  =      -1.2081024912918008 [Eh]
	 SCS Correlation Energy    =      -1.3154324237208783 [Eh]
	 SCS Total Energy          =    -323.2703551676244160 [Eh]
	-----------------------------------------------------------

  Dipole Moment: [D]
     X:    -9.6903      Y:    -2.7750      Z:     0.7372     Total:    10.1067

*** Psi4 exiting successfully. Buy a developer a beer!
