                               Psi4 1.3.2 release

  ==> Input File <==

--------------------------------------------------------------------------
#psi4
#
memory 32 gb

molecule  {
0 1
  O        1.5890300     1.0650170     0.1165590
  O        1.2943400    -1.1672870    -0.2725970
  N       -1.2164364    -1.1816431     0.0476402
  C       -0.5886430     0.1367320     0.4064510
  C       -1.2872470     1.2925570    -0.2818200
  C        0.9244211     0.0222395     0.0439007
  H       -0.6685550     0.2311640     1.4926420
  H       -1.7458480    -1.1434940    -0.8256840
  H       -1.8050530    -1.5837490     0.7705650
  H       -2.3371450     1.3649650     0.0138330
  H       -0.7761520     2.2140110    -0.0029500
  H       -1.2289870     1.1856370    -1.3693840
  H       -0.3506960    -1.7809300    -0.1207870
units angstrom
no_reorient  #important for SAPT in psi4, default
symmetry c1  #important for SAPT in psi4, default
}

set PROPERTIES_ORIGIN ["COM"]
properties('MP2/aug-cc-pvtz', properties = ['dipole'])
--------------------------------------------------------------------------

    Molecular point group: c1
  Charge       = 0
  Multiplicity = 1
  Basis Set: AUG-CC-PVTZ
    Blend: AUG-CC-PVTZ
  Basis Set: (AUG-CC-PVTZ AUX)
    Blend: AUG-CC-PVTZ-JKFIT

    Orbital Energies [Eh]
    ---------------------

    Doubly Occupied:

       1A    -20.487254     2A    -20.476855     3A    -15.708385
       4A    -11.328453     5A    -11.311146     6A    -11.251543
       7A     -1.366296     8A     -1.323076     9A     -1.255041
      10A     -1.060476    11A     -0.909816    12A     -0.807631
      13A     -0.775297    14A     -0.726903    15A     -0.674543
      16A     -0.628897    17A     -0.584546    18A     -0.571313
      19A     -0.561600    20A     -0.553111    21A     -0.512344
      22A     -0.406232    23A     -0.386810    24A     -0.378957

  @DF-RHF Final Energy:  -321.95515128894675

   => Energetics <=

    Nuclear Repulsion Energy =            249.7197827230010603
    One-Electron Energy =                -935.2568173000514662
    Two-Electron Energy =                 363.5818832881037110
    Total Energy =                       -321.9551512889467517
  Basis Set: (AUG-CC-PVTZ AUX)
    Blend: AUG-CC-PVTZ-RI
    Molecular point group: c1

    Geometry (in Angstrom), charge = 0, multiplicity = 1:

       Center              X                  Y                   Z               Mass
    ------------   -----------------  -----------------  -----------------  -----------------
         O            1.491491183872     1.068079114386     0.114856728263    15.994914619570
         O            1.196801183872    -1.164224885614    -0.274299271737    15.994914619570
         N           -1.313975216128    -1.178580985614     0.045937928263    14.003074004430
         C           -0.686181816128     0.139794114386     0.404748728263    12.000000000000
         C           -1.384785816128     1.295619114386    -0.283522271737    12.000000000000
         C            0.826882283872     0.025301614386     0.042198428263    12.000000000000
         H           -0.766093816128     0.234226114386     1.490939728263     1.007825032230
         H           -1.843386816128    -1.140431885614    -0.827386271737     1.007825032230
         H           -1.902591816128    -1.580686885614     0.768862728263     1.007825032230
         H           -2.434683816128     1.368027114386     0.012130728263     1.007825032230
         H           -0.873690816128     2.217073114386    -0.004652271737     1.007825032230
         H           -1.326525816128     1.188699114386    -1.371086271737     1.007825032230
         H           -0.448234816128    -1.777867885614    -0.122489271737     1.007825032230

  Basis Set: AUG-CC-PVTZ
    Blend: AUG-CC-PVTZ
  Basis Set: (AUG-CC-PVTZ AUX)
    Blend: AUG-CC-PVTZ-JKFIT
	 Reference Energy          =    -321.9551512889467517 [Eh]
	 Singles Energy            =      -0.0000000000000000 [Eh]
	 Same-Spin Energy          =      -0.3221664493246859 [Eh]
	 Opposite-Spin Energy      =      -1.0067699713114209 [Eh]
	 Correlation Energy        =      -1.3289364206361067 [Eh]
	 Total Energy              =    -323.2840877095828773 [Eh]

	 ================> DF-SCS-MP2 Energies <==================
	-----------------------------------------------------------
	 SCS Same-Spin Scale       =       0.3333333333333333 [-]
	 SCS Opposite-Spin Scale   =       1.2000000000000000 [-]
	 SCS Same-Spin Energy      =      -0.1073888164415620 [Eh]
	 SCS Opposite-Spin Energy  =      -1.2081239655737050 [Eh]
	 SCS Correlation Energy    =      -1.3155127820152670 [Eh]
	 SCS Total Energy          =    -323.2706640709620274 [Eh]
	-----------------------------------------------------------

  Dipole Moment: [D]
     X:    -9.6490      Y:    -2.7098      Z:     0.7329     Total:    10.0491

*** Psi4 exiting successfully. Buy a developer a beer!
