                               Psi4 1.4a3.dev225

  ==> Input File <==

--------------------------------------------------------------------------
#psi4
#
memory 32 gb

molecule  {
0 1
  O        1.5890300     1.0650170     0.1165590
  O        1.2943400    -1.1672870    -0.2725970
  N       -1.2047650    -1.1860200     0.0435410
  C       -0.5886430     0.1367320     0.4064510
  C       -1.2872470     1.2925570    -0.2818200
  C        0.9223610     0.0094930     0.0395840
  H       -0.6670930     0.2294364     1.4727705
  H       -1.7458480    -1.1434940    -0.8256840
  H       -1.8050530    -1.5837490     0.7705650
  H       -2.3371450     1.3649650     0.0138330
  H       -0.7761520     2.2140110    -0.0029500
  H       -1.2289870     1.1856370    -1.3693840
  H       -0.3506960    -1.7809300    -0.1207870
units angstrom
no_reorient  #important for SAPT in psi4, default
symmetry c1  #important for SAPT in psi4, default
}

set PROPERTIES_ORIGIN ["COM"]
properties('MP2/aug-cc-pvtz', properties = ['dipole'])
--------------------------------------------------------------------------

    Molecular point group: c1
  Charge       = 0
  Multiplicity = 1
  Basis Set: AUG-CC-PVTZ
    Blend: AUG-CC-PVTZ
  Basis Set: (AUG-CC-PVTZ AUX)
    Blend: AUG-CC-PVTZ-JKFIT

    Orbital Energies [Eh]
    ---------------------

    Doubly Occupied:

       1A    -20.489572     2A    -20.473125     3A    -15.709612
       4A    -11.327962     5A    -11.309000     6A    -11.251544
       7A     -1.367577     8A     -1.321570     9A     -1.254854
      10A     -1.061083    11A     -0.911349    12A     -0.807465
      13A     -0.779519    14A     -0.724955    15A     -0.677717
      16A     -0.629395    17A     -0.583199    18A     -0.571675
      19A     -0.561379    20A     -0.554326    21A     -0.513242
      22A     -0.407260    23A     -0.384868    24A     -0.377374

  @DF-RHF Final Energy:  -321.95523846402261

   => Energetics <=

    Nuclear Repulsion Energy =            249.9204082841034449
    One-Electron Energy =                -935.6520503369359858
    Two-Electron Energy =                 363.7764035888098988
    Total Energy =                       -321.9552384640226137
  Basis Set: (AUG-CC-PVTZ AUX)
    Blend: AUG-CC-PVTZ-RI
    Molecular point group: c1

    Geometry (in Angstrom), charge = 0, multiplicity = 1:

       Center              X                  Y                   Z               Mass
    ------------   -----------------  -----------------  -----------------  -----------------
         O            1.489916884345     1.070504659631     0.116307959764    15.994914619570
         O            1.195226884345    -1.161799340369    -0.272848040236    15.994914619570
         N           -1.303878115655    -1.180532340369     0.043289959764    14.003074004430
         C           -0.687756115655     0.142219659631     0.406199959764    12.000000000000
         C           -1.386360115655     1.298044659631    -0.282071040236    12.000000000000
         C            0.823247884345     0.014980659631     0.039332959764    12.000000000000
         H           -0.766206115655     0.234924059631     1.472519459764     1.007825032230
         H           -1.844961115655    -1.138006340369    -0.825935040236     1.007825032230
         H           -1.904166115655    -1.578261340369     0.770313959764     1.007825032230
         H           -2.436258115655     1.370452659631     0.013581959764     1.007825032230
         H           -0.875265115655     2.219498659631    -0.003201040236     1.007825032230
         H           -1.328100115655     1.191124659631    -1.369635040236     1.007825032230
         H           -0.449809115655    -1.775442340369    -0.121038040236     1.007825032230

  Basis Set: AUG-CC-PVTZ
    Blend: AUG-CC-PVTZ
  Basis Set: (AUG-CC-PVTZ AUX)
    Blend: AUG-CC-PVTZ-JKFIT
	 Reference Energy          =    -321.9552384640226137 [Eh]
	 Singles Energy            =      -0.0000000000000000 [Eh]
	 Same-Spin Energy          =      -0.3221007836833221 [Eh]
	 Opposite-Spin Energy      =      -1.0065851144483169 [Eh]
	 Correlation Energy        =      -1.3286858981316390 [Eh]
	 Total Energy              =    -323.2839243621542664 [Eh]

	 ================> DF-SCS-MP2 Energies <==================
	-----------------------------------------------------------
	 SCS Same-Spin Scale       =       0.3333333333333333 [-]
	 SCS Opposite-Spin Scale   =       1.2000000000000000 [-]
	 SCS Same-Spin Energy      =      -0.1073669278944407 [Eh]
	 SCS Opposite-Spin Energy  =      -1.2079021373379801 [Eh]
	 SCS Correlation Energy    =      -1.3152690652324208 [Eh]
	 SCS Total Energy          =    -323.2705075292550418 [Eh]
	-----------------------------------------------------------

  Dipole Moment: [D]
     X:    -9.7105      Y:    -2.8347      Z:     0.7181     Total:    10.1412

*** Psi4 exiting successfully. Buy a developer a beer!
