                               Psi4 1.3.2 release

  ==> Input File <==

--------------------------------------------------------------------------
#psi4
#
memory 32 gb

molecule  {
0 1
  O        1.5890300     1.0650170     0.1165590
  O        1.2943400    -1.1672870    -0.2725970
  N       -1.2047650    -1.1860200     0.0435410
  C       -0.5992678     0.1473277     0.3849205
  C       -1.2872470     1.2925570    -0.2818200
  C        0.9223610     0.0094930     0.0395840
  H       -0.6685550     0.2311640     1.4926420
  H       -1.7417610    -1.1261478    -0.8271955
  H       -1.8050530    -1.5837490     0.7705650
  H       -2.3371450     1.3649650     0.0138330
  H       -0.7761520     2.2140110    -0.0029500
  H       -1.2289870     1.1856370    -1.3693840
  H       -0.3506960    -1.7809300    -0.1207870
units angstrom
no_reorient  #important for SAPT in psi4, default
symmetry c1  #important for SAPT in psi4, default
}

set PROPERTIES_ORIGIN ["COM"]
properties('MP2/aug-cc-pvtz', properties = ['dipole'])
--------------------------------------------------------------------------

    Molecular point group: c1
  Charge       = 0
  Multiplicity = 1
  Basis Set: AUG-CC-PVTZ
    Blend: AUG-CC-PVTZ
  Basis Set: (AUG-CC-PVTZ AUX)
    Blend: AUG-CC-PVTZ-JKFIT

    Orbital Energies [Eh]
    ---------------------

    Doubly Occupied:

       1A    -20.489965     2A    -20.473146     3A    -15.709781
       4A    -11.328541     5A    -11.311805     6A    -11.251030
       7A     -1.367487     8A     -1.321770     9A     -1.254985
      10A     -1.064342    11A     -0.908051    12A     -0.806242
      13A     -0.781632    14A     -0.723949    15A     -0.672854
      16A     -0.630243    17A     -0.585721    18A     -0.572128
      19A     -0.563487    20A     -0.551646    21A     -0.512011
      22A     -0.407192    23A     -0.384350    24A     -0.377531

  @DF-RHF Final Energy:  -321.95406661044296

   => Energetics <=

    Nuclear Repulsion Energy =            249.9236595798432745
    One-Electron Energy =                -935.6556748746635321
    Two-Electron Energy =                 363.7779486843772929
    Total Energy =                       -321.9540666104429647
  Basis Set: (AUG-CC-PVTZ AUX)
    Blend: AUG-CC-PVTZ-RI
    Molecular point group: c1

    Geometry (in Angstrom), charge = 0, multiplicity = 1:

       Center              X                  Y                   Z               Mass
    ------------   -----------------  -----------------  -----------------  -----------------
         O            1.491318965359     1.068860917137     0.119001599133    15.994914619570
         O            1.196628965359    -1.163443082863    -0.270154400867    15.994914619570
         N           -1.302476034641    -1.182176082863     0.045983599133    14.003074004430
         C           -0.696978834641     0.151171617137     0.387363099133    12.000000000000
         C           -1.384958034641     1.296400917137    -0.279377400867    12.000000000000
         C            0.824649965359     0.013336917137     0.042026599133    12.000000000000
         H           -0.766266034641     0.235007917137     1.495084599133     1.007825032230
         H           -1.839472034641    -1.122303882863    -0.824752900867     1.007825032230
         H           -1.902764034641    -1.579905082863     0.773007599133     1.007825032230
         H           -2.434856034641     1.368808917137     0.016275599133     1.007825032230
         H           -0.873863034641     2.217854917137    -0.000507400867     1.007825032230
         H           -1.326698034641     1.189480917137    -1.366941400867     1.007825032230
         H           -0.448407034641    -1.777086082863    -0.118344400867     1.007825032230

  Basis Set: AUG-CC-PVTZ
    Blend: AUG-CC-PVTZ
  Basis Set: (AUG-CC-PVTZ AUX)
    Blend: AUG-CC-PVTZ-JKFIT
	 Reference Energy          =    -321.9540666104429647 [Eh]
	 Singles Energy            =      -0.0000000000000000 [Eh]
	 Same-Spin Energy          =      -0.3223506003907277 [Eh]
	 Opposite-Spin Energy      =      -1.0069630085679544 [Eh]
	 Correlation Energy        =      -1.3293136089586821 [Eh]
	 Total Energy              =    -323.2833802194016357 [Eh]

	 ================> DF-SCS-MP2 Energies <==================
	-----------------------------------------------------------
	 SCS Same-Spin Scale       =       0.3333333333333333 [-]
	 SCS Opposite-Spin Scale   =       1.2000000000000000 [-]
	 SCS Same-Spin Energy      =      -0.1074502001302426 [Eh]
	 SCS Opposite-Spin Energy  =      -1.2083556102815451 [Eh]
	 SCS Correlation Energy    =      -1.3158058104117878 [Eh]
	 SCS Total Energy          =    -323.2698724208547674 [Eh]
	-----------------------------------------------------------

  Dipole Moment: [D]
     X:    -9.7058      Y:    -2.7998      Z:     0.6864     Total:    10.1248

*** Psi4 exiting successfully. Buy a developer a beer!
