                               Psi4 1.3.2 release

  ==> Input File <==

--------------------------------------------------------------------------
#psi4
#
memory 32 gb

molecule  {
0 1
  O        1.5890300     1.0650170     0.1165590
  O        1.2943400    -1.1672870    -0.2725970
  N       -1.2047650    -1.1860200     0.0435410
  C       -0.5886430     0.1367320     0.4064510
  C       -1.2872470     1.2925570    -0.2818200
  C        0.9808004    -0.1753838    -0.0094609
  H       -0.6685550     0.2311640     1.4926420
  H       -1.7458480    -1.1434940    -0.8256840
  H       -1.8050530    -1.5837490     0.7705650
  H       -2.3371450     1.3649650     0.0138330
  H       -0.7761520     2.2140110    -0.0029500
  H       -1.2289870     1.1856370    -1.3693840
  H       -0.3506960    -1.7809300    -0.1207870
units angstrom
no_reorient  #important for SAPT in psi4, default
symmetry c1  #important for SAPT in psi4, default
}

set PROPERTIES_ORIGIN ["COM"]
properties('MP2/aug-cc-pvtz', properties = ['dipole'])
--------------------------------------------------------------------------

    Molecular point group: c1
  Charge       = 0
  Multiplicity = 1
  Basis Set: AUG-CC-PVTZ
    Blend: AUG-CC-PVTZ
  Basis Set: (AUG-CC-PVTZ AUX)
    Blend: AUG-CC-PVTZ-JKFIT

    Orbital Energies [Eh]
    ---------------------

    Doubly Occupied:

       1A    -20.538511     2A    -20.433561     3A    -15.711531
       4A    -11.322672     5A    -11.298256     6A    -11.242178
       7A     -1.494182     8A     -1.332964     9A     -1.191287
      10A     -1.042425    11A     -0.898649    12A     -0.812836
      13A     -0.786027    14A     -0.729822    15A     -0.677493
      16A     -0.642953    17A     -0.615265    18A     -0.597706
      19A     -0.565600    20A     -0.553305    21A     -0.535538
      22A     -0.393311    23A     -0.352691    24A     -0.342972

  @DF-RHF Final Energy:  -321.88314744968335

   => Energetics <=

    Nuclear Repulsion Energy =            250.4755166541508800
    One-Electron Energy =                -936.4938641826425965
    Two-Electron Energy =                 364.1352000788083956
    Total Energy =                       -321.8831474496833494
  Basis Set: (AUG-CC-PVTZ AUX)
    Blend: AUG-CC-PVTZ-RI
    Molecular point group: c1

    Geometry (in Angstrom), charge = 0, multiplicity = 1:

       Center              X                  Y                   Z               Mass
    ------------   -----------------  -----------------  -----------------  -----------------
         O            1.482058180201     1.095398969282     0.122692312671    15.994914619570
         O            1.187368180201    -1.136905030718    -0.266463687329    15.994914619570
         N           -1.311736819799    -1.155638030718     0.049674312671    14.003074004430
         C           -0.695614819799     0.167113969282     0.412584312671    12.000000000000
         C           -1.394218819799     1.322938969282    -0.275686687329    12.000000000000
         C            0.873828580201    -0.145001830718    -0.003327587329    12.000000000000
         H           -0.775526819799     0.261545969282     1.498775312671     1.007825032230
         H           -1.852819819799    -1.113112030718    -0.819550687329     1.007825032230
         H           -1.912024819799    -1.553367030718     0.776698312671     1.007825032230
         H           -2.444116819799     1.395346969282     0.019966312671     1.007825032230
         H           -0.883123819799     2.244392969282     0.003183312671     1.007825032230
         H           -1.335958819799     1.216018969282    -1.363250687329     1.007825032230
         H           -0.457667819799    -1.750548030718    -0.114653687329     1.007825032230

  Basis Set: AUG-CC-PVTZ
    Blend: AUG-CC-PVTZ
  Basis Set: (AUG-CC-PVTZ AUX)
    Blend: AUG-CC-PVTZ-JKFIT
	 Reference Energy          =    -321.8831474496833494 [Eh]
	 Singles Energy            =      -0.0000000000000000 [Eh]
	 Same-Spin Energy          =      -0.3207585408448081 [Eh]
	 Opposite-Spin Energy      =      -1.0036758598360773 [Eh]
	 Correlation Energy        =      -1.3244344006808855 [Eh]
	 Total Energy              =    -323.2075818503642495 [Eh]

	 ================> DF-SCS-MP2 Energies <==================
	-----------------------------------------------------------
	 SCS Same-Spin Scale       =       0.3333333333333333 [-]
	 SCS Opposite-Spin Scale   =       1.2000000000000000 [-]
	 SCS Same-Spin Energy      =      -0.1069195136149360 [Eh]
	 SCS Opposite-Spin Energy  =      -1.2044110318032928 [Eh]
	 SCS Correlation Energy    =      -1.3113305454182289 [Eh]
	 SCS Total Energy          =    -323.1944779951015789 [Eh]
	-----------------------------------------------------------

  Dipole Moment: [D]
     X:    -9.4991      Y:    -4.6616      Z:     0.3236     Total:    10.5863

*** Psi4 exiting successfully. Buy a developer a beer!
