                               Psi4 1.4a3.dev225

  ==> Input File <==

--------------------------------------------------------------------------
#psi4
#
memory 32 gb

molecule  {
0 1
  O        1.5890300     1.0650170     0.1165590
  O        1.2943400    -1.1672870    -0.2725970
  N       -1.2047650    -1.1860200     0.0435410
  C       -0.5886430     0.1367320     0.4064510
  C       -1.2872470     1.2925570    -0.2818200
  C        0.9029904     0.0111242     0.0442871
  H       -0.6685550     0.2311640     1.4926420
  H       -1.7458480    -1.1434940    -0.8256840
  H       -1.8050530    -1.5837490     0.7705650
  H       -2.3371450     1.3649650     0.0138330
  H       -0.7761520     2.2140110    -0.0029500
  H       -1.2289870     1.1856370    -1.3693840
  H       -0.3506960    -1.7809300    -0.1207870
units angstrom
no_reorient  #important for SAPT in psi4, default
symmetry c1  #important for SAPT in psi4, default
}

set PROPERTIES_ORIGIN ["COM"]
properties('MP2/aug-cc-pvtz', properties = ['dipole'])
--------------------------------------------------------------------------

    Molecular point group: c1
  Charge       = 0
  Multiplicity = 1
  Basis Set: AUG-CC-PVTZ
    Blend: AUG-CC-PVTZ
  Basis Set: (AUG-CC-PVTZ AUX)
    Blend: AUG-CC-PVTZ-JKFIT

    Orbital Energies [Eh]
    ---------------------

    Doubly Occupied:

       1A    -20.489037     2A    -20.472423     3A    -15.710908
       4A    -11.328253     5A    -11.313922     6A    -11.253190
       7A     -1.365652     8A     -1.320226     9A     -1.248520
      10A     -1.063449    11A     -0.914437    12A     -0.808523
      13A     -0.780647    14A     -0.728235    15A     -0.677059
      16A     -0.629302    17A     -0.582603    18A     -0.571116
      19A     -0.560936    20A     -0.553559    21A     -0.508951
      22A     -0.406833    23A     -0.385424    24A     -0.374528

  @DF-RHF Final Energy:  -321.95260178760549

   => Energetics <=

    Nuclear Repulsion Energy =            249.8540279088331886
    One-Electron Energy =                -935.5177924350560943
    Two-Electron Energy =                 363.7111627386173609
    Total Energy =                       -321.9526017876054880
  Basis Set: (AUG-CC-PVTZ AUX)
    Blend: AUG-CC-PVTZ-RI
    Molecular point group: c1

    Geometry (in Angstrom), charge = 0, multiplicity = 1:

       Center              X                  Y                   Z               Mass
    ------------   -----------------  -----------------  -----------------  -----------------
         O            1.492543798872     1.070265287658     0.115449271515    15.994914619570
         O            1.197853798872    -1.162038712342    -0.273706728485    15.994914619570
         N           -1.301251201128    -1.180771712342     0.042431271515    14.003074004430
         C           -0.685129201128     0.141980287658     0.405341271515    12.000000000000
         C           -1.383733201128     1.297805287658    -0.282929728485    12.000000000000
         C            0.806504198872     0.016372487658     0.043177371515    12.000000000000
         H           -0.765041201128     0.236412287658     1.491532271515     1.007825032230
         H           -1.842334201128    -1.138245712342    -0.826793728485     1.007825032230
         H           -1.901539201128    -1.578500712342     0.769455271515     1.007825032230
         H           -2.433631201128     1.370213287658     0.012723271515     1.007825032230
         H           -0.872638201128     2.219259287658    -0.004059728485     1.007825032230
         H           -1.325473201128     1.190885287658    -1.370493728485     1.007825032230
         H           -0.447182201128    -1.775681712342    -0.121896728485     1.007825032230

  Basis Set: AUG-CC-PVTZ
    Blend: AUG-CC-PVTZ
  Basis Set: (AUG-CC-PVTZ AUX)
    Blend: AUG-CC-PVTZ-JKFIT
	 Reference Energy          =    -321.9526017876054880 [Eh]
	 Singles Energy            =      -0.0000000000000000 [Eh]
	 Same-Spin Energy          =      -0.3225324261533599 [Eh]
	 Opposite-Spin Energy      =      -1.0076450240016208 [Eh]
	 Correlation Energy        =      -1.3301774501549808 [Eh]
	 Total Energy              =    -323.2827792377604510 [Eh]

	 ================> DF-SCS-MP2 Energies <==================
	-----------------------------------------------------------
	 SCS Same-Spin Scale       =       0.3333333333333333 [-]
	 SCS Opposite-Spin Scale   =       1.2000000000000000 [-]
	 SCS Same-Spin Energy      =      -0.1075108087177866 [Eh]
	 SCS Opposite-Spin Energy  =      -1.2091740288019450 [Eh]
	 SCS Correlation Energy    =      -1.3166848375197315 [Eh]
	 SCS Total Energy          =    -323.2692866251252326 [Eh]
	-----------------------------------------------------------

  Dipole Moment: [D]
     X:    -9.8186      Y:    -2.8144      Z:     0.7334     Total:    10.2403

*** Psi4 exiting successfully. Buy a developer a beer!
