                               Psi4 1.4a3.dev225

  ==> Input File <==

--------------------------------------------------------------------------
#psi4
#
memory 32 gb

molecule  {
0 1
  O        1.5890300     1.0650170     0.1165590
  O        1.2943400    -1.1672870    -0.2725970
  N       -1.2047650    -1.1860200     0.0435410
  C       -0.5681555     0.1807165     0.4185186
  C       -1.2872470     1.2925570    -0.2818200
  C        0.9223610     0.0094930     0.0395840
  H       -0.6685550     0.2311640     1.4926420
  H       -1.7458480    -1.1434940    -0.8256840
  H       -1.8050530    -1.5837490     0.7705650
  H       -2.3371450     1.3649650     0.0138330
  H       -0.7761520     2.2140110    -0.0029500
  H       -1.2289870     1.1856370    -1.3693840
  H       -0.3506960    -1.7809300    -0.1207870
units angstrom
no_reorient  #important for SAPT in psi4, default
symmetry c1  #important for SAPT in psi4, default
}

set PROPERTIES_ORIGIN ["COM"]
properties('MP2/aug-cc-pvtz', properties = ['dipole'])
--------------------------------------------------------------------------

    Molecular point group: c1
  Charge       = 0
  Multiplicity = 1
  Basis Set: AUG-CC-PVTZ
    Blend: AUG-CC-PVTZ
  Basis Set: (AUG-CC-PVTZ AUX)
    Blend: AUG-CC-PVTZ-JKFIT

    Orbital Energies [Eh]
    ---------------------

    Doubly Occupied:

       1A    -20.490226     2A    -20.473333     3A    -15.703107
       4A    -11.328350     5A    -11.315230     6A    -11.252467
       7A     -1.364838     8A     -1.311915     9A     -1.255485
      10A     -1.066543    11A     -0.910181    12A     -0.799721
      13A     -0.771970    14A     -0.720999    15A     -0.673560
      16A     -0.633414    17A     -0.587918    18A     -0.575702
      19A     -0.560684    20A     -0.552824    21A     -0.516012
      22A     -0.408603    23A     -0.386083    24A     -0.377708

  @DF-RHF Final Energy:  -321.95389358353719

   => Energetics <=

    Nuclear Repulsion Energy =            249.6678957608714313
    One-Electron Energy =                -935.1698322645920598
    Two-Electron Energy =                 363.5480429201833772
    Total Energy =                       -321.9538935835371944
  Basis Set: (AUG-CC-PVTZ AUX)
    Blend: AUG-CC-PVTZ-RI
    Molecular point group: c1

    Geometry (in Angstrom), charge = 0, multiplicity = 1:

       Center              X                  Y                   Z               Mass
    ------------   -----------------  -----------------  -----------------  -----------------
         O            1.487172550478     1.064557787937     0.114456836883    15.994914619570
         O            1.192482550478    -1.167746212063    -0.274699163117    15.994914619570
         N           -1.306622449522    -1.186479212063     0.041438836883    14.003074004430
         C           -0.670012949522     0.180257287937     0.416416436883    12.000000000000
         C           -1.389104449522     1.292097787937    -0.283922163117    12.000000000000
         C            0.820503550478     0.009033787937     0.037481836883    12.000000000000
         H           -0.770412449522     0.230704787937     1.490539836883     1.007825032230
         H           -1.847705449522    -1.143953212063    -0.827786163117     1.007825032230
         H           -1.906910449522    -1.584208212063     0.768462836883     1.007825032230
         H           -2.439002449522     1.364505787937     0.011730836883     1.007825032230
         H           -0.878009449522     2.213551787937    -0.005052163117     1.007825032230
         H           -1.330844449522     1.185177787937    -1.371486163117     1.007825032230
         H           -0.452553449522    -1.781389212063    -0.122889163117     1.007825032230

  Basis Set: AUG-CC-PVTZ
    Blend: AUG-CC-PVTZ
  Basis Set: (AUG-CC-PVTZ AUX)
    Blend: AUG-CC-PVTZ-JKFIT
	 Reference Energy          =    -321.9538935835371944 [Eh]
	 Singles Energy            =      -0.0000000000000000 [Eh]
	 Same-Spin Energy          =      -0.3219698326867294 [Eh]
	 Opposite-Spin Energy      =      -1.0068689761470457 [Eh]
	 Correlation Energy        =      -1.3288388088337753 [Eh]
	 Total Energy              =    -323.2827323923709741 [Eh]

	 ================> DF-SCS-MP2 Energies <==================
	-----------------------------------------------------------
	 SCS Same-Spin Scale       =       0.3333333333333333 [-]
	 SCS Opposite-Spin Scale   =       1.2000000000000000 [-]
	 SCS Same-Spin Energy      =      -0.1073232775622431 [Eh]
	 SCS Opposite-Spin Energy  =      -1.2082427713764547 [Eh]
	 SCS Correlation Energy    =      -1.3155660489386978 [Eh]
	 SCS Total Energy          =    -323.2694596324759004 [Eh]
	-----------------------------------------------------------

  Dipole Moment: [D]
     X:    -9.6687      Y:    -2.6902      Z:     0.7371     Total:    10.0630

*** Psi4 exiting successfully. Buy a developer a beer!
