                               Psi4 1.3.2 release

  ==> Input File <==

--------------------------------------------------------------------------
#psi4
#
memory 32 gb

molecule  {
0 1
  O        1.5890300     1.0650170     0.1165590
  O        1.2943400    -1.1672870    -0.2725970
  N       -1.1873257    -1.1981174     0.0589761
  C       -0.5886430     0.1367320     0.4064510
  C       -1.2705696     1.3093631    -0.2700166
  C        0.9223610     0.0094930     0.0395840
  H       -0.6685550     0.2311640     1.4926420
  H       -1.7458480    -1.1434940    -0.8256840
  H       -1.8050530    -1.5837490     0.7705650
  H       -2.3371450     1.3649650     0.0138330
  H       -0.7761520     2.2140110    -0.0029500
  H       -1.2289870     1.1856370    -1.3693840
  H       -0.3506960    -1.7809300    -0.1207870
units angstrom
no_reorient  #important for SAPT in psi4, default
symmetry c1  #important for SAPT in psi4, default
}

set PROPERTIES_ORIGIN ["COM"]
properties('MP2/aug-cc-pvtz', properties = ['dipole'])
--------------------------------------------------------------------------

    Molecular point group: c1
  Charge       = 0
  Multiplicity = 1
  Basis Set: AUG-CC-PVTZ
    Blend: AUG-CC-PVTZ
  Basis Set: (AUG-CC-PVTZ AUX)
    Blend: AUG-CC-PVTZ-JKFIT

    Orbital Energies [Eh]
    ---------------------

    Doubly Occupied:

       1A    -20.488438     2A    -20.472457     3A    -15.711899
       4A    -11.327319     5A    -11.311113     6A    -11.252897
       7A     -1.367770     8A     -1.321594     9A     -1.254151
      10A     -1.060830    11A     -0.909490    12A     -0.810803
      13A     -0.779047    14A     -0.724382    15A     -0.674288
      16A     -0.627126    17A     -0.586028    18A     -0.573893
      19A     -0.565006    20A     -0.549507    21A     -0.511049
      22A     -0.406513    23A     -0.384335    24A     -0.376679

  @DF-RHF Final Energy:  -321.95333836396929

   => Energetics <=

    Nuclear Repulsion Energy =            249.8813679165174904
    One-Electron Energy =                -935.5761789740604399
    Two-Electron Energy =                 363.7414726935735985
    Total Energy =                       -321.9533383639692943
  Basis Set: (AUG-CC-PVTZ AUX)
    Blend: AUG-CC-PVTZ-RI
    Molecular point group: c1

    Geometry (in Angstrom), charge = 0, multiplicity = 1:

       Center              X                  Y                   Z               Mass
    ------------   -----------------  -----------------  -----------------  -----------------
         O            1.484943602886     1.070122689751     0.112065214201    15.994914619570
         O            1.190253602886    -1.162181310249    -0.277090785799    15.994914619570
         N           -1.291412097114    -1.193011710249     0.054482314201    14.003074004430
         C           -0.692729397114     0.141837689751     0.401957214201    12.000000000000
         C           -1.374655997114     1.314468789751    -0.274510385799    12.000000000000
         C            0.818274602886     0.014598689751     0.035090214201    12.000000000000
         H           -0.772641397114     0.236269689751     1.488148214201     1.007825032230
         H           -1.849934397114    -1.138388310249    -0.830177785799     1.007825032230
         H           -1.909139397114    -1.578643310249     0.766071214201     1.007825032230
         H           -2.441231397114     1.370070689751     0.009339214201     1.007825032230
         H           -0.880238397114     2.219116689751    -0.007443785799     1.007825032230
         H           -1.333073397114     1.190742689751    -1.373877785799     1.007825032230
         H           -0.454782397114    -1.775824310249    -0.125280785799     1.007825032230

  Basis Set: AUG-CC-PVTZ
    Blend: AUG-CC-PVTZ
  Basis Set: (AUG-CC-PVTZ AUX)
    Blend: AUG-CC-PVTZ-JKFIT
	 Reference Energy          =    -321.9533383639692943 [Eh]
	 Singles Energy            =      -0.0000000000000000 [Eh]
	 Same-Spin Energy          =      -0.3219966151835254 [Eh]
	 Opposite-Spin Energy      =      -1.0066270717698618 [Eh]
	 Correlation Energy        =      -1.3286236869533872 [Eh]
	 Total Energy              =    -323.2819620509226866 [Eh]

	 ================> DF-SCS-MP2 Energies <==================
	-----------------------------------------------------------
	 SCS Same-Spin Scale       =       0.3333333333333333 [-]
	 SCS Opposite-Spin Scale   =       1.2000000000000000 [-]
	 SCS Same-Spin Energy      =      -0.1073322050611751 [Eh]
	 SCS Opposite-Spin Energy  =      -1.2079524861238340 [Eh]
	 SCS Correlation Energy    =      -1.3152846911850091 [Eh]
	 SCS Total Energy          =    -323.2686230551543076 [Eh]
	-----------------------------------------------------------

  Dipole Moment: [D]
     X:    -9.7606      Y:    -2.8383      Z:     0.7119     Total:    10.1898

*** Psi4 exiting successfully. Buy a developer a beer!
