                               Psi4 1.3.2 release

  ==> Input File <==

--------------------------------------------------------------------------
#psi4
#
memory 32 gb

molecule  {
0 1
  O        1.5890300     1.0650170     0.1165590
  O        1.2943400    -1.1672870    -0.2725970
  N       -1.1960685    -1.1921193     0.0512450
  C       -0.5886430     0.1367320     0.4064510
  C       -1.2789346     1.3010044    -0.2759443
  C        0.9223610     0.0094930     0.0395840
  H       -0.6685550     0.2311640     1.4926420
  H       -1.7458480    -1.1434940    -0.8256840
  H       -1.8050530    -1.5837490     0.7705650
  H       -2.3371450     1.3649650     0.0138330
  H       -0.7761520     2.2140110    -0.0029500
  H       -1.2289870     1.1856370    -1.3693840
  H       -0.3506960    -1.7809300    -0.1207870
units angstrom
no_reorient  #important for SAPT in psi4, default
symmetry c1  #important for SAPT in psi4, default
}

set PROPERTIES_ORIGIN ["COM"]
properties('MP2/aug-cc-pvtz', properties = ['dipole'])
--------------------------------------------------------------------------

    Molecular point group: c1
  Charge       = 0
  Multiplicity = 1
  Basis Set: AUG-CC-PVTZ
    Blend: AUG-CC-PVTZ
  Basis Set: (AUG-CC-PVTZ AUX)
    Blend: AUG-CC-PVTZ-JKFIT

    Orbital Energies [Eh]
    ---------------------

    Doubly Occupied:

       1A    -20.489021     2A    -20.472785     3A    -15.710816
       4A    -11.327687     5A    -11.311182     6A    -11.252261
       7A     -1.367645     8A     -1.321573     9A     -1.254502
      10A     -1.060511    11A     -0.909796    12A     -0.808433
      13A     -0.779628    14A     -0.724708    15A     -0.675003
      16A     -0.628016    17A     -0.584028    18A     -0.572712
      19A     -0.563643    20A     -0.551792    21A     -0.511775
      22A     -0.406902    23A     -0.384622    24A     -0.377026

  @DF-RHF Final Energy:  -321.95469433833802

   => Energetics <=

    Nuclear Repulsion Energy =            249.8473078376671026
    One-Electron Energy =                -935.5118699592082976
    Two-Electron Energy =                 363.7098677832031512
    Total Energy =                       -321.9546943383380153
  Basis Set: (AUG-CC-PVTZ AUX)
    Blend: AUG-CC-PVTZ-RI
    Molecular point group: c1

    Geometry (in Angstrom), charge = 0, multiplicity = 1:

       Center              X                  Y                   Z               Mass
    ------------   -----------------  -----------------  -----------------  -----------------
         O            1.487445701528     1.070305878826     0.114079770544    15.994914619570
         O            1.192755701528    -1.161998121174    -0.275076229456    15.994914619570
         N           -1.297652798472    -1.186830421174     0.048765770544    14.003074004430
         C           -0.690227298472     0.142020878826     0.403971770544    12.000000000000
         C           -1.380518898472     1.306293278826    -0.278423529456    12.000000000000
         C            0.820776701528     0.014781878826     0.037104770544    12.000000000000
         H           -0.770139298472     0.236452878826     1.490162770544     1.007825032230
         H           -1.847432298472    -1.138205121174    -0.828163229456     1.007825032230
         H           -1.906637298472    -1.578460121174     0.768085770544     1.007825032230
         H           -2.438729298472     1.370253878826     0.011353770544     1.007825032230
         H           -0.877736298472     2.219299878826    -0.005429229456     1.007825032230
         H           -1.330571298472     1.190925878826    -1.371863229456     1.007825032230
         H           -0.452280298472    -1.775641121174    -0.123266229456     1.007825032230

  Basis Set: AUG-CC-PVTZ
    Blend: AUG-CC-PVTZ
  Basis Set: (AUG-CC-PVTZ AUX)
    Blend: AUG-CC-PVTZ-JKFIT
	 Reference Energy          =    -321.9546943383380153 [Eh]
	 Singles Energy            =      -0.0000000000000000 [Eh]
	 Same-Spin Energy          =      -0.3220509413999111 [Eh]
	 Opposite-Spin Energy      =      -1.0066506587180832 [Eh]
	 Correlation Energy        =      -1.3287016001179943 [Eh]
	 Total Energy              =    -323.2833959384560103 [Eh]

	 ================> DF-SCS-MP2 Energies <==================
	-----------------------------------------------------------
	 SCS Same-Spin Scale       =       0.3333333333333333 [-]
	 SCS Opposite-Spin Scale   =       1.2000000000000000 [-]
	 SCS Same-Spin Energy      =      -0.1073503137999704 [Eh]
	 SCS Opposite-Spin Energy  =      -1.2079807904616999 [Eh]
	 SCS Correlation Energy    =      -1.3153311042616702 [Eh]
	 SCS Total Energy          =    -323.2700254425996604 [Eh]
	-----------------------------------------------------------

  Dipole Moment: [D]
     X:    -9.7355      Y:    -2.8355      Z:     0.7125     Total:    10.1650

*** Psi4 exiting successfully. Buy a developer a beer!
