                               Psi4 1.3.2 release

  ==> Input File <==

--------------------------------------------------------------------------
#psi4
#
memory 32 gb

molecule  {
0 1
  O        1.5890300     1.0650170     0.1165590
  O        1.2943400    -1.1672870    -0.2725970
  N       -1.1576190    -1.2025169     0.0274238
  C       -0.5886430     0.1367320     0.4064510
  C       -1.2872470     1.2925570    -0.2818200
  C        0.9129715    -0.0413865     0.0225997
  H       -0.6685550     0.2311640     1.4926420
  H       -1.7458480    -1.1434940    -0.8256840
  H       -1.8050530    -1.5837490     0.7705650
  H       -2.3371450     1.3649650     0.0138330
  H       -0.7761520     2.2140110    -0.0029500
  H       -1.2289870     1.1856370    -1.3693840
  H       -0.3506960    -1.7809300    -0.1207870
units angstrom
no_reorient  #important for SAPT in psi4, default
symmetry c1  #important for SAPT in psi4, default
}

set PROPERTIES_ORIGIN ["COM"]
properties('MP2/aug-cc-pvtz', properties = ['dipole'])
--------------------------------------------------------------------------

    Molecular point group: c1
  Charge       = 0
  Multiplicity = 1
  Basis Set: AUG-CC-PVTZ
    Blend: AUG-CC-PVTZ
  Basis Set: (AUG-CC-PVTZ AUX)
    Blend: AUG-CC-PVTZ-JKFIT

    Orbital Energies [Eh]
    ---------------------

    Doubly Occupied:

       1A    -20.499503     2A    -20.458175     3A    -15.714757
       4A    -11.325894     5A    -11.312129     6A    -11.252262
       7A     -1.383155     8A     -1.324040     9A     -1.238541
      10A     -1.059435    11A     -0.911813    12A     -0.814273
      13A     -0.785832    14A     -0.717657    15A     -0.680358
      16A     -0.631489    17A     -0.583046    18A     -0.572211
      19A     -0.560083    20A     -0.555096    21A     -0.517349
      22A     -0.408606    23A     -0.374408    24A     -0.368112

  @DF-RHF Final Energy:  -321.94451825854838

   => Energetics <=

    Nuclear Repulsion Energy =            250.2830574825464396
    One-Electron Energy =                -936.3587017012597471
    Two-Electron Energy =                 364.1311259601648658
    Total Energy =                       -321.9445182585483849
  Basis Set: (AUG-CC-PVTZ AUX)
    Blend: AUG-CC-PVTZ-RI
    Molecular point group: c1

    Geometry (in Angstrom), charge = 0, multiplicity = 1:

       Center              X                  Y                   Z               Mass
    ------------   -----------------  -----------------  -----------------  -----------------
         O            1.483784871740     1.079935789195     0.120906338478    15.994914619570
         O            1.189094871740    -1.152368210805    -0.268249661522    15.994914619570
         N           -1.262864128260    -1.187598110805     0.031771138478    14.003074004430
         C           -0.693888128260     0.151650789195     0.410798338478    12.000000000000
         C           -1.392492128260     1.307475789195    -0.277472661522    12.000000000000
         C            0.807726371740    -0.026467710805     0.026947038478    12.000000000000
         H           -0.773800128260     0.246082789195     1.496989338478     1.007825032230
         H           -1.851093128260    -1.128575210805    -0.821336661522     1.007825032230
         H           -1.910298128260    -1.568830210805     0.774912338478     1.007825032230
         H           -2.442390128260     1.379883789195     0.018180338478     1.007825032230
         H           -0.881397128260     2.228929789195     0.001397338478     1.007825032230
         H           -1.334232128260     1.200555789195    -1.365036661522     1.007825032230
         H           -0.455941128260    -1.766011210805    -0.116439661522     1.007825032230

  Basis Set: AUG-CC-PVTZ
    Blend: AUG-CC-PVTZ
  Basis Set: (AUG-CC-PVTZ AUX)
    Blend: AUG-CC-PVTZ-JKFIT
	 Reference Energy          =    -321.9445182585483849 [Eh]
	 Singles Energy            =      -0.0000000000000000 [Eh]
	 Same-Spin Energy          =      -0.3220804336887791 [Eh]
	 Opposite-Spin Energy      =      -1.0068572117897296 [Eh]
	 Correlation Energy        =      -1.3289376454785087 [Eh]
	 Total Energy              =    -323.2734559040268891 [Eh]

	 ================> DF-SCS-MP2 Energies <==================
	-----------------------------------------------------------
	 SCS Same-Spin Scale       =       0.3333333333333333 [-]
	 SCS Opposite-Spin Scale   =       1.2000000000000000 [-]
	 SCS Same-Spin Energy      =      -0.1073601445629264 [Eh]
	 SCS Opposite-Spin Energy  =      -1.2082286541476754 [Eh]
	 SCS Correlation Energy    =      -1.3155887987106019 [Eh]
	 SCS Total Energy          =    -323.2601070572590061 [Eh]
	-----------------------------------------------------------

  Dipole Moment: [D]
     X:    -9.9377      Y:    -3.3193      Z:     0.6364     Total:    10.4967

*** Psi4 exiting successfully. Buy a developer a beer!
