                               Psi4 1.4a3.dev225

  ==> Input File <==

--------------------------------------------------------------------------
#psi4
#
memory 32 gb

molecule  {
0 1
  O        1.5890300     1.0650170     0.1165590
  O        1.2943400    -1.1672870    -0.2725970
  N       -1.2047650    -1.1860200     0.0435410
  C       -0.5886430     0.1367320     0.4064510
  C       -1.2872470     1.2925570    -0.2818200
  C        0.8739345     0.0135709     0.0513418
  H       -0.6685550     0.2311640     1.4926420
  H       -1.7458480    -1.1434940    -0.8256840
  H       -1.8050530    -1.5837490     0.7705650
  H       -2.3371450     1.3649650     0.0138330
  H       -0.7761520     2.2140110    -0.0029500
  H       -1.2289870     1.1856370    -1.3693840
  H       -0.3506960    -1.7809300    -0.1207870
units angstrom
no_reorient  #important for SAPT in psi4, default
symmetry c1  #important for SAPT in psi4, default
}

set PROPERTIES_ORIGIN ["COM"]
properties('MP2/aug-cc-pvtz', properties = ['dipole'])
--------------------------------------------------------------------------

    Molecular point group: c1
  Charge       = 0
  Multiplicity = 1
  Basis Set: AUG-CC-PVTZ
    Blend: AUG-CC-PVTZ
  Basis Set: (AUG-CC-PVTZ AUX)
    Blend: AUG-CC-PVTZ-JKFIT

    Orbital Energies [Eh]
    ---------------------

    Doubly Occupied:

       1A    -20.488398     2A    -20.471639     3A    -15.712579
       4A    -11.328812     5A    -11.317380     6A    -11.255374
       7A     -1.363758     8A     -1.317255     9A     -1.239164
      10A     -1.068392    11A     -0.920912    12A     -0.811206
      13A     -0.782208    14A     -0.733207    15A     -0.679229
      16A     -0.629792    17A     -0.582720    18A     -0.571223
      19A     -0.559974    20A     -0.552188    21A     -0.503318
      22A     -0.407509    23A     -0.384381    24A     -0.370430

  @DF-RHF Final Energy:  -321.94706976650195

   => Energetics <=

    Nuclear Repulsion Energy =            249.9137403161983570
    One-Electron Energy =                -935.6195338895895475
    Two-Electron Energy =                 363.7587238068892930
    Total Energy =                       -321.9470697665019543
  Basis Set: (AUG-CC-PVTZ AUX)
    Blend: AUG-CC-PVTZ-RI
    Molecular point group: c1

    Geometry (in Angstrom), charge = 0, multiplicity = 1:

       Center              X                  Y                   Z               Mass
    ------------   -----------------  -----------------  -----------------  -----------------
         O            1.496459350698     1.069935572156     0.114498585304    15.994914619570
         O            1.201769350698    -1.162368427844    -0.274657414696    15.994914619570
         N           -1.297335649302    -1.181101427844     0.041480585304    14.003074004430
         C           -0.681213649302     0.141650572156     0.404390585304    12.000000000000
         C           -1.379817649302     1.297475572156    -0.283880414696    12.000000000000
         C            0.781363850698     0.018489472156     0.049281385304    12.000000000000
         H           -0.761125649302     0.236082572156     1.490581585304     1.007825032230
         H           -1.838418649302    -1.138575427844    -0.827744414696     1.007825032230
         H           -1.897623649302    -1.578830427844     0.768504585304     1.007825032230
         H           -2.429715649302     1.369883572156     0.011772585304     1.007825032230
         H           -0.868722649302     2.218929572156    -0.005010414696     1.007825032230
         H           -1.321557649302     1.190555572156    -1.371444414696     1.007825032230
         H           -0.443266649302    -1.776011427844    -0.122847414696     1.007825032230

  Basis Set: AUG-CC-PVTZ
    Blend: AUG-CC-PVTZ
  Basis Set: (AUG-CC-PVTZ AUX)
    Blend: AUG-CC-PVTZ-JKFIT
	 Reference Energy          =    -321.9470697665019543 [Eh]
	 Singles Energy            =      -0.0000000000000000 [Eh]
	 Same-Spin Energy          =      -0.3232379993607026 [Eh]
	 Opposite-Spin Energy      =      -1.0092028022549442 [Eh]
	 Correlation Energy        =      -1.3324408016156468 [Eh]
	 Total Energy              =    -323.2795105681175869 [Eh]

	 ================> DF-SCS-MP2 Energies <==================
	-----------------------------------------------------------
	 SCS Same-Spin Scale       =       0.3333333333333333 [-]
	 SCS Opposite-Spin Scale   =       1.2000000000000000 [-]
	 SCS Same-Spin Energy      =      -0.1077459997869009 [Eh]
	 SCS Opposite-Spin Energy  =      -1.2110433627059329 [Eh]
	 SCS Correlation Energy    =      -1.3187893624928337 [Eh]
	 SCS Total Energy          =    -323.2658591289948049 [Eh]
	-----------------------------------------------------------

  Dipole Moment: [D]
     X:    -9.9685      Y:    -2.7865      Z:     0.7610     Total:    10.3785

*** Psi4 exiting successfully. Buy a developer a beer!
