                               Psi4 1.3.2 release

  ==> Input File <==

--------------------------------------------------------------------------
#psi4
#
memory 32 gb

molecule  {
0 1
  O        1.5890300     1.0650170     0.1165590
  O        1.2943400    -1.1672870    -0.2725970
  N       -1.2047650    -1.1860200     0.0435410
  C       -0.5886430     0.1367320     0.4064510
  C       -1.2872470     1.2925570    -0.2818200
  C        0.9223610     0.0094930     0.0395840
  H       -0.6612452     0.2225260     1.3932843
  H       -1.7458480    -1.1434940    -0.8256840
  H       -1.8050530    -1.5837490     0.7705650
  H       -2.3371450     1.3649650     0.0138330
  H       -0.7761520     2.2140110    -0.0029500
  H       -1.2289870     1.1856370    -1.3693840
  H       -0.3506960    -1.7809300    -0.1207870
units angstrom
no_reorient  #important for SAPT in psi4, default
symmetry c1  #important for SAPT in psi4, default
}

set PROPERTIES_ORIGIN ["COM"]
properties('MP2/aug-cc-pvtz', properties = ['dipole'])
--------------------------------------------------------------------------

    Molecular point group: c1
  Charge       = 0
  Multiplicity = 1
  Basis Set: AUG-CC-PVTZ
    Blend: AUG-CC-PVTZ
  Basis Set: (AUG-CC-PVTZ AUX)
    Blend: AUG-CC-PVTZ-JKFIT

    Orbital Energies [Eh]
    ---------------------

    Doubly Occupied:

       1A    -20.489405     2A    -20.473168     3A    -15.709213
       4A    -11.327617     5A    -11.299601     6A    -11.251063
       7A     -1.367775     8A     -1.321634     9A     -1.254847
      10A     -1.065396    11A     -0.916780    12A     -0.810767
      13A     -0.779410    14A     -0.724865    15A     -0.686559
      16A     -0.630950    17A     -0.583183    18A     -0.571831
      19A     -0.561814    20A     -0.556966    21A     -0.515707
      22A     -0.407153    23A     -0.384726    24A     -0.377353

  @DF-RHF Final Energy:  -321.94938003266145

   => Energetics <=

    Nuclear Repulsion Energy =            250.3625003467345209
    One-Electron Energy =                -936.4881912258746297
    Two-Electron Energy =                 364.1763108464787138
    Total Energy =                       -321.9493800326614519
  Basis Set: (AUG-CC-PVTZ AUX)
    Blend: AUG-CC-PVTZ-RI
    Molecular point group: c1

    Geometry (in Angstrom), charge = 0, multiplicity = 1:

       Center              X                  Y                   Z               Mass
    ------------   -----------------  -----------------  -----------------  -----------------
         O            1.489850700034     1.070582870251     0.117207569765    15.994914619570
         O            1.195160700034    -1.161721129749    -0.271948430235    15.994914619570
         N           -1.303944299966    -1.180454129749     0.044189569765    14.003074004430
         C           -0.687822299966     0.142297870251     0.407099569765    12.000000000000
         C           -1.386426299966     1.298122870251    -0.281171430235    12.000000000000
         C            0.823181700034     0.015058870251     0.040232569765    12.000000000000
         H           -0.760424499966     0.228091870251     1.393932869765     1.007825032230
         H           -1.845027299966    -1.137928129749    -0.825035430235     1.007825032230
         H           -1.904232299966    -1.578183129749     0.771213569765     1.007825032230
         H           -2.436324299966     1.370530870251     0.014481569765     1.007825032230
         H           -0.875331299966     2.219576870251    -0.002301430235     1.007825032230
         H           -1.328166299966     1.191202870251    -1.368735430235     1.007825032230
         H           -0.449875299966    -1.775364129749    -0.120138430235     1.007825032230

  Basis Set: AUG-CC-PVTZ
    Blend: AUG-CC-PVTZ
  Basis Set: (AUG-CC-PVTZ AUX)
    Blend: AUG-CC-PVTZ-JKFIT
	 Reference Energy          =    -321.9493800326614519 [Eh]
	 Singles Energy            =      -0.0000000000000000 [Eh]
	 Same-Spin Energy          =      -0.3220253166645107 [Eh]
	 Opposite-Spin Energy      =      -1.0061657416693706 [Eh]
	 Correlation Energy        =      -1.3281910583338812 [Eh]
	 Total Energy              =    -323.2775710909953091 [Eh]

	 ================> DF-SCS-MP2 Energies <==================
	-----------------------------------------------------------
	 SCS Same-Spin Scale       =       0.3333333333333333 [-]
	 SCS Opposite-Spin Scale   =       1.2000000000000000 [-]
	 SCS Same-Spin Energy      =      -0.1073417722215036 [Eh]
	 SCS Opposite-Spin Energy  =      -1.2073988900032446 [Eh]
	 SCS Correlation Energy    =      -1.3147406622247482 [Eh]
	 SCS Total Energy          =    -323.2641206948861736 [Eh]
	-----------------------------------------------------------

  Dipole Moment: [D]
     X:    -9.7152      Y:    -2.8415      Z:     0.7298     Total:    10.1485

*** Psi4 exiting successfully. Buy a developer a beer!
