                               Psi4 1.3.2 release

  ==> Input File <==

--------------------------------------------------------------------------
#psi4
#
memory 32 gb

molecule  {
0 1
  O        1.5890300     1.0650170     0.1165590
  O        1.2943400    -1.1672870    -0.2725970
  N       -1.2047650    -1.1860200     0.0435410
  C       -0.5886430     0.1367320     0.4064510
  C       -1.2872470     1.2925570    -0.2818200
  C        0.9223610     0.0094930     0.0395840
  H       -0.6685550     0.2311640     1.4926420
  H       -1.6930470    -1.1476439    -0.7408616
  H       -1.8050530    -1.5837490     0.7705650
  H       -2.3371450     1.3649650     0.0138330
  H       -0.7761520     2.2140110    -0.0029500
  H       -1.2289870     1.1856370    -1.3693840
  H       -0.3506960    -1.7809300    -0.1207870
units angstrom
no_reorient  #important for SAPT in psi4, default
symmetry c1  #important for SAPT in psi4, default
}

set PROPERTIES_ORIGIN ["COM"]
properties('MP2/aug-cc-pvtz', properties = ['dipole'])
--------------------------------------------------------------------------

    Molecular point group: c1
  Charge       = 0
  Multiplicity = 1
  Basis Set: AUG-CC-PVTZ
    Blend: AUG-CC-PVTZ
  Basis Set: (AUG-CC-PVTZ AUX)
    Blend: AUG-CC-PVTZ-JKFIT

    Orbital Energies [Eh]
    ---------------------

    Doubly Occupied:

       1A    -20.490246     2A    -20.473582     3A    -15.701434
       4A    -11.328626     5A    -11.312047     6A    -11.252061
       7A     -1.374074     8A     -1.333277     9A     -1.255864
      10A     -1.063768    11A     -0.916653    12A     -0.818479
      13A     -0.792900    14A     -0.727597    15A     -0.679462
      16A     -0.629895    17A     -0.584551    18A     -0.572015
      19A     -0.562175    20A     -0.554052    21A     -0.513133
      22A     -0.407968    23A     -0.385469    24A     -0.377906

  @DF-RHF Final Energy:  -321.94922923127763

   => Energetics <=

    Nuclear Repulsion Energy =            250.3792824040137077
    One-Electron Energy =                -936.4425537508155912
    Two-Electron Energy =                 364.1140421155242848
    Total Energy =                       -321.9492292312776272
  Basis Set: (AUG-CC-PVTZ AUX)
    Blend: AUG-CC-PVTZ-RI
    Molecular point group: c1

    Geometry (in Angstrom), charge = 0, multiplicity = 1:

       Center              X                  Y                   Z               Mass
    ------------   -----------------  -----------------  -----------------  -----------------
         O            1.489335839109     1.070532074771     0.115123053712    15.994914619570
         O            1.194645839109    -1.161771925229    -0.274032946288    15.994914619570
         N           -1.304459160891    -1.180504925229     0.042105053712    14.003074004430
         C           -0.688337160891     0.142247074771     0.405015053712    12.000000000000
         C           -1.386941160891     1.298072074771    -0.283255946288    12.000000000000
         C            0.822666839109     0.015008074771     0.038148053712    12.000000000000
         H           -0.768249160891     0.236679074771     1.491206053712     1.007825032230
         H           -1.792741160891    -1.142128825229    -0.742297546288     1.007825032230
         H           -1.904747160891    -1.578233925229     0.769129053712     1.007825032230
         H           -2.436839160891     1.370480074771     0.012397053712     1.007825032230
         H           -0.875846160891     2.219526074771    -0.004385946288     1.007825032230
         H           -1.328681160891     1.191152074771    -1.370819946288     1.007825032230
         H           -0.450390160891    -1.775414925229    -0.122222946288     1.007825032230

  Basis Set: AUG-CC-PVTZ
    Blend: AUG-CC-PVTZ
  Basis Set: (AUG-CC-PVTZ AUX)
    Blend: AUG-CC-PVTZ-JKFIT
	 Reference Energy          =    -321.9492292312776272 [Eh]
	 Singles Energy            =      -0.0000000000000000 [Eh]
	 Same-Spin Energy          =      -0.3216139974859595 [Eh]
	 Opposite-Spin Energy      =      -1.0051529569449131 [Eh]
	 Correlation Energy        =      -1.3267669544308727 [Eh]
	 Total Energy              =    -323.2759961857084932 [Eh]

	 ================> DF-SCS-MP2 Energies <==================
	-----------------------------------------------------------
	 SCS Same-Spin Scale       =       0.3333333333333333 [-]
	 SCS Opposite-Spin Scale   =       1.2000000000000000 [-]
	 SCS Same-Spin Energy      =      -0.1072046658286532 [Eh]
	 SCS Opposite-Spin Energy  =      -1.2061835483338956 [Eh]
	 SCS Correlation Energy    =      -1.3133882141625488 [Eh]
	 SCS Total Energy          =    -323.2626174454401848 [Eh]
	-----------------------------------------------------------

  Dipole Moment: [D]
     X:    -9.6571      Y:    -2.8356      Z:     0.8007     Total:    10.0966

*** Psi4 exiting successfully. Buy a developer a beer!
