                               Psi4 1.3.2 release

  ==> Input File <==

--------------------------------------------------------------------------
#psi4
#
memory 32 gb

molecule  {
0 1
  O        1.5890300     1.0650170     0.1165590
  O        1.2943400    -1.1672870    -0.2725970
  N       -1.2511604    -1.1679116     0.0601004
  C       -0.5886430     0.1367320     0.4064510
  C       -1.2872470     1.2925570    -0.2818200
  C        0.9299095     0.0605275     0.0570153
  H       -0.6685550     0.2311640     1.4926420
  H       -1.7458480    -1.1434940    -0.8256840
  H       -1.8050530    -1.5837490     0.7705650
  H       -2.3371450     1.3649650     0.0138330
  H       -0.7761520     2.2140110    -0.0029500
  H       -1.2289870     1.1856370    -1.3693840
  H       -0.3506960    -1.7809300    -0.1207870
units angstrom
no_reorient  #important for SAPT in psi4, default
symmetry c1  #important for SAPT in psi4, default
}

set PROPERTIES_ORIGIN ["COM"]
properties('MP2/aug-cc-pvtz', properties = ['dipole'])
--------------------------------------------------------------------------

    Molecular point group: c1
  Charge       = 0
  Multiplicity = 1
  Basis Set: AUG-CC-PVTZ
    Blend: AUG-CC-PVTZ
  Basis Set: (AUG-CC-PVTZ AUX)
    Blend: AUG-CC-PVTZ-JKFIT

    Orbital Energies [Eh]
    ---------------------

    Doubly Occupied:

       1A    -20.487952     2A    -20.480432     3A    -15.704101
       4A    -11.329246     5A    -11.310844     6A    -11.251114
       7A     -1.372024     8A     -1.328509     9A     -1.246969
      10A     -1.061269    11A     -0.908609    12A     -0.812379
      13A     -0.760890    14A     -0.732265    15A     -0.671625
      16A     -0.630622    17A     -0.589522    18A     -0.570887
      19A     -0.561848    20A     -0.552321    21A     -0.514663
      22A     -0.402149    23A     -0.389938    24A     -0.381649

  @DF-RHF Final Energy:  -321.94907854396473

   => Energetics <=

    Nuclear Repulsion Energy =            249.4785054534268340
    One-Electron Energy =                -934.7515130804342789
    Two-Electron Energy =                 363.3239290830427421
    Total Energy =                       -321.9490785439647311
  Basis Set: (AUG-CC-PVTZ AUX)
    Blend: AUG-CC-PVTZ-RI
    Molecular point group: c1

    Geometry (in Angstrom), charge = 0, multiplicity = 1:

       Center              X                  Y                   Z               Mass
    ------------   -----------------  -----------------  -----------------  -----------------
         O            1.496212047447     1.060760122786     0.111130002217    15.994914619570
         O            1.201522047447    -1.171543877214    -0.278025997783    15.994914619570
         N           -1.343978352553    -1.172168477214     0.054671402217    14.003074004430
         C           -0.681460952553     0.132475122786     0.401022002217    12.000000000000
         C           -1.380064952553     1.288300122786    -0.287248997783    12.000000000000
         C            0.837091547447     0.056270622786     0.051586302217    12.000000000000
         H           -0.761372952553     0.226907122786     1.487213002217     1.007825032230
         H           -1.838665952553    -1.147750877214    -0.831112997783     1.007825032230
         H           -1.897870952553    -1.588005877214     0.765136002217     1.007825032230
         H           -2.429962952553     1.360708122786     0.008404002217     1.007825032230
         H           -0.868969952553     2.209754122786    -0.008378997783     1.007825032230
         H           -1.321804952553     1.181380122786    -1.374812997783     1.007825032230
         H           -0.443513952553    -1.785186877214    -0.126215997783     1.007825032230

  Basis Set: AUG-CC-PVTZ
    Blend: AUG-CC-PVTZ
  Basis Set: (AUG-CC-PVTZ AUX)
    Blend: AUG-CC-PVTZ-JKFIT
	 Reference Energy          =    -321.9490785439647311 [Eh]
	 Singles Energy            =      -0.0000000000000000 [Eh]
	 Same-Spin Energy          =      -0.3223640097050245 [Eh]
	 Opposite-Spin Energy      =      -1.0071052852161653 [Eh]
	 Correlation Energy        =      -1.3294692949211897 [Eh]
	 Total Energy              =    -323.2785478388859133 [Eh]

	 ================> DF-SCS-MP2 Energies <==================
	-----------------------------------------------------------
	 SCS Same-Spin Scale       =       0.3333333333333333 [-]
	 SCS Opposite-Spin Scale   =       1.2000000000000000 [-]
	 SCS Same-Spin Energy      =      -0.1074546699016748 [Eh]
	 SCS Opposite-Spin Energy  =      -1.2085263422593984 [Eh]
	 SCS Correlation Energy    =      -1.3159810121610731 [Eh]
	 SCS Total Energy          =    -323.2650595561257774 [Eh]
	-----------------------------------------------------------

  Dipole Moment: [D]
     X:    -9.4600      Y:    -2.3340      Z:     0.7906     Total:     9.7757

*** Psi4 exiting successfully. Buy a developer a beer!
