                               Psi4 1.3.2 release

  ==> Input File <==

--------------------------------------------------------------------------
#psi4
#
memory 32 gb

molecule  {
0 1
  O        1.5890300     1.0650170     0.1165590
  O        1.2943400    -1.1672870    -0.2725970
  N       -1.2047650    -1.1860200     0.0435410
  C       -0.6231965     0.1036216     0.3838867
  C       -1.2872470     1.2925570    -0.2818200
  C        0.9223610     0.0094930     0.0395840
  H       -0.6685550     0.2311640     1.4926420
  H       -1.7458480    -1.1434940    -0.8256840
  H       -1.8050530    -1.5837490     0.7705650
  H       -2.3371450     1.3649650     0.0138330
  H       -0.8007829     2.2334098    -0.0245018
  H       -1.2289870     1.1856370    -1.3693840
  H       -0.3506960    -1.7809300    -0.1207870
units angstrom
no_reorient  #important for SAPT in psi4, default
symmetry c1  #important for SAPT in psi4, default
}

set PROPERTIES_ORIGIN ["COM"]
properties('MP2/aug-cc-pvtz', properties = ['dipole'])
--------------------------------------------------------------------------

    Molecular point group: c1
  Charge       = 0
  Multiplicity = 1
  Basis Set: AUG-CC-PVTZ
    Blend: AUG-CC-PVTZ
  Basis Set: (AUG-CC-PVTZ AUX)
    Blend: AUG-CC-PVTZ-JKFIT

    Orbital Energies [Eh]
    ---------------------

    Doubly Occupied:

       1A    -20.489613     2A    -20.473312     3A    -15.715405
       4A    -11.328806     5A    -11.308362     6A    -11.250616
       7A     -1.372292     8A     -1.329866     9A     -1.254439
      10A     -1.056875    11A     -0.909865    12A     -0.813341
      13A     -0.788260    14A     -0.729086    15A     -0.674290
      16A     -0.625420    17A     -0.583305    18A     -0.566831
      19A     -0.564095    20A     -0.549629    21A     -0.509023
      22A     -0.405734    23A     -0.382428    24A     -0.377384

  @DF-RHF Final Energy:  -321.95136461392713

   => Energetics <=

    Nuclear Repulsion Energy =            249.8797612577521932
    One-Electron Energy =                -935.5456965322580345
    Two-Electron Energy =                 363.7145706605787154
    Total Energy =                       -321.9513646139271259
  Basis Set: (AUG-CC-PVTZ AUX)
    Blend: AUG-CC-PVTZ-RI
    Molecular point group: c1

    Geometry (in Angstrom), charge = 0, multiplicity = 1:

       Center              X                  Y                   Z               Mass
    ------------   -----------------  -----------------  -----------------  -----------------
         O            1.494868603305     1.074727488252     0.119367725645    15.994914619570
         O            1.200178603305    -1.157576511748    -0.269788274355    15.994914619570
         N           -1.298926396695    -1.176309511748     0.046349725645    14.003074004430
         C           -0.717357896695     0.113332088252     0.386695425645    12.000000000000
         C           -1.381408396695     1.302267488252    -0.279011274355    12.000000000000
         C            0.828199603305     0.019203488252     0.042392725645    12.000000000000
         H           -0.762716396695     0.240874488252     1.495450725645     1.007825032230
         H           -1.840009396695    -1.133783511748    -0.822875274355     1.007825032230
         H           -1.899214396695    -1.574038511748     0.773373725645     1.007825032230
         H           -2.431306396695     1.374675488252     0.016641725645     1.007825032230
         H           -0.894944296695     2.243120288252    -0.021693074355     1.007825032230
         H           -1.323148396695     1.195347488252    -1.366575274355     1.007825032230
         H           -0.444857396695    -1.771219511748    -0.117978274355     1.007825032230

  Basis Set: AUG-CC-PVTZ
    Blend: AUG-CC-PVTZ
  Basis Set: (AUG-CC-PVTZ AUX)
    Blend: AUG-CC-PVTZ-JKFIT
	 Reference Energy          =    -321.9513646139271259 [Eh]
	 Singles Energy            =      -0.0000000000000000 [Eh]
	 Same-Spin Energy          =      -0.3225815558557968 [Eh]
	 Opposite-Spin Energy      =      -1.0069650912938382 [Eh]
	 Correlation Energy        =      -1.3295466471496349 [Eh]
	 Total Energy              =    -323.2809112610767670 [Eh]

	 ================> DF-SCS-MP2 Energies <==================
	-----------------------------------------------------------
	 SCS Same-Spin Scale       =       0.3333333333333333 [-]
	 SCS Opposite-Spin Scale   =       1.2000000000000000 [-]
	 SCS Same-Spin Energy      =      -0.1075271852852656 [Eh]
	 SCS Opposite-Spin Energy  =      -1.2083581095526057 [Eh]
	 SCS Correlation Energy    =      -1.3158852948378712 [Eh]
	 SCS Total Energy          =    -323.2672499087649953 [Eh]
	-----------------------------------------------------------

  Dipole Moment: [D]
     X:    -9.7232      Y:    -2.9317      Z:     0.6662     Total:    10.1774

*** Psi4 exiting successfully. Buy a developer a beer!
