                               Psi4 1.3.2 release

  ==> Input File <==

--------------------------------------------------------------------------
#psi4
#
memory 32 gb

molecule  {
0 1
  O        1.5979382     1.0595655     0.1133860
  O        1.2943400    -1.1672870    -0.2725970
  N       -1.2047650    -1.1860200     0.0435410
  C       -0.5903026     0.1234488     0.4039700
  C       -1.2872470     1.2925570    -0.2818200
  C        0.9223610     0.0094930     0.0395840
  H       -0.6685550     0.2311640     1.4926420
  H       -1.7458480    -1.1434940    -0.8256840
  H       -1.8050530    -1.5837490     0.7705650
  H       -2.3371450     1.3649650     0.0138330
  H       -0.7761520     2.2140110    -0.0029500
  H       -1.2289870     1.1856370    -1.3693840
  H       -0.3506960    -1.7809300    -0.1207870
units angstrom
no_reorient  #important for SAPT in psi4, default
symmetry c1  #important for SAPT in psi4, default
}

set PROPERTIES_ORIGIN ["COM"]
properties('MP2/aug-cc-pvtz', properties = ['dipole'])
--------------------------------------------------------------------------

    Molecular point group: c1
  Charge       = 0
  Multiplicity = 1
  Basis Set: AUG-CC-PVTZ
    Blend: AUG-CC-PVTZ
  Basis Set: (AUG-CC-PVTZ AUX)
    Blend: AUG-CC-PVTZ-JKFIT

    Orbital Energies [Eh]
    ---------------------

    Doubly Occupied:

       1A    -20.488796     2A    -20.472791     3A    -15.711514
       4A    -11.327624     5A    -11.311116     6A    -11.252101
       7A     -1.368770     8A     -1.324071     9A     -1.253825
      10A     -1.058553    11A     -0.911155    12A     -0.808897
      13A     -0.781654    14A     -0.727315    15A     -0.675846
      16A     -0.627761    17A     -0.582183    18A     -0.570518
      19A     -0.561578    20A     -0.553441    21A     -0.511022
      22A     -0.406573    23A     -0.384886    24A     -0.376722

  @DF-RHF Final Energy:  -321.95466410904760

   => Energetics <=

    Nuclear Repulsion Energy =            249.8289079730574258
    One-Electron Energy =                -935.4697232745814972
    Two-Electron Energy =                 363.6861511924764727
    Total Energy =                       -321.9546641090475987
  Basis Set: (AUG-CC-PVTZ AUX)
    Blend: AUG-CC-PVTZ-RI
    Molecular point group: c1

    Geometry (in Angstrom), charge = 0, multiplicity = 1:

       Center              X                  Y                   Z               Mass
    ------------   -----------------  -----------------  -----------------  -----------------
         O            1.497465169518     1.067802850165     0.113814335914    15.994914619570
         O            1.193866969518    -1.159049649835    -0.272168664086    15.994914619570
         N           -1.305238030482    -1.177782649835     0.043969335914    14.003074004430
         C           -0.690775630482     0.131686150165     0.404398335914    12.000000000000
         C           -1.387720030482     1.300794350165    -0.281391664086    12.000000000000
         C            0.821887969518     0.017730350165     0.040012335914    12.000000000000
         H           -0.769028030482     0.239401350165     1.493070335914     1.007825032230
         H           -1.846321030482    -1.135256649835    -0.825255664086     1.007825032230
         H           -1.905526030482    -1.575511649835     0.770993335914     1.007825032230
         H           -2.437618030482     1.373202350165     0.014261335914     1.007825032230
         H           -0.876625030482     2.222248350165    -0.002521664086     1.007825032230
         H           -1.329460030482     1.193874350165    -1.368955664086     1.007825032230
         H           -0.451169030482    -1.772692649835    -0.120358664086     1.007825032230

  Basis Set: AUG-CC-PVTZ
    Blend: AUG-CC-PVTZ
  Basis Set: (AUG-CC-PVTZ AUX)
    Blend: AUG-CC-PVTZ-JKFIT
	 Reference Energy          =    -321.9546641090475987 [Eh]
	 Singles Energy            =      -0.0000000000000000 [Eh]
	 Same-Spin Energy          =      -0.3221612688379393 [Eh]
	 Opposite-Spin Energy      =      -1.0067066471769015 [Eh]
	 Correlation Energy        =      -1.3288679160148407 [Eh]
	 Total Energy              =    -323.2835320250624136 [Eh]

	 ================> DF-SCS-MP2 Energies <==================
	-----------------------------------------------------------
	 SCS Same-Spin Scale       =       0.3333333333333333 [-]
	 SCS Opposite-Spin Scale   =       1.2000000000000000 [-]
	 SCS Same-Spin Energy      =      -0.1073870896126464 [Eh]
	 SCS Opposite-Spin Energy  =      -1.2080479766122818 [Eh]
	 SCS Correlation Energy    =      -1.3154350662249281 [Eh]
	 SCS Total Energy          =    -323.2700991752725486 [Eh]
	-----------------------------------------------------------

  Dipole Moment: [D]
     X:    -9.7502      Y:    -2.8540      Z:     0.7181     Total:    10.1846

*** Psi4 exiting successfully. Buy a developer a beer!
