                               Psi4 1.3.2 release

  ==> Input File <==

--------------------------------------------------------------------------
#psi4
#
memory 32 gb

molecule  {
0 1
  O        1.5890300     1.0650170     0.1165590
  O        1.2943400    -1.1672870    -0.2725970
  N       -1.2047650    -1.1860200     0.0435410
  C       -0.5886430     0.1367320     0.4064510
  C       -1.2872470     1.2925570    -0.2818200
  C        1.1160670    -0.0068186    -0.0074472
  H       -0.6685550     0.2311640     1.4926420
  H       -1.7458480    -1.1434940    -0.8256840
  H       -1.8050530    -1.5837490     0.7705650
  H       -2.3371450     1.3649650     0.0138330
  H       -0.7761520     2.2140110    -0.0029500
  H       -1.2289870     1.1856370    -1.3693840
  H       -0.3506960    -1.7809300    -0.1207870
units angstrom
no_reorient  #important for SAPT in psi4, default
symmetry c1  #important for SAPT in psi4, default
}

set PROPERTIES_ORIGIN ["COM"]
properties('MP2/aug-cc-pvtz', properties = ['dipole'])
--------------------------------------------------------------------------

    Molecular point group: c1
  Charge       = 0
  Multiplicity = 1
  Basis Set: AUG-CC-PVTZ
    Blend: AUG-CC-PVTZ
  Basis Set: (AUG-CC-PVTZ AUX)
    Blend: AUG-CC-PVTZ-JKFIT

    Orbital Energies [Eh]
    ---------------------

    Doubly Occupied:

       1A    -20.505528     2A    -20.491443     3A    -15.694874
       4A    -11.338167     5A    -11.269712     6A    -11.233568
       7A     -1.405833     8A     -1.331710     9A     -1.306393
      10A     -1.028833    11A     -0.871108    12A     -0.787646
      13A     -0.766732    14A     -0.705834    15A     -0.662175
      16A     -0.623263    17A     -0.617679    18A     -0.585842
      19A     -0.560729    20A     -0.545722    21A     -0.520722
      22A     -0.436366    23A     -0.412555    24A     -0.344354

  @DF-RHF Final Energy:  -321.94147925897249

   => Energetics <=

    Nuclear Repulsion Energy =            249.3782403990883552
    One-Electron Energy =                -934.5458660855889548
    Two-Electron Energy =                 363.2261464275281355
    Total Energy =                       -321.9414792589724925
  Basis Set: (AUG-CC-PVTZ AUX)
    Blend: AUG-CC-PVTZ-RI
    Molecular point group: c1

    Geometry (in Angstrom), charge = 0, multiplicity = 1:

       Center              X                  Y                   Z               Mass
    ------------   -----------------  -----------------  -----------------  -----------------
         O            1.463829752151     1.072683246258     0.122420947932    15.994914619570
         O            1.169139752151    -1.159620753742    -0.266735052068    15.994914619570
         N           -1.329965247849    -1.178353753742     0.049402947932    14.003074004430
         C           -0.713843247849     0.144398246258     0.412312947932    12.000000000000
         C           -1.412447247849     1.300223246258    -0.275958052068    12.000000000000
         C            0.990866752151     0.000847646258    -0.001585252068    12.000000000000
         H           -0.793755247849     0.238830246258     1.498503947932     1.007825032230
         H           -1.871048247849    -1.135827753742    -0.819822052068     1.007825032230
         H           -1.930253247849    -1.576082753742     0.776426947932     1.007825032230
         H           -2.462345247849     1.372631246258     0.019694947932     1.007825032230
         H           -0.901352247849     2.221677246258     0.002911947932     1.007825032230
         H           -1.354187247849     1.193303246258    -1.363522052068     1.007825032230
         H           -0.475896247849    -1.773263753742    -0.114925052068     1.007825032230

  Basis Set: AUG-CC-PVTZ
    Blend: AUG-CC-PVTZ
  Basis Set: (AUG-CC-PVTZ AUX)
    Blend: AUG-CC-PVTZ-JKFIT
	 Reference Energy          =    -321.9414792589724925 [Eh]
	 Singles Energy            =      -0.0000000000000000 [Eh]
	 Same-Spin Energy          =      -0.3205069714090937 [Eh]
	 Opposite-Spin Energy      =      -1.0021086288571466 [Eh]
	 Correlation Energy        =      -1.3226156002662404 [Eh]
	 Total Energy              =    -323.2640948592387531 [Eh]

	 ================> DF-SCS-MP2 Energies <==================
	-----------------------------------------------------------
	 SCS Same-Spin Scale       =       0.3333333333333333 [-]
	 SCS Opposite-Spin Scale   =       1.2000000000000000 [-]
	 SCS Same-Spin Energy      =      -0.1068356571363646 [Eh]
	 SCS Opposite-Spin Energy  =      -1.2025303546285759 [Eh]
	 SCS Correlation Energy    =      -1.3093660117649406 [Eh]
	 SCS Total Energy          =    -323.2508452707374431 [Eh]
	-----------------------------------------------------------

  Dipole Moment: [D]
     X:    -8.1376      Y:    -3.0243      Z:     0.4420     Total:     8.6927

*** Psi4 exiting successfully. Buy a developer a beer!
