                               Psi4 1.3.2 release

  ==> Input File <==

--------------------------------------------------------------------------
#psi4
#
memory 32 gb

molecule  {
0 1
  O        1.5890300     1.0650170     0.1165590
  O        1.2943400    -1.1672870    -0.2725970
  N       -1.2047650    -1.1860200     0.0435410
  C       -0.5886430     0.1367320     0.4064510
  C       -1.2872470     1.2925570    -0.2818200
  C        0.9399314     0.0149067     0.1191652
  H       -0.6115015     0.2277440     1.4956289
  H       -1.7458480    -1.1434940    -0.8256840
  H       -1.8050530    -1.5837490     0.7705650
  H       -2.3371450     1.3649650     0.0138330
  H       -0.7761520     2.2140110    -0.0029500
  H       -1.2289870     1.1856370    -1.3693840
  H       -0.3506960    -1.7809300    -0.1207870
units angstrom
no_reorient  #important for SAPT in psi4, default
symmetry c1  #important for SAPT in psi4, default
}

set PROPERTIES_ORIGIN ["COM"]
properties('MP2/aug-cc-pvtz', properties = ['dipole'])
--------------------------------------------------------------------------

    Molecular point group: c1
  Charge       = 0
  Multiplicity = 1
  Basis Set: AUG-CC-PVTZ
    Blend: AUG-CC-PVTZ
  Basis Set: (AUG-CC-PVTZ AUX)
    Blend: AUG-CC-PVTZ-JKFIT

    Orbital Energies [Eh]
    ---------------------

    Doubly Occupied:

       1A    -20.484381     2A    -20.478218     3A    -15.709571
       4A    -11.328369     5A    -11.310641     6A    -11.252712
       7A     -1.365217     8A     -1.323557     9A     -1.251633
      10A     -1.059815    11A     -0.912562    12A     -0.803453
      13A     -0.778408    14A     -0.726110    15A     -0.673850
      16A     -0.627215    17A     -0.586620    18A     -0.571998
      19A     -0.561025    20A     -0.552523    21A     -0.510456
      22A     -0.403899    23A     -0.385579    24A     -0.378025

  @DF-RHF Final Energy:  -321.95094627944326

   => Energetics <=

    Nuclear Repulsion Energy =            249.6175284763880597
    One-Electron Energy =                -935.0652803347760482
    Two-Electron Energy =                 363.4968055789447021
    Total Energy =                       -321.9509462794432579
  Basis Set: (AUG-CC-PVTZ AUX)
    Blend: AUG-CC-PVTZ-RI
    Molecular point group: c1

    Geometry (in Angstrom), charge = 0, multiplicity = 1:

       Center              X                  Y                   Z               Mass
    ------------   -----------------  -----------------  -----------------  -----------------
         O            1.486919935858     1.069794267648     0.105324948365    15.994914619570
         O            1.192229935858    -1.162509732352    -0.283831051635    15.994914619570
         N           -1.306875064142    -1.181242732352     0.032306948365    14.003074004430
         C           -0.690753064142     0.141509267648     0.395216948365    12.000000000000
         C           -1.389357064142     1.297334267648    -0.293054051635    12.000000000000
         C            0.837821335858     0.019683967648     0.107931148365    12.000000000000
         H           -0.713611564142     0.232521267648     1.484394848365     1.007825032230
         H           -1.847958064142    -1.138716732352    -0.836918051635     1.007825032230
         H           -1.907163064142    -1.578971732352     0.759330948365     1.007825032230
         H           -2.439255064142     1.369742267648     0.002598948365     1.007825032230
         H           -0.878262064142     2.218788267648    -0.014184051635     1.007825032230
         H           -1.331097064142     1.190414267648    -1.380618051635     1.007825032230
         H           -0.452806064142    -1.776152732352    -0.132021051635     1.007825032230

  Basis Set: AUG-CC-PVTZ
    Blend: AUG-CC-PVTZ
  Basis Set: (AUG-CC-PVTZ AUX)
    Blend: AUG-CC-PVTZ-JKFIT
	 Reference Energy          =    -321.9509462794432579 [Eh]
	 Singles Energy            =      -0.0000000000000000 [Eh]
	 Same-Spin Energy          =      -0.3223238604394841 [Eh]
	 Opposite-Spin Energy      =      -1.0070716347581539 [Eh]
	 Correlation Energy        =      -1.3293954951976379 [Eh]
	 Total Energy              =    -323.2803417746408741 [Eh]

	 ================> DF-SCS-MP2 Energies <==================
	-----------------------------------------------------------
	 SCS Same-Spin Scale       =       0.3333333333333333 [-]
	 SCS Opposite-Spin Scale   =       1.2000000000000000 [-]
	 SCS Same-Spin Energy      =      -0.1074412868131614 [Eh]
	 SCS Opposite-Spin Energy  =      -1.2084859617097845 [Eh]
	 SCS Correlation Energy    =      -1.3159272485229458 [Eh]
	 SCS Total Energy          =    -323.2668735279661973 [Eh]
	-----------------------------------------------------------

  Dipole Moment: [D]
     X:    -9.6588      Y:    -2.6467      Z:     0.7630     Total:    10.0439

*** Psi4 exiting successfully. Buy a developer a beer!
