                               Psi4 1.3.2 release

  ==> Input File <==

--------------------------------------------------------------------------
#psi4
#
memory 32 gb

molecule  {
0 1
  O        1.5890300     1.0650170     0.1165590
  O        1.2943400    -1.1672870    -0.2725970
  N       -1.2047650    -1.1860200     0.0435410
  C       -0.6296179     0.0487630     0.3823158
  C       -1.2872470     1.2925570    -0.2818200
  C        0.9223610     0.0094930     0.0395840
  H       -0.6685550     0.2311640     1.4926420
  H       -1.7458480    -1.1434940    -0.8256840
  H       -1.8050530    -1.5837490     0.7705650
  H       -2.3371450     1.3649650     0.0138330
  H       -0.7761520     2.2140110    -0.0029500
  H       -1.2289870     1.1856370    -1.3693840
  H       -0.3506960    -1.7809300    -0.1207870
units angstrom
no_reorient  #important for SAPT in psi4, default
symmetry c1  #important for SAPT in psi4, default
}

set PROPERTIES_ORIGIN ["COM"]
properties('MP2/aug-cc-pvtz', properties = ['dipole'])
--------------------------------------------------------------------------

    Molecular point group: c1
  Charge       = 0
  Multiplicity = 1
  Basis Set: AUG-CC-PVTZ
    Blend: AUG-CC-PVTZ
  Basis Set: (AUG-CC-PVTZ AUX)
    Blend: AUG-CC-PVTZ-JKFIT

    Orbital Energies [Eh]
    ---------------------

    Doubly Occupied:

       1A    -20.488980     2A    -20.474021     3A    -15.719373
       4A    -11.328786     5A    -11.305220     6A    -11.251192
       7A     -1.381500     8A     -1.336290     9A     -1.254429
      10A     -1.047705    11A     -0.913178    12A     -0.821329
      13A     -0.795254    14A     -0.739152    15A     -0.673450
      16A     -0.620397    17A     -0.579798    18A     -0.569032
      19A     -0.556890    20A     -0.548300    21A     -0.502640
      22A     -0.404981    23A     -0.382039    24A     -0.377628

  @DF-RHF Final Energy:  -321.94389980443651

   => Energetics <=

    Nuclear Repulsion Energy =            250.1514889501551124
    One-Electron Energy =                -936.0476445319121694
    Two-Electron Energy =                 363.9522557773205449
    Total Energy =                       -321.9438998044365121
  Basis Set: (AUG-CC-PVTZ AUX)
    Blend: AUG-CC-PVTZ-RI
    Molecular point group: c1

    Geometry (in Angstrom), charge = 0, multiplicity = 1:

       Center              X                  Y                   Z               Mass
    ------------   -----------------  -----------------  -----------------  -----------------
         O            1.495455178534     1.082339745055     0.119335499724    15.994914619570
         O            1.200765178534    -1.149964254945    -0.269820500276    15.994914619570
         N           -1.298339821466    -1.168697254945     0.046317499724    14.003074004430
         C           -0.723192721466     0.066085745055     0.385092299724    12.000000000000
         C           -1.380821821466     1.309879745055    -0.279043500276    12.000000000000
         C            0.828786178534     0.026815745055     0.042360499724    12.000000000000
         H           -0.762129821466     0.248486745055     1.495418499724     1.007825032230
         H           -1.839422821466    -1.126171254945    -0.822907500276     1.007825032230
         H           -1.898627821466    -1.566426254945     0.773341499724     1.007825032230
         H           -2.430719821466     1.382287745055     0.016609499724     1.007825032230
         H           -0.869726821466     2.231333745055    -0.000173500276     1.007825032230
         H           -1.322561821466     1.202959745055    -1.366607500276     1.007825032230
         H           -0.444270821466    -1.763607254945    -0.118010500276     1.007825032230

  Basis Set: AUG-CC-PVTZ
    Blend: AUG-CC-PVTZ
  Basis Set: (AUG-CC-PVTZ AUX)
    Blend: AUG-CC-PVTZ-JKFIT
	 Reference Energy          =    -321.9438998044365121 [Eh]
	 Singles Energy            =      -0.0000000000000000 [Eh]
	 Same-Spin Energy          =      -0.3229785944655950 [Eh]
	 Opposite-Spin Energy      =      -1.0072848633785816 [Eh]
	 Correlation Energy        =      -1.3302634578441765 [Eh]
	 Total Energy              =    -323.2741632622806947 [Eh]

	 ================> DF-SCS-MP2 Energies <==================
	-----------------------------------------------------------
	 SCS Same-Spin Scale       =       0.3333333333333333 [-]
	 SCS Opposite-Spin Scale   =       1.2000000000000000 [-]
	 SCS Same-Spin Energy      =      -0.1076595314885317 [Eh]
	 SCS Opposite-Spin Energy  =      -1.2087418360542979 [Eh]
	 SCS Correlation Energy    =      -1.3164013675428294 [Eh]
	 SCS Total Energy          =    -323.2603011719793358 [Eh]
	-----------------------------------------------------------

  Dipole Moment: [D]
     X:    -9.7289      Y:    -3.0499      Z:     0.6672     Total:    10.2175

*** Psi4 exiting successfully. Buy a developer a beer!
