                               Psi4 1.3.2 release

  ==> Input File <==

--------------------------------------------------------------------------
#psi4
#
memory 32 gb

molecule  {
0 1
  O        1.5890300     1.0650170     0.1165590
  O        1.2943400    -1.1672870    -0.2725970
  N       -1.2047650    -1.1860200     0.0435410
  C       -0.5886430     0.1367320     0.4064510
  C       -1.2872470     1.2925570    -0.2818200
  C        0.8639216     0.1943698     0.0886289
  H       -0.6685550     0.2311640     1.4926420
  H       -1.7458480    -1.1434940    -0.8256840
  H       -1.8050530    -1.5837490     0.7705650
  H       -2.3371450     1.3649650     0.0138330
  H       -0.7761520     2.2140110    -0.0029500
  H       -1.2289870     1.1856370    -1.3693840
  H       -0.3506960    -1.7809300    -0.1207870
units angstrom
no_reorient  #important for SAPT in psi4, default
symmetry c1  #important for SAPT in psi4, default
}

set PROPERTIES_ORIGIN ["COM"]
properties('MP2/aug-cc-pvtz', properties = ['dipole'])
--------------------------------------------------------------------------

    Molecular point group: c1
  Charge       = 0
  Multiplicity = 1
  Basis Set: AUG-CC-PVTZ
    Blend: AUG-CC-PVTZ
  Basis Set: (AUG-CC-PVTZ AUX)
    Blend: AUG-CC-PVTZ-JKFIT

    Orbital Energies [Eh]
    ---------------------

    Doubly Occupied:

       1A    -20.511939     2A    -20.445989     3A    -15.708085
       4A    -11.324562     5A    -11.319634     6A    -11.259159
       7A     -1.417673     8A     -1.335591     9A     -1.172012
      10A     -1.077608    11A     -0.921030    12A     -0.804128
      13A     -0.773927    14A     -0.748972    15A     -0.678122
      16A     -0.649154    17A     -0.601476    18A     -0.574374
      19A     -0.568026    20A     -0.561805    21A     -0.524297
      22A     -0.376093    23A     -0.368696    24A     -0.355859

  @DF-RHF Final Energy:  -321.90415150428828

   => Energetics <=

    Nuclear Repulsion Energy =            250.1352026894304572
    One-Electron Energy =                -935.9222864651071632
    Two-Electron Energy =                 363.8829322713884267
    Total Energy =                       -321.9041515042882793
  Basis Set: (AUG-CC-PVTZ AUX)
    Blend: AUG-CC-PVTZ-RI
    Molecular point group: c1

    Geometry (in Angstrom), charge = 0, multiplicity = 1:

       Center              X                  Y                   Z               Mass
    ------------   -----------------  -----------------  -----------------  -----------------
         O            1.497808681776     1.045571244671     0.109473802989    15.994914619570
         O            1.203118681776    -1.186732755329    -0.279682197011    15.994914619570
         N           -1.295986318224    -1.205465755329     0.036455802989    14.003074004430
         C           -0.679864318224     0.117286244671     0.399365802989    12.000000000000
         C           -1.378468318224     1.273111244671    -0.288905197011    12.000000000000
         C            0.772700281776     0.174924044671     0.081543702989    12.000000000000
         H           -0.759776318224     0.211718244671     1.485556802989     1.007825032230
         H           -1.837069318224    -1.162939755329    -0.832769197011     1.007825032230
         H           -1.896274318224    -1.603194755329     0.763479802989     1.007825032230
         H           -2.428366318224     1.345519244671     0.006747802989     1.007825032230
         H           -0.867373318224     2.194565244671    -0.010035197011     1.007825032230
         H           -1.320208318224     1.166191244671    -1.376469197011     1.007825032230
         H           -0.441917318224    -1.800375755329    -0.127872197011     1.007825032230

  Basis Set: AUG-CC-PVTZ
    Blend: AUG-CC-PVTZ
  Basis Set: (AUG-CC-PVTZ AUX)
    Blend: AUG-CC-PVTZ-JKFIT
	 Reference Energy          =    -321.9041515042882793 [Eh]
	 Singles Energy            =      -0.0000000000000000 [Eh]
	 Same-Spin Energy          =      -0.3234354573590092 [Eh]
	 Opposite-Spin Energy      =      -1.0106081256083486 [Eh]
	 Correlation Energy        =      -1.3340435829673578 [Eh]
	 Total Energy              =    -323.2381950872556331 [Eh]

	 ================> DF-SCS-MP2 Energies <==================
	-----------------------------------------------------------
	 SCS Same-Spin Scale       =       0.3333333333333333 [-]
	 SCS Opposite-Spin Scale   =       1.2000000000000000 [-]
	 SCS Same-Spin Energy      =      -0.1078118191196697 [Eh]
	 SCS Opposite-Spin Energy  =      -1.2127297507300183 [Eh]
	 SCS Correlation Energy    =      -1.3205415698496881 [Eh]
	 SCS Total Energy          =    -323.2246930741379742 [Eh]
	-----------------------------------------------------------

  Dipole Moment: [D]
     X:    -9.8285      Y:    -1.1218      Z:     1.0755     Total:     9.9506

*** Psi4 exiting successfully. Buy a developer a beer!
