                               Psi4 1.3.2 release

  ==> Input File <==

--------------------------------------------------------------------------
#psi4
#
memory 32 gb

molecule  {
0 1
  O        1.5890300     1.0650170     0.1165590
  O        1.2943400    -1.1672870    -0.2725970
  N       -1.1939729    -1.1761748    -0.0068699
  C       -0.5886430     0.1367320     0.4064510
  C       -1.2872470     1.2925570    -0.2818200
  C        0.9223610     0.0094930     0.0395840
  H       -0.6513608     0.2651472     1.4902823
  H       -1.7458480    -1.1434940    -0.8256840
  H       -1.8050530    -1.5837490     0.7705650
  H       -2.3371450     1.3649650     0.0138330
  H       -0.7761520     2.2140110    -0.0029500
  H       -1.2289870     1.1856370    -1.3693840
  H       -0.3506960    -1.7809300    -0.1207870
units angstrom
no_reorient  #important for SAPT in psi4, default
symmetry c1  #important for SAPT in psi4, default
}

set PROPERTIES_ORIGIN ["COM"]
properties('MP2/aug-cc-pvtz', properties = ['dipole'])
--------------------------------------------------------------------------

    Molecular point group: c1
  Charge       = 0
  Multiplicity = 1
  Basis Set: AUG-CC-PVTZ
    Blend: AUG-CC-PVTZ
  Basis Set: (AUG-CC-PVTZ AUX)
    Blend: AUG-CC-PVTZ-JKFIT

    Orbital Energies [Eh]
    ---------------------

    Doubly Occupied:

       1A    -20.488639     2A    -20.472331     3A    -15.711212
       4A    -11.327028     5A    -11.311223     6A    -11.250958
       7A     -1.367944     8A     -1.321911     9A     -1.254187
      10A     -1.060466    11A     -0.911805    12A     -0.795150
      13A     -0.792187    14A     -0.721303    15A     -0.681658
      16A     -0.626731    17A     -0.583571    18A     -0.571390
      19A     -0.558684    20A     -0.553922    21A     -0.511626
      22A     -0.406595    23A     -0.383823    24A     -0.376756

  @DF-RHF Final Energy:  -321.95090741681798

   => Energetics <=

    Nuclear Repulsion Energy =            250.0482341622348770
    One-Electron Energy =                -935.9160803345546356
    Two-Electron Energy =                 363.9169387555018034
    Total Energy =                       -321.9509074168179836
  Basis Set: (AUG-CC-PVTZ AUX)
    Blend: AUG-CC-PVTZ-RI
    Molecular point group: c1

    Geometry (in Angstrom), charge = 0, multiplicity = 1:

       Center              X                  Y                   Z               Mass
    ------------   -----------------  -----------------  -----------------  -----------------
         O            1.488041732934     1.068552297646     0.124037063372    15.994914619570
         O            1.193351732934    -1.163751702354    -0.265118936628    15.994914619570
         N           -1.294961167066    -1.172639502354     0.000608163372    14.003074004430
         C           -0.689631267066     0.140267297646     0.413929063372    12.000000000000
         C           -1.388235267066     1.296092297646    -0.274341936628    12.000000000000
         C            0.821372732934     0.013028297646     0.047062063372    12.000000000000
         H           -0.752349067066     0.268682497646     1.497760363372     1.007825032230
         H           -1.846836267066    -1.139958702354    -0.818205936628     1.007825032230
         H           -1.906041267066    -1.580213702354     0.778043063372     1.007825032230
         H           -2.438133267066     1.368500297646     0.021311063372     1.007825032230
         H           -0.877140267066     2.217546297646     0.004528063372     1.007825032230
         H           -1.329975267066     1.189172297646    -1.361905936628     1.007825032230
         H           -0.451684267066    -1.777394702354    -0.113308936628     1.007825032230

  Basis Set: AUG-CC-PVTZ
    Blend: AUG-CC-PVTZ
  Basis Set: (AUG-CC-PVTZ AUX)
    Blend: AUG-CC-PVTZ-JKFIT
	 Reference Energy          =    -321.9509074168179836 [Eh]
	 Singles Energy            =      -0.0000000000000000 [Eh]
	 Same-Spin Energy          =      -0.3221226489617562 [Eh]
	 Opposite-Spin Energy      =      -1.0067911739115718 [Eh]
	 Correlation Energy        =      -1.3289138228733282 [Eh]
	 Total Energy              =    -323.2798212396913300 [Eh]

	 ================> DF-SCS-MP2 Energies <==================
	-----------------------------------------------------------
	 SCS Same-Spin Scale       =       0.3333333333333333 [-]
	 SCS Opposite-Spin Scale   =       1.2000000000000000 [-]
	 SCS Same-Spin Energy      =      -0.1073742163205854 [Eh]
	 SCS Opposite-Spin Energy  =      -1.2081494086938862 [Eh]
	 SCS Correlation Energy    =      -1.3155236250144715 [Eh]
	 SCS Total Energy          =    -323.2664310418324476 [Eh]
	-----------------------------------------------------------

  Dipole Moment: [D]
     X:    -9.7372      Y:    -2.8509      Z:     0.7336     Total:    10.1725

*** Psi4 exiting successfully. Buy a developer a beer!
