                               Psi4 1.4a3.dev225

  ==> Input File <==

--------------------------------------------------------------------------
#psi4
#
memory 32 gb

molecule  {
0 1
  O        1.5890300     1.0650170     0.1165590
  O        1.2943400    -1.1672870    -0.2725970
  N       -1.2047650    -1.1860200     0.0435410
  C       -0.5886430     0.1367320     0.4064510
  C       -1.2872470     1.2925570    -0.2818200
  C        0.9223610     0.0094930     0.0395840
  H       -0.6649001     0.2268450     1.4429632
  H       -1.7458480    -1.1434940    -0.8256840
  H       -1.8050530    -1.5837490     0.7705650
  H       -2.3371450     1.3649650     0.0138330
  H       -0.7761520     2.2140110    -0.0029500
  H       -1.2289870     1.1856370    -1.3693840
  H       -0.3506960    -1.7809300    -0.1207870
units angstrom
no_reorient  #important for SAPT in psi4, default
symmetry c1  #important for SAPT in psi4, default
}

set PROPERTIES_ORIGIN ["COM"]
properties('MP2/aug-cc-pvtz', properties = ['dipole'])
--------------------------------------------------------------------------

    Molecular point group: c1
  Charge       = 0
  Multiplicity = 1
  Basis Set: AUG-CC-PVTZ
    Blend: AUG-CC-PVTZ
  Basis Set: (AUG-CC-PVTZ AUX)
    Blend: AUG-CC-PVTZ-JKFIT

    Orbital Energies [Eh]
    ---------------------

    Doubly Occupied:

       1A    -20.489498     2A    -20.473131     3A    -15.709444
       4A    -11.327816     5A    -11.305508     6A    -11.251347
       7A     -1.367628     8A     -1.321574     9A     -1.254840
      10A     -1.062519    11A     -0.913212    12A     -0.808645
      13A     -0.779463    14A     -0.724893    15A     -0.680927
      16A     -0.630027    17A     -0.583176    18A     -0.571715
      19A     -0.561465    20A     -0.555430    21A     -0.514262
      22A     -0.407209    23A     -0.384802    24A     -0.377360

  @DF-RHF Final Energy:  -321.95431386034585

   => Energetics <=

    Nuclear Repulsion Energy =            250.0814302978975547
    One-Electron Energy =                -935.9597003109307707
    Two-Electron Energy =                 363.9239561526873672
    Total Energy =                       -321.9543138603458488
  Basis Set: (AUG-CC-PVTZ AUX)
    Blend: AUG-CC-PVTZ-RI
    Molecular point group: c1

    Geometry (in Angstrom), charge = 0, multiplicity = 1:

       Center              X                  Y                   Z               Mass
    ------------   -----------------  -----------------  -----------------  -----------------
         O            1.489892065511     1.070533988614     0.116645313231    15.994914619570
         O            1.195202065511    -1.161770011386    -0.272510686769    15.994914619570
         N           -1.303902934489    -1.180503011386     0.043627313231    14.003074004430
         C           -0.687780934489     0.142248988614     0.406537313231    12.000000000000
         C           -1.386384934489     1.298073988614    -0.281733686769    12.000000000000
         C            0.823223065511     0.015009988614     0.039670313231    12.000000000000
         H           -0.764038034489     0.232361988614     1.443049513231     1.007825032230
         H           -1.844985934489    -1.137977011386    -0.825597686769     1.007825032230
         H           -1.904190934489    -1.578232011386     0.770651313231     1.007825032230
         H           -2.436282934489     1.370481988614     0.013919313231     1.007825032230
         H           -0.875289934489     2.219527988614    -0.002863686769     1.007825032230
         H           -1.328124934489     1.191153988614    -1.369297686769     1.007825032230
         H           -0.449833934489    -1.775413011386    -0.120700686769     1.007825032230

  Basis Set: AUG-CC-PVTZ
    Blend: AUG-CC-PVTZ
  Basis Set: (AUG-CC-PVTZ AUX)
    Blend: AUG-CC-PVTZ-JKFIT
	 Reference Energy          =    -321.9543138603458488 [Eh]
	 Singles Energy            =      -0.0000000000000000 [Eh]
	 Same-Spin Energy          =      -0.3220673856526590 [Eh]
	 Opposite-Spin Energy      =      -1.0064008229650643 [Eh]
	 Correlation Energy        =      -1.3284682086177233 [Eh]
	 Total Energy              =    -323.2827820689635701 [Eh]

	 ================> DF-SCS-MP2 Energies <==================
	-----------------------------------------------------------
	 SCS Same-Spin Scale       =       0.3333333333333333 [-]
	 SCS Opposite-Spin Scale   =       1.2000000000000000 [-]
	 SCS Same-Spin Energy      =      -0.1073557952175530 [Eh]
	 SCS Opposite-Spin Energy  =      -1.2076809875580772 [Eh]
	 SCS Correlation Energy    =      -1.3150367827756302 [Eh]
	 SCS Total Energy          =    -323.2693506431214701 [Eh]
	-----------------------------------------------------------

  Dipole Moment: [D]
     X:    -9.7124      Y:    -2.8371      Z:     0.7236     Total:    10.1441

*** Psi4 exiting successfully. Buy a developer a beer!
