                               Psi4 1.3.2 release

  ==> Input File <==

--------------------------------------------------------------------------
#psi4
#
memory 32 gb

molecule  {
0 1
  O        1.5890300     1.0650170     0.1165590
  O        1.2943400    -1.1672870    -0.2725970
  N       -1.2220166    -1.1735196     0.0282165
  C       -0.5886430     0.1367320     0.4064510
  C       -1.3037116     1.2753988    -0.2934138
  C        0.9223610     0.0094930     0.0395840
  H       -0.6685550     0.2311640     1.4926420
  H       -1.7458480    -1.1434940    -0.8256840
  H       -1.8050530    -1.5837490     0.7705650
  H       -2.3371450     1.3649650     0.0138330
  H       -0.7761520     2.2140110    -0.0029500
  H       -1.2289870     1.1856370    -1.3693840
  H       -0.3506960    -1.7809300    -0.1207870
units angstrom
no_reorient  #important for SAPT in psi4, default
symmetry c1  #important for SAPT in psi4, default
}

set PROPERTIES_ORIGIN ["COM"]
properties('MP2/aug-cc-pvtz', properties = ['dipole'])
--------------------------------------------------------------------------

    Molecular point group: c1
  Charge       = 0
  Multiplicity = 1
  Basis Set: AUG-CC-PVTZ
    Blend: AUG-CC-PVTZ
  Basis Set: (AUG-CC-PVTZ AUX)
    Blend: AUG-CC-PVTZ-JKFIT

    Orbital Energies [Eh]
    ---------------------

    Doubly Occupied:

       1A    -20.490917     2A    -20.473857     3A    -15.707582
       4A    -11.328878     5A    -11.311660     6A    -11.250717
       7A     -1.367498     8A     -1.321698     9A     -1.255662
      10A     -1.059816    11A     -0.911401    12A     -0.805445
      13A     -0.777354    14A     -0.725566    15A     -0.676879
      16A     -0.630874    17A     -0.583278    18A     -0.570994
      19A     -0.560690    20A     -0.549628    21A     -0.513874
      22A     -0.408125    23A     -0.385548    24A     -0.378152

  @DF-RHF Final Energy:  -321.95339803287544

   => Energetics <=

    Nuclear Repulsion Energy =            249.7616035541064150
    One-Electron Energy =                -935.3378193221376478
    Two-Electron Energy =                 363.6228177351558202
    Total Energy =                       -321.9533980328754410
  Basis Set: (AUG-CC-PVTZ AUX)
    Blend: AUG-CC-PVTZ-RI
    Molecular point group: c1

    Geometry (in Angstrom), charge = 0, multiplicity = 1:

       Center              X                  Y                   Z               Mass
    ------------   -----------------  -----------------  -----------------  -----------------
         O            1.494865065805     1.070831599712     0.120055263660    15.994914619570
         O            1.200175065805    -1.161472400288    -0.269100736340    15.994914619570
         N           -1.316181534195    -1.167705000288     0.031712763660    14.003074004430
         C           -0.682807934195     0.142546599712     0.409947263660    12.000000000000
         C           -1.397876534195     1.281213399712    -0.289917536340    12.000000000000
         C            0.828196065805     0.015307599712     0.043080263660    12.000000000000
         H           -0.762719934195     0.236978599712     1.496138263660     1.007825032230
         H           -1.840012934195    -1.137679400288    -0.822187736340     1.007825032230
         H           -1.899217934195    -1.577934400288     0.774061263660     1.007825032230
         H           -2.431309934195     1.370779599712     0.017329263660     1.007825032230
         H           -0.870316934195     2.219825599712     0.000546263660     1.007825032230
         H           -1.323151934195     1.191451599712    -1.365887736340     1.007825032230
         H           -0.444860934195    -1.775115400288    -0.117290736340     1.007825032230

  Basis Set: AUG-CC-PVTZ
    Blend: AUG-CC-PVTZ
  Basis Set: (AUG-CC-PVTZ AUX)
    Blend: AUG-CC-PVTZ-JKFIT
	 Reference Energy          =    -321.9533980328754410 [Eh]
	 Singles Energy            =      -0.0000000000000000 [Eh]
	 Same-Spin Energy          =      -0.3223381080742339 [Eh]
	 Opposite-Spin Energy      =      -1.0070200340183941 [Eh]
	 Correlation Energy        =      -1.3293581420926279 [Eh]
	 Total Energy              =    -323.2827561749680854 [Eh]

	 ================> DF-SCS-MP2 Energies <==================
	-----------------------------------------------------------
	 SCS Same-Spin Scale       =       0.3333333333333333 [-]
	 SCS Opposite-Spin Scale   =       1.2000000000000000 [-]
	 SCS Same-Spin Energy      =      -0.1074460360247446 [Eh]
	 SCS Opposite-Spin Energy  =      -1.2084240408220730 [Eh]
	 SCS Correlation Energy    =      -1.3158700768468177 [Eh]
	 SCS Total Energy          =    -323.2692681097222476 [Eh]
	-----------------------------------------------------------

  Dipole Moment: [D]
     X:    -9.6522      Y:    -2.8292      Z:     0.7173     Total:    10.0839

*** Psi4 exiting successfully. Buy a developer a beer!
