                               Psi4 1.3.2 release

  ==> Input File <==

--------------------------------------------------------------------------
#psi4
#
memory 32 gb

molecule  {
0 1
  O        1.5890300     1.0650170     0.1165590
  O        1.2943400    -1.1672870    -0.2725970
  N       -1.2047650    -1.1860200     0.0435410
  C       -0.5886430     0.1367320     0.4064510
  C       -1.2872470     1.2925570    -0.2818200
  C        0.7286550     0.0258046     0.0866152
  H       -0.6685550     0.2311640     1.4926420
  H       -1.7458480    -1.1434940    -0.8256840
  H       -1.8050530    -1.5837490     0.7705650
  H       -2.3371450     1.3649650     0.0138330
  H       -0.7761520     2.2140110    -0.0029500
  H       -1.2289870     1.1856370    -1.3693840
  H       -0.3506960    -1.7809300    -0.1207870
units angstrom
no_reorient  #important for SAPT in psi4, default
symmetry c1  #important for SAPT in psi4, default
}

set PROPERTIES_ORIGIN ["COM"]
properties('MP2/aug-cc-pvtz', properties = ['dipole'])
--------------------------------------------------------------------------

    Molecular point group: c1
  Charge       = 0
  Multiplicity = 1
  Basis Set: AUG-CC-PVTZ
    Blend: AUG-CC-PVTZ
  Basis Set: (AUG-CC-PVTZ AUX)
    Blend: AUG-CC-PVTZ-JKFIT

    Orbital Energies [Eh]
    ---------------------

    Doubly Occupied:

       1A    -20.488282     2A    -20.470816     3A    -15.719638
       4A    -11.334146     5A    -11.327105     6A    -11.265559
       7A     -1.366821     8A     -1.290891     9A     -1.196242
      10A     -1.096704    11A     -0.955093    12A     -0.824373
      13A     -0.789135    14A     -0.757584    15A     -0.691669
      16A     -0.632911    17A     -0.588457    18A     -0.577690
      19A     -0.565008    20A     -0.523044    21A     -0.472704
      22A     -0.414887    23A     -0.368090    24A     -0.353080

  @DF-RHF Final Energy:  -321.88374981685581

   => Energetics <=

    Nuclear Repulsion Energy =            250.3252552305390282
    One-Electron Energy =                -936.2781532306843246
    Two-Electron Energy =                 364.0691481832894851
    Total Energy =                       -321.8837498168558113
  Basis Set: (AUG-CC-PVTZ AUX)
    Blend: AUG-CC-PVTZ-RI
    Molecular point group: c1

    Geometry (in Angstrom), charge = 0, multiplicity = 1:

       Center              X                  Y                   Z               Mass
    ------------   -----------------  -----------------  -----------------  -----------------
         O            1.516037109826     1.068286967694     0.109745167727    15.994914619570
         O            1.221347109826    -1.164017032306    -0.279410832273    15.994914619570
         N           -1.277757890174    -1.182750032306     0.036727167727    14.003074004430
         C           -0.661635890174     0.140001967694     0.399637167727    12.000000000000
         C           -1.360239890174     1.295826967694    -0.288633832273    12.000000000000
         C            0.655662109826     0.029074567694     0.079801367727    12.000000000000
         H           -0.741547890174     0.234433967694     1.485828167727     1.007825032230
         H           -1.818840890174    -1.140224032306    -0.832497832273     1.007825032230
         H           -1.878045890174    -1.580479032306     0.763751167727     1.007825032230
         H           -2.410137890174     1.368234967694     0.007019167727     1.007825032230
         H           -0.849144890174     2.217280967694    -0.009763832273     1.007825032230
         H           -1.301979890174     1.188906967694    -1.376197832273     1.007825032230
         H           -0.423688890174    -1.777660032306    -0.127600832273     1.007825032230

  Basis Set: AUG-CC-PVTZ
    Blend: AUG-CC-PVTZ
  Basis Set: (AUG-CC-PVTZ AUX)
    Blend: AUG-CC-PVTZ-JKFIT
	 Reference Energy          =    -321.8837498168558113 [Eh]
	 Singles Energy            =      -0.0000000000000000 [Eh]
	 Same-Spin Energy          =      -0.3284654394944037 [Eh]
	 Opposite-Spin Energy      =      -1.0200322550546193 [Eh]
	 Correlation Energy        =      -1.3484976945490228 [Eh]
	 Total Energy              =    -323.2322475114048075 [Eh]

	 ================> DF-SCS-MP2 Energies <==================
	-----------------------------------------------------------
	 SCS Same-Spin Scale       =       0.3333333333333333 [-]
	 SCS Opposite-Spin Scale   =       1.2000000000000000 [-]
	 SCS Same-Spin Energy      =      -0.1094884798314679 [Eh]
	 SCS Opposite-Spin Energy  =      -1.2240387060655431 [Eh]
	 SCS Correlation Energy    =      -1.3335271858970110 [Eh]
	 SCS Total Energy          =    -323.2172770027528372 [Eh]
	-----------------------------------------------------------

  Dipole Moment: [D]
     X:   -10.5008      Y:    -2.6468      Z:     0.8657     Total:    10.8638

*** Psi4 exiting successfully. Buy a developer a beer!
