                               Psi4 1.3.2 release

  ==> Input File <==

--------------------------------------------------------------------------
#psi4
#
memory 32 gb

molecule  {
0 1
  O        1.5890300     1.0650170     0.1165590
  O        1.2735898    -1.1745119    -0.2692968
  N       -1.2047650    -1.1860200     0.0435410
  C       -0.5917295     0.1100506     0.4019821
  C       -1.2872470     1.2925570    -0.2818200
  C        0.9223610     0.0094930     0.0395840
  H       -0.6685550     0.2311640     1.4926420
  H       -1.7458480    -1.1434940    -0.8256840
  H       -1.8050530    -1.5837490     0.7705650
  H       -2.3371450     1.3649650     0.0138330
  H       -0.7761520     2.2140110    -0.0029500
  H       -1.2289870     1.1856370    -1.3693840
  H       -0.3506960    -1.7809300    -0.1207870
units angstrom
no_reorient  #important for SAPT in psi4, default
symmetry c1  #important for SAPT in psi4, default
}

set PROPERTIES_ORIGIN ["COM"]
properties('MP2/aug-cc-pvtz', properties = ['dipole'])
--------------------------------------------------------------------------

    Molecular point group: c1
  Charge       = 0
  Multiplicity = 1
  Basis Set: AUG-CC-PVTZ
    Blend: AUG-CC-PVTZ
  Basis Set: (AUG-CC-PVTZ AUX)
    Blend: AUG-CC-PVTZ-JKFIT

    Orbital Energies [Eh]
    ---------------------

    Doubly Occupied:

       1A    -20.490300     2A    -20.474818     3A    -15.710728
       4A    -11.328787     5A    -11.308405     6A    -11.251154
       7A     -1.370821     8A     -1.325084     9A     -1.256937
      10A     -1.055045    11A     -0.910465    12A     -0.809245
      13A     -0.782295    14A     -0.729235    15A     -0.675621
      16A     -0.626272    17A     -0.582537    18A     -0.569277
      19A     -0.561178    20A     -0.552613    21A     -0.509901
      22A     -0.408359    23A     -0.385235    24A     -0.379191

  @DF-RHF Final Energy:  -321.95457057410192

   => Energetics <=

    Nuclear Repulsion Energy =            250.1197611354717196
    One-Electron Energy =                -936.0416556956707836
    Two-Electron Energy =                 363.9673239860970853
    Total Energy =                       -321.9545705741019219
  Basis Set: (AUG-CC-PVTZ AUX)
    Blend: AUG-CC-PVTZ-RI
    Molecular point group: c1

    Geometry (in Angstrom), charge = 0, multiplicity = 1:

       Center              X                  Y                   Z               Mass
    ------------   -----------------  -----------------  -----------------  -----------------
         O            1.494076556151     1.075378423300     0.116092495277    15.994914619570
         O            1.178636356151    -1.164150476700    -0.269763304723    15.994914619570
         N           -1.299718443849    -1.175658576700     0.043074495277    14.003074004430
         C           -0.686682943849     0.120412023300     0.401515595277    12.000000000000
         C           -1.382200443849     1.302918423300    -0.282286504723    12.000000000000
         C            0.827407556151     0.019854423300     0.039117495277    12.000000000000
         H           -0.763508443849     0.241525423300     1.492175495277     1.007825032230
         H           -1.840801443849    -1.133132576700    -0.826150504723     1.007825032230
         H           -1.900006443849    -1.573387576700     0.770098495277     1.007825032230
         H           -2.432098443849     1.375326423300     0.013366495277     1.007825032230
         H           -0.871105443849     2.224372423300    -0.003416504723     1.007825032230
         H           -1.323940443849     1.195998423300    -1.369850504723     1.007825032230
         H           -0.445649443849    -1.770568576700    -0.121253504723     1.007825032230

  Basis Set: AUG-CC-PVTZ
    Blend: AUG-CC-PVTZ
  Basis Set: (AUG-CC-PVTZ AUX)
    Blend: AUG-CC-PVTZ-JKFIT
	 Reference Energy          =    -321.9545705741019219 [Eh]
	 Singles Energy            =      -0.0000000000000000 [Eh]
	 Same-Spin Energy          =      -0.3222991330573097 [Eh]
	 Opposite-Spin Energy      =      -1.0067433760980866 [Eh]
	 Correlation Energy        =      -1.3290425091553963 [Eh]
	 Total Energy              =    -323.2836130832573076 [Eh]

	 ================> DF-SCS-MP2 Energies <==================
	-----------------------------------------------------------
	 SCS Same-Spin Scale       =       0.3333333333333333 [-]
	 SCS Opposite-Spin Scale   =       1.2000000000000000 [-]
	 SCS Same-Spin Energy      =      -0.1074330443524366 [Eh]
	 SCS Opposite-Spin Energy  =      -1.2080920513177038 [Eh]
	 SCS Correlation Energy    =      -1.3155250956701403 [Eh]
	 SCS Total Energy          =    -323.2700956697720471 [Eh]
	-----------------------------------------------------------

  Dipole Moment: [D]
     X:    -9.6357      Y:    -2.8799      Z:     0.6974     Total:    10.0810

*** Psi4 exiting successfully. Buy a developer a beer!
