                               Psi4 1.3.2 release

  ==> Input File <==

--------------------------------------------------------------------------
#psi4
#
memory 32 gb

molecule  {
0 1
  O        1.5890300     1.0650170     0.1165590
  O        1.2943400    -1.1672870    -0.2725970
  N       -1.2047650    -1.1860200     0.0435410
  C       -0.5886430     0.1367320     0.4064510
  C       -1.2872470     1.2925570    -0.2818200
  C        0.9223610     0.0094930     0.0395840
  H       -0.6685550     0.2311640     1.4926420
  H       -1.8514500    -1.1351943    -0.9953287
  H       -1.8050530    -1.5837490     0.7705650
  H       -2.3371450     1.3649650     0.0138330
  H       -0.7761520     2.2140110    -0.0029500
  H       -1.2289870     1.1856370    -1.3693840
  H       -0.3506960    -1.7809300    -0.1207870
units angstrom
no_reorient  #important for SAPT in psi4, default
symmetry c1  #important for SAPT in psi4, default
}

set PROPERTIES_ORIGIN ["COM"]
properties('MP2/aug-cc-pvtz', properties = ['dipole'])
--------------------------------------------------------------------------

    Molecular point group: c1
  Charge       = 0
  Multiplicity = 1
  Basis Set: AUG-CC-PVTZ
    Blend: AUG-CC-PVTZ
  Basis Set: (AUG-CC-PVTZ AUX)
    Blend: AUG-CC-PVTZ-JKFIT

    Orbital Energies [Eh]
    ---------------------

    Doubly Occupied:

       1A    -20.488459     2A    -20.472321     3A    -15.721640
       4A    -11.327039     5A    -11.310060     6A    -11.250990
       7A     -1.362313     8A     -1.303418     9A     -1.252888
      10A     -1.055311    11A     -0.902550    12A     -0.798307
      13A     -0.746188    14A     -0.717128    15A     -0.663379
      16A     -0.626481    17A     -0.579925    18A     -0.570903
      19A     -0.559603    20A     -0.552536    21A     -0.511127
      22A     -0.406013    23A     -0.383897    24A     -0.376391

  @DF-RHF Final Energy:  -321.92687427255333

   => Energetics <=

    Nuclear Repulsion Energy =            248.8917203088797407
    One-Electron Energy =                -933.7594525619177830
    Two-Electron Energy =                 362.9408579804847363
    Total Energy =                       -321.9268742725533343
  Basis Set: (AUG-CC-PVTZ AUX)
    Blend: AUG-CC-PVTZ-RI
    Molecular point group: c1

    Geometry (in Angstrom), charge = 0, multiplicity = 1:

       Center              X                  Y                   Z               Mass
    ------------   -----------------  -----------------  -----------------  -----------------
         O            1.491128614747     1.070391172518     0.118003064934    15.994914619570
         O            1.196438614747    -1.161912827482    -0.271152935066    15.994914619570
         N           -1.302666385253    -1.180645827482     0.044985064934    14.003074004430
         C           -0.686544385253     0.142106172518     0.407895064934    12.000000000000
         C           -1.385148385253     1.297931172518    -0.280375935066    12.000000000000
         C            0.824459614747     0.014867172518     0.041028064934    12.000000000000
         H           -0.766456385253     0.236538172518     1.494086064934     1.007825032230
         H           -1.949351385253    -1.129820127482    -0.993884635066     1.007825032230
         H           -1.902954385253    -1.578374827482     0.772009064934     1.007825032230
         H           -2.435046385253     1.370339172518     0.015277064934     1.007825032230
         H           -0.874053385253     2.219385172518    -0.001505935066     1.007825032230
         H           -1.326888385253     1.191011172518    -1.367939935066     1.007825032230
         H           -0.448597385253    -1.775555827482    -0.119342935066     1.007825032230

  Basis Set: AUG-CC-PVTZ
    Blend: AUG-CC-PVTZ
  Basis Set: (AUG-CC-PVTZ AUX)
    Blend: AUG-CC-PVTZ-JKFIT
	 Reference Energy          =    -321.9268742725533343 [Eh]
	 Singles Energy            =      -0.0000000000000000 [Eh]
	 Same-Spin Energy          =      -0.3232984916095231 [Eh]
	 Opposite-Spin Energy      =      -1.0107007556421395 [Eh]
	 Correlation Energy        =      -1.3339992472516626 [Eh]
	 Total Energy              =    -323.2608735198049885 [Eh]

	 ================> DF-SCS-MP2 Energies <==================
	-----------------------------------------------------------
	 SCS Same-Spin Scale       =       0.3333333333333333 [-]
	 SCS Opposite-Spin Scale   =       1.2000000000000000 [-]
	 SCS Same-Spin Energy      =      -0.1077661638698410 [Eh]
	 SCS Opposite-Spin Energy  =      -1.2128409067705672 [Eh]
	 SCS Correlation Energy    =      -1.3206070706404083 [Eh]
	 SCS Total Energy          =    -323.2474813431937264 [Eh]
	-----------------------------------------------------------

  Dipole Moment: [D]
     X:    -9.8064      Y:    -2.8138      Z:     0.5362     Total:    10.2162

*** Psi4 exiting successfully. Buy a developer a beer!
