                               Psi4 1.3.2 release

  ==> Input File <==

--------------------------------------------------------------------------
#psi4
#
memory 32 gb

molecule  {
0 1
  O        1.5890300     1.0650170     0.1165590
  O        1.2943400    -1.1672870    -0.2725970
  N       -1.2047650    -1.1860200     0.0435410
  C       -0.5939321     0.1420804     0.3956992
  C       -1.2872470     1.2925570    -0.2818200
  C        0.9223610     0.0094930     0.0395840
  H       -0.6685550     0.2311640     1.4926420
  H       -1.7438250    -1.1348189    -0.8264729
  H       -1.8050530    -1.5837490     0.7705650
  H       -2.3371450     1.3649650     0.0138330
  H       -0.7761520     2.2140110    -0.0029500
  H       -1.2289870     1.1856370    -1.3693840
  H       -0.3506960    -1.7809300    -0.1207870
units angstrom
no_reorient  #important for SAPT in psi4, default
symmetry c1  #important for SAPT in psi4, default
}

set PROPERTIES_ORIGIN ["COM"]
properties('MP2/aug-cc-pvtz', properties = ['dipole'])
--------------------------------------------------------------------------

    Molecular point group: c1
  Charge       = 0
  Multiplicity = 1
  Basis Set: AUG-CC-PVTZ
    Blend: AUG-CC-PVTZ
  Basis Set: (AUG-CC-PVTZ AUX)
    Blend: AUG-CC-PVTZ-JKFIT

    Orbital Energies [Eh]
    ---------------------

    Doubly Occupied:

       1A    -20.489793     2A    -20.473132     3A    -15.709755
       4A    -11.328291     5A    -11.311538     6A    -11.251357
       7A     -1.367519     8A     -1.321669     9A     -1.254924
      10A     -1.062241    11A     -0.909154    12A     -0.806456
      13A     -0.780597    14A     -0.724498    15A     -0.674198
      16A     -0.629572    17A     -0.584362    18A     -0.571886
      19A     -0.562470    20A     -0.552644    21A     -0.512369
      22A     -0.407249    23A     -0.384640    24A     -0.377455

  @DF-RHF Final Energy:  -321.95482238223309

   => Energetics <=

    Nuclear Repulsion Energy =            249.8699621074141533
    One-Electron Energy =                -935.5540275216187638
    Two-Electron Energy =                 363.7292430319715208
    Total Energy =                       -321.9548223822330897
  Basis Set: (AUG-CC-PVTZ AUX)
    Blend: AUG-CC-PVTZ-RI
    Molecular point group: c1

    Geometry (in Angstrom), charge = 0, multiplicity = 1:

       Center              X                  Y                   Z               Mass
    ------------   -----------------  -----------------  -----------------  -----------------
         O            1.490623290298     1.069666177340     0.117540891155    15.994914619570
         O            1.195933290298    -1.162637822660    -0.271615108845    15.994914619570
         N           -1.303171709702    -1.181370822660     0.044522891155    14.003074004430
         C           -0.692338809702     0.146729577340     0.396681091155    12.000000000000
         C           -1.385653709702     1.297206177340    -0.280838108845    12.000000000000
         C            0.823954290298     0.014142177340     0.040565891155    12.000000000000
         H           -0.766961709702     0.235813177340     1.493623891155     1.007825032230
         H           -1.842231709702    -1.130169722660    -0.825491008845     1.007825032230
         H           -1.903459709702    -1.579099822660     0.771546891155     1.007825032230
         H           -2.435551709702     1.369614177340     0.014814891155     1.007825032230
         H           -0.874558709702     2.218660177340    -0.001968108845     1.007825032230
         H           -1.327393709702     1.190286177340    -1.368402108845     1.007825032230
         H           -0.449102709702    -1.776280822660    -0.119805108845     1.007825032230

  Basis Set: AUG-CC-PVTZ
    Blend: AUG-CC-PVTZ
  Basis Set: (AUG-CC-PVTZ AUX)
    Blend: AUG-CC-PVTZ-JKFIT
	 Reference Energy          =    -321.9548223822330897 [Eh]
	 Singles Energy            =      -0.0000000000000000 [Eh]
	 Same-Spin Energy          =      -0.3222311840684199 [Eh]
	 Opposite-Spin Energy      =      -1.0068300849704295 [Eh]
	 Correlation Energy        =      -1.3290612690388492 [Eh]
	 Total Energy              =    -323.2838836512719354 [Eh]

	 ================> DF-SCS-MP2 Energies <==================
	-----------------------------------------------------------
	 SCS Same-Spin Scale       =       0.3333333333333333 [-]
	 SCS Opposite-Spin Scale   =       1.2000000000000000 [-]
	 SCS Same-Spin Energy      =      -0.1074103946894733 [Eh]
	 SCS Opposite-Spin Energy  =      -1.2081961019645153 [Eh]
	 SCS Correlation Energy    =      -1.3156064966539887 [Eh]
	 SCS Total Energy          =    -323.2704288788870599 [Eh]
	-----------------------------------------------------------

  Dipole Moment: [D]
     X:    -9.7076      Y:    -2.8165      Z:     0.7002     Total:    10.1322

*** Psi4 exiting successfully. Buy a developer a beer!
