                               Psi4 1.4a3.dev225

  ==> Input File <==

--------------------------------------------------------------------------
#psi4
#
memory 32 gb

molecule  {
0 1
  O        1.5890300     1.0650170     0.1165590
  O        1.2943400    -1.1672870    -0.2725970
  N       -1.2047650    -1.1860200     0.0435410
  C       -0.5886430     0.1367320     0.4064510
  C       -1.2964645     1.3078072    -0.2909012
  C        0.9223610     0.0094930     0.0395840
  H       -0.6685550     0.2311640     1.4926420
  H       -1.7458480    -1.1434940    -0.8256840
  H       -1.8050530    -1.5837490     0.7705650
  H       -2.3371450     1.3649650     0.0138330
  H       -0.7761520     2.2140110    -0.0029500
  H       -1.2289870     1.1856370    -1.3693840
  H       -0.3506960    -1.7809300    -0.1207870
units angstrom
no_reorient  #important for SAPT in psi4, default
symmetry c1  #important for SAPT in psi4, default
}

set PROPERTIES_ORIGIN ["COM"]
properties('MP2/aug-cc-pvtz', properties = ['dipole'])
--------------------------------------------------------------------------

    Molecular point group: c1
  Charge       = 0
  Multiplicity = 1
  Basis Set: AUG-CC-PVTZ
    Blend: AUG-CC-PVTZ
  Basis Set: (AUG-CC-PVTZ AUX)
    Blend: AUG-CC-PVTZ-JKFIT

    Orbital Energies [Eh]
    ---------------------

    Doubly Occupied:

       1A    -20.489501     2A    -20.472977     3A    -15.709710
       4A    -11.327938     5A    -11.311814     6A    -11.251339
       7A     -1.367241     8A     -1.321300     9A     -1.254681
      10A     -1.057016    11A     -0.911670    12A     -0.806389
      13A     -0.779403    14A     -0.724411    15A     -0.674810
      16A     -0.628833    17A     -0.581205    18A     -0.573603
      19A     -0.561413    20A     -0.555900    21A     -0.511023
      22A     -0.407316    23A     -0.384803    24A     -0.377289

  @DF-RHF Final Energy:  -321.95497654113734

   => Energetics <=

    Nuclear Repulsion Energy =            249.5034974193974620
    One-Electron Energy =                -934.8337807267548669
    Two-Electron Energy =                 363.3753067662200351
    Total Energy =                       -321.9549765411373414
  Basis Set: (AUG-CC-PVTZ AUX)
    Blend: AUG-CC-PVTZ-RI
    Molecular point group: c1

    Geometry (in Angstrom), charge = 0, multiplicity = 1:

       Center              X                  Y                   Z               Mass
    ------------   -----------------  -----------------  -----------------  -----------------
         O            1.491175574545     1.068430001182     0.117306833698    15.994914619570
         O            1.196485574545    -1.163873998818    -0.271849166302    15.994914619570
         N           -1.302619425455    -1.182606998818     0.044288833698    14.003074004430
         C           -0.686497425455     0.140145001182     0.407198833698    12.000000000000
         C           -1.394318925455     1.311220201182    -0.290153366302    12.000000000000
         C            0.824506574545     0.012906001182     0.040331833698    12.000000000000
         H           -0.766409425455     0.234577001182     1.493389833698     1.007825032230
         H           -1.843702425455    -1.140080998818    -0.824936166302     1.007825032230
         H           -1.902907425455    -1.580335998818     0.771312833698     1.007825032230
         H           -2.434999425455     1.368378001182     0.014580833698     1.007825032230
         H           -0.874006425455     2.217424001182    -0.002202166302     1.007825032230
         H           -1.326841425455     1.189050001182    -1.368636166302     1.007825032230
         H           -0.448550425455    -1.777516998818    -0.120039166302     1.007825032230

  Basis Set: AUG-CC-PVTZ
    Blend: AUG-CC-PVTZ
  Basis Set: (AUG-CC-PVTZ AUX)
    Blend: AUG-CC-PVTZ-JKFIT
	 Reference Energy          =    -321.9549765411373414 [Eh]
	 Singles Energy            =      -0.0000000000000000 [Eh]
	 Same-Spin Energy          =      -0.3219846608395285 [Eh]
	 Opposite-Spin Energy      =      -1.0066063551123945 [Eh]
	 Correlation Energy        =      -1.3285910159519230 [Eh]
	 Total Energy              =    -323.2835675570892704 [Eh]

	 ================> DF-SCS-MP2 Energies <==================
	-----------------------------------------------------------
	 SCS Same-Spin Scale       =       0.3333333333333333 [-]
	 SCS Opposite-Spin Scale   =       1.2000000000000000 [-]
	 SCS Same-Spin Energy      =      -0.1073282202798428 [Eh]
	 SCS Opposite-Spin Energy  =      -1.2079276261348733 [Eh]
	 SCS Correlation Energy    =      -1.3152558464147162 [Eh]
	 SCS Total Energy          =    -323.2702323875520847 [Eh]
	-----------------------------------------------------------

  Dipole Moment: [D]
     X:    -9.7165      Y:    -2.8394      Z:     0.7117     Total:    10.1479

*** Psi4 exiting successfully. Buy a developer a beer!
