                               Psi4 1.3.2 release

  ==> Input File <==

--------------------------------------------------------------------------
#psi4
#
memory 32 gb

molecule  {
0 1
  O        1.5890300     1.0650170     0.1165590
  O        1.2943400    -1.1672870    -0.2725970
  N       -1.2047650    -1.1860200     0.0435410
  C       -0.5886430     0.1367320     0.4064510
  C       -1.2872470     1.2925570    -0.2818200
  C        0.9223610     0.0094930     0.0395840
  H       -0.6831747     0.2484401     1.6913574
  H       -1.7458480    -1.1434940    -0.8256840
  H       -1.8050530    -1.5837490     0.7705650
  H       -2.3371450     1.3649650     0.0138330
  H       -0.7761520     2.2140110    -0.0029500
  H       -1.2289870     1.1856370    -1.3693840
  H       -0.3506960    -1.7809300    -0.1207870
units angstrom
no_reorient  #important for SAPT in psi4, default
symmetry c1  #important for SAPT in psi4, default
}

set PROPERTIES_ORIGIN ["COM"]
properties('MP2/aug-cc-pvtz', properties = ['dipole'])
--------------------------------------------------------------------------

    Molecular point group: c1
  Charge       = 0
  Multiplicity = 1
  Basis Set: AUG-CC-PVTZ
    Blend: AUG-CC-PVTZ
  Basis Set: (AUG-CC-PVTZ AUX)
    Blend: AUG-CC-PVTZ-JKFIT

    Orbital Energies [Eh]
    ---------------------

    Doubly Occupied:

       1A    -20.490560     2A    -20.473526     3A    -15.711476
       4A    -11.332469     5A    -11.329582     6A    -11.253578
       7A     -1.367989     8A     -1.322264     9A     -1.255410
      10A     -1.055407    11A     -0.903040    12A     -0.801178
      13A     -0.780522    14A     -0.726298    15A     -0.660991
      16A     -0.623184    17A     -0.583982    18A     -0.572046
      19A     -0.562130    20A     -0.545248    21A     -0.500352
      22A     -0.408009    23A     -0.385785    24A     -0.377723

  @DF-RHF Final Energy:  -321.93447183627615

   => Energetics <=

    Nuclear Repulsion Energy =            248.8796305602424184
    One-Electron Energy =                -933.5827083293726218
    Two-Electron Energy =                 362.7686059328540864
    Total Energy =                       -321.9344718362761455
  Basis Set: (AUG-CC-PVTZ AUX)
    Blend: AUG-CC-PVTZ-RI
    Molecular point group: c1

    Geometry (in Angstrom), charge = 0, multiplicity = 1:

       Center              X                  Y                   Z               Mass
    ------------   -----------------  -----------------  -----------------  -----------------
         O            1.490098894029     1.070289579296     0.113834033960    15.994914619570
         O            1.195408894029    -1.162014420704    -0.275321966040    15.994914619570
         N           -1.303696105971    -1.180747420704     0.040816033960    14.003074004430
         C           -0.687574105971     0.142004579296     0.403726033960    12.000000000000
         C           -1.386178105971     1.297829579296    -0.284544966040    12.000000000000
         C            0.823429894029     0.014765579296     0.036859033960    12.000000000000
         H           -0.782105805971     0.253712679296     1.688632433960     1.007825032230
         H           -1.844779105971    -1.138221420704    -0.828408966040     1.007825032230
         H           -1.903984105971    -1.578476420704     0.767840033960     1.007825032230
         H           -2.436076105971     1.370237579296     0.011108033960     1.007825032230
         H           -0.875083105971     2.219283579296    -0.005674966040     1.007825032230
         H           -1.327918105971     1.190909579296    -1.372108966040     1.007825032230
         H           -0.449627105971    -1.775657420704    -0.123511966040     1.007825032230

  Basis Set: AUG-CC-PVTZ
    Blend: AUG-CC-PVTZ
  Basis Set: (AUG-CC-PVTZ AUX)
    Blend: AUG-CC-PVTZ-JKFIT
	 Reference Energy          =    -321.9344718362761455 [Eh]
	 Singles Energy            =      -0.0000000000000000 [Eh]
	 Same-Spin Energy          =      -0.3224539379709838 [Eh]
	 Opposite-Spin Energy      =      -1.0086254043157201 [Eh]
	 Correlation Energy        =      -1.3310793422867038 [Eh]
	 Total Energy              =    -323.2655511785628732 [Eh]

	 ================> DF-SCS-MP2 Energies <==================
	-----------------------------------------------------------
	 SCS Same-Spin Scale       =       0.3333333333333333 [-]
	 SCS Opposite-Spin Scale   =       1.2000000000000000 [-]
	 SCS Same-Spin Energy      =      -0.1074846459903279 [Eh]
	 SCS Opposite-Spin Energy  =      -1.2103504851788640 [Eh]
	 SCS Correlation Energy    =      -1.3178351311691920 [Eh]
	 SCS Total Energy          =    -323.2523069674453495 [Eh]
	-----------------------------------------------------------

  Dipole Moment: [D]
     X:    -9.6887      Y:    -2.8190      Z:     0.6336     Total:    10.1103

*** Psi4 exiting successfully. Buy a developer a beer!
