                               Psi4 1.3.2 release

  ==> Input File <==

--------------------------------------------------------------------------
#psi4
#
memory 32 gb

molecule  {
0 1
  O        1.5890300     1.0650170     0.1165590
  O        1.2943400    -1.1672870    -0.2725970
  N       -1.2280601    -1.1771659     0.0517667
  C       -0.5886430     0.1367320     0.4064510
  C       -1.2872470     1.2925570    -0.2818200
  C        0.9263660     0.0349947     0.0482451
  H       -0.6685550     0.2311640     1.4926420
  H       -1.7458480    -1.1434940    -0.8256840
  H       -1.8050530    -1.5837490     0.7705650
  H       -2.3371450     1.3649650     0.0138330
  H       -0.7761520     2.2140110    -0.0029500
  H       -1.2289870     1.1856370    -1.3693840
  H       -0.3506960    -1.7809300    -0.1207870
units angstrom
no_reorient  #important for SAPT in psi4, default
symmetry c1  #important for SAPT in psi4, default
}

set PROPERTIES_ORIGIN ["COM"]
properties('MP2/aug-cc-pvtz', properties = ['dipole'])
--------------------------------------------------------------------------

    Molecular point group: c1
  Charge       = 0
  Multiplicity = 1
  Basis Set: AUG-CC-PVTZ
    Blend: AUG-CC-PVTZ
  Basis Set: (AUG-CC-PVTZ AUX)
    Blend: AUG-CC-PVTZ-JKFIT

    Orbital Energies [Eh]
    ---------------------

    Doubly Occupied:

       1A    -20.484927     2A    -20.480570     3A    -15.706996
       4A    -11.328775     5A    -11.311020     6A    -11.251401
       7A     -1.366481     8A     -1.325071     9A     -1.253583
      10A     -1.060730    11A     -0.909414    12A     -0.809009
      13A     -0.770611    14A     -0.728765    15A     -0.673475
      16A     -0.629151    17A     -0.586122    18A     -0.571036
      19A     -0.561743    20A     -0.552751    21A     -0.512665
      22A     -0.404975    23A     -0.388313    24A     -0.380192

  @DF-RHF Final Energy:  -321.95412714450811

   => Energetics <=

    Nuclear Repulsion Energy =            249.6315579474200490
    One-Electron Energy =                -935.0758140684345108
    Two-Electron Energy =                 363.4901289765062984
    Total Energy =                       -321.9541271445081065
  Basis Set: (AUG-CC-PVTZ AUX)
    Blend: AUG-CC-PVTZ-RI
    Molecular point group: c1

    Geometry (in Angstrom), charge = 0, multiplicity = 1:

       Center              X                  Y                   Z               Mass
    ------------   -----------------  -----------------  -----------------  -----------------
         O            1.493056960024     1.065656176847     0.113622372839    15.994914619570
         O            1.198366960024    -1.166647823153    -0.275533627161    15.994914619570
         N           -1.324033139976    -1.176526723153     0.048830072839    14.003074004430
         C           -0.684616039976     0.137371176847     0.403514372839    12.000000000000
         C           -1.383220039976     1.293196176847    -0.284756627161    12.000000000000
         C            0.830392960024     0.035633876847     0.045308472839    12.000000000000
         H           -0.764528039976     0.231803176847     1.489705372839     1.007825032230
         H           -1.841821039976    -1.142854823153    -0.828620627161     1.007825032230
         H           -1.901026039976    -1.583109823153     0.767628372839     1.007825032230
         H           -2.433118039976     1.365604176847     0.010896372839     1.007825032230
         H           -0.872125039976     2.214650176847    -0.005886627161     1.007825032230
         H           -1.324960039976     1.186276176847    -1.372320627161     1.007825032230
         H           -0.446669039976    -1.780290823153    -0.123723627161     1.007825032230

  Basis Set: AUG-CC-PVTZ
    Blend: AUG-CC-PVTZ
  Basis Set: (AUG-CC-PVTZ AUX)
    Blend: AUG-CC-PVTZ-JKFIT
	 Reference Energy          =    -321.9541271445081065 [Eh]
	 Singles Energy            =      -0.0000000000000000 [Eh]
	 Same-Spin Energy          =      -0.3222191872926153 [Eh]
	 Opposite-Spin Energy      =      -1.0068482110478982 [Eh]
	 Correlation Energy        =      -1.3290673983405137 [Eh]
	 Total Energy              =    -323.2831945428486051 [Eh]

	 ================> DF-SCS-MP2 Energies <==================
	-----------------------------------------------------------
	 SCS Same-Spin Scale       =       0.3333333333333333 [-]
	 SCS Opposite-Spin Scale   =       1.2000000000000000 [-]
	 SCS Same-Spin Energy      =      -0.1074063957642051 [Eh]
	 SCS Opposite-Spin Energy  =      -1.2082178532574779 [Eh]
	 SCS Correlation Energy    =      -1.3156242490216830 [Eh]
	 SCS Total Energy          =    -323.2697513935298161 [Eh]
	-----------------------------------------------------------

  Dipole Moment: [D]
     X:    -9.5876      Y:    -2.5855      Z:     0.7521     Total:     9.9586

*** Psi4 exiting successfully. Buy a developer a beer!
