                               Psi4 1.3.2 release

  ==> Input File <==

--------------------------------------------------------------------------
#psi4
#
memory 32 gb

molecule  {
0 1
  O        1.5890300     1.0650170     0.1165590
  O        1.2943400    -1.1672870    -0.2725970
  N       -1.2047650    -1.1860200     0.0435410
  C       -0.5886430     0.1367320     0.4064510
  C       -1.2872470     1.2925570    -0.2818200
  C        0.8157623    -0.1592827     0.0272759
  H       -0.6685550     0.2311640     1.4926420
  H       -1.7458480    -1.1434940    -0.8256840
  H       -1.8050530    -1.5837490     0.7705650
  H       -2.3371450     1.3649650     0.0138330
  H       -0.7761520     2.2140110    -0.0029500
  H       -1.2289870     1.1856370    -1.3693840
  H       -0.3506960    -1.7809300    -0.1207870
units angstrom
no_reorient  #important for SAPT in psi4, default
symmetry c1  #important for SAPT in psi4, default
}

set PROPERTIES_ORIGIN ["COM"]
properties('MP2/aug-cc-pvtz', properties = ['dipole'])
--------------------------------------------------------------------------

    Molecular point group: c1
  Charge       = 0
  Multiplicity = 1
  Basis Set: AUG-CC-PVTZ
    Blend: AUG-CC-PVTZ
  Basis Set: (AUG-CC-PVTZ AUX)
    Blend: AUG-CC-PVTZ-JKFIT

    Orbital Energies [Eh]
    ---------------------

    Doubly Occupied:

       1A    -20.530193     2A    -20.428261     3A    -15.720004
       4A    -11.325389     5A    -11.323707     6A    -11.256114
       7A     -1.432478     8A     -1.342471     9A     -1.161883
      10A     -1.065853    11A     -0.934615    12A     -0.825775
      13A     -0.794090    14A     -0.731405    15A     -0.692538
      16A     -0.650999    17A     -0.598955    18A     -0.572007
      19A     -0.569377    20A     -0.554489    21A     -0.534066
      22A     -0.389822    23A     -0.344546    24A     -0.333696

  @DF-RHF Final Energy:  -321.88899543856127

   => Energetics <=

    Nuclear Repulsion Energy =            250.6370155671678788
    One-Electron Energy =                -936.8265603365134666
    Two-Electron Energy =                 364.3005493307843494
    Total Energy =                       -321.8889954385612668
  Basis Set: (AUG-CC-PVTZ AUX)
    Blend: AUG-CC-PVTZ-RI
    Molecular point group: c1

    Geometry (in Angstrom), charge = 0, multiplicity = 1:

       Center              X                  Y                   Z               Mass
    ------------   -----------------  -----------------  -----------------  -----------------
         O            1.504298593809     1.093229196826     0.117741688381    15.994914619570
         O            1.209608593809    -1.139074803174    -0.271414311619    15.994914619570
         N           -1.289496406191    -1.157807803174     0.044723688381    14.003074004430
         C           -0.673374406191     0.164944196826     0.407633688381    12.000000000000
         C           -1.371978406191     1.320769196826    -0.280637311619    12.000000000000
         C            0.731030893809    -0.131070503174     0.028458588381    12.000000000000
         H           -0.753286406191     0.259376196826     1.493824688381     1.007825032230
         H           -1.830579406191    -1.115281803174    -0.824501311619     1.007825032230
         H           -1.889784406191    -1.555536803174     0.771747688381     1.007825032230
         H           -2.421876406191     1.393177196826     0.015015688381     1.007825032230
         H           -0.860883406191     2.242223196826    -0.001767311619     1.007825032230
         H           -1.313718406191     1.213849196826    -1.368201311619     1.007825032230
         H           -0.435427406191    -1.752717803174    -0.119604311619     1.007825032230

  Basis Set: AUG-CC-PVTZ
    Blend: AUG-CC-PVTZ
  Basis Set: (AUG-CC-PVTZ AUX)
    Blend: AUG-CC-PVTZ-JKFIT
	 Reference Energy          =    -321.8889954385612668 [Eh]
	 Singles Energy            =      -0.0000000000000000 [Eh]
	 Same-Spin Energy          =      -0.3242757801215800 [Eh]
	 Opposite-Spin Energy      =      -1.0115736022548552 [Eh]
	 Correlation Energy        =      -1.3358493823764350 [Eh]
	 Total Energy              =    -323.2248448209376761 [Eh]

	 ================> DF-SCS-MP2 Energies <==================
	-----------------------------------------------------------
	 SCS Same-Spin Scale       =       0.3333333333333333 [-]
	 SCS Opposite-Spin Scale   =       1.2000000000000000 [-]
	 SCS Same-Spin Energy      =      -0.1080919267071933 [Eh]
	 SCS Opposite-Spin Energy  =      -1.2138883227058261 [Eh]
	 SCS Correlation Energy    =      -1.3219802494130195 [Eh]
	 SCS Total Energy          =    -323.2109756879742690 [Eh]
	-----------------------------------------------------------

  Dipole Moment: [D]
     X:   -10.4427      Y:    -4.2948      Z:     0.5315     Total:    11.3038

*** Psi4 exiting successfully. Buy a developer a beer!
