                               Psi4 1.3.2 release

  ==> Input File <==

--------------------------------------------------------------------------
#psi4
#
memory 32 gb

molecule  {
0 1
  O        1.5890300     1.0650170     0.1165590
  O        1.2943400    -1.1672870    -0.2725970
  N       -1.2134146    -1.1798200     0.0358646
  C       -0.5886430     0.1367320     0.4064510
  C       -1.2955062     1.2840216    -0.2876433
  C        0.9223610     0.0094930     0.0395840
  H       -0.6685550     0.2311640     1.4926420
  H       -1.7458480    -1.1434940    -0.8256840
  H       -1.8050530    -1.5837490     0.7705650
  H       -2.3371450     1.3649650     0.0138330
  H       -0.7761520     2.2140110    -0.0029500
  H       -1.2289870     1.1856370    -1.3693840
  H       -0.3506960    -1.7809300    -0.1207870
units angstrom
no_reorient  #important for SAPT in psi4, default
symmetry c1  #important for SAPT in psi4, default
}

set PROPERTIES_ORIGIN ["COM"]
properties('MP2/aug-cc-pvtz', properties = ['dipole'])
--------------------------------------------------------------------------

    Molecular point group: c1
  Charge       = 0
  Multiplicity = 1
  Basis Set: AUG-CC-PVTZ
    Blend: AUG-CC-PVTZ
  Basis Set: (AUG-CC-PVTZ AUX)
    Blend: AUG-CC-PVTZ-JKFIT

    Orbital Energies [Eh]
    ---------------------

    Doubly Occupied:

       1A    -20.490260     2A    -20.473485     3A    -15.708658
       4A    -11.328466     5A    -11.311456     6A    -11.251170
       7A     -1.367509     8A     -1.321622     9A     -1.255258
      10A     -1.060003    11A     -0.910753    12A     -0.805737
      13A     -0.778796    14A     -0.725301    15A     -0.676296
      16A     -0.629894    17A     -0.583092    18A     -0.571128
      19A     -0.559822    20A     -0.553212    21A     -0.513187
      22A     -0.407708    23A     -0.385228    24A     -0.377762

  @DF-RHF Final Energy:  -321.95471869085583

   => Energetics <=

    Nuclear Repulsion Energy =            249.7874152342709522
    One-Electron Energy =                -935.3926642327070340
    Two-Electron Energy =                 363.6505303075802544
    Total Energy =                       -321.9547186908558274
  Basis Set: (AUG-CC-PVTZ AUX)
    Blend: AUG-CC-PVTZ-RI
    Molecular point group: c1

    Geometry (in Angstrom), charge = 0, multiplicity = 1:

       Center              X                  Y                   Z               Mass
    ------------   -----------------  -----------------  -----------------  -----------------
         O            1.492406616059     1.070660358498     0.118074943529    15.994914619570
         O            1.197716616059    -1.161643641502    -0.271081056471    15.994914619570
         N           -1.310037983941    -1.174176641502     0.037380543529    14.003074004430
         C           -0.685266383941     0.142375358498     0.407966943529    12.000000000000
         C           -1.392129583941     1.289664958498    -0.286127356471    12.000000000000
         C            0.825737616059     0.015136358498     0.041099943529    12.000000000000
         H           -0.765178383941     0.236807358498     1.494157943529     1.007825032230
         H           -1.842471383941    -1.137850641502    -0.824168056471     1.007825032230
         H           -1.901676383941    -1.578105641502     0.772080943529     1.007825032230
         H           -2.433768383941     1.370608358498     0.015348943529     1.007825032230
         H           -0.872775383941     2.219654358498    -0.001434056471     1.007825032230
         H           -1.325610383941     1.191280358498    -1.367868056471     1.007825032230
         H           -0.447319383941    -1.775286641502    -0.119271056471     1.007825032230

  Basis Set: AUG-CC-PVTZ
    Blend: AUG-CC-PVTZ
  Basis Set: (AUG-CC-PVTZ AUX)
    Blend: AUG-CC-PVTZ-JKFIT
	 Reference Energy          =    -321.9547186908558274 [Eh]
	 Singles Energy            =      -0.0000000000000000 [Eh]
	 Same-Spin Energy          =      -0.3222216411852817 [Eh]
	 Opposite-Spin Energy      =      -1.0068470227800772 [Eh]
	 Correlation Energy        =      -1.3290686639653591 [Eh]
	 Total Energy              =    -323.2837873548211860 [Eh]

	 ================> DF-SCS-MP2 Energies <==================
	-----------------------------------------------------------
	 SCS Same-Spin Scale       =       0.3333333333333333 [-]
	 SCS Opposite-Spin Scale   =       1.2000000000000000 [-]
	 SCS Same-Spin Energy      =      -0.1074072137284272 [Eh]
	 SCS Opposite-Spin Energy  =      -1.2082164273360927 [Eh]
	 SCS Correlation Energy    =      -1.3156236410645199 [Eh]
	 SCS Total Energy          =    -323.2703423319203466 [Eh]
	-----------------------------------------------------------

  Dipole Moment: [D]
     X:    -9.6813      Y:    -2.8310      Z:     0.7152     Total:    10.1121

*** Psi4 exiting successfully. Buy a developer a beer!
