                               Psi4 1.3.2 release

  ==> Input File <==

--------------------------------------------------------------------------
#psi4
#
memory 32 gb

molecule  {
0 1
  O        1.5890300     1.0650170     0.1165590
  O        1.2943400    -1.1672870    -0.2725970
  N       -1.2047650    -1.1860200     0.0435410
  C       -0.5886430     0.1367320     0.4064510
  C       -1.2872470     1.2925570    -0.2818200
  C        0.9223610     0.0094930     0.0395840
  H       -0.6685550     0.2311640     1.4926420
  H       -1.6402460    -1.1517937    -0.6560393
  H       -1.8050530    -1.5837490     0.7705650
  H       -2.3371450     1.3649650     0.0138330
  H       -0.7761520     2.2140110    -0.0029500
  H       -1.2289870     1.1856370    -1.3693840
  H       -0.3506960    -1.7809300    -0.1207870
units angstrom
no_reorient  #important for SAPT in psi4, default
symmetry c1  #important for SAPT in psi4, default
}

set PROPERTIES_ORIGIN ["COM"]
properties('MP2/aug-cc-pvtz', properties = ['dipole'])
--------------------------------------------------------------------------

    Molecular point group: c1
  Charge       = 0
  Multiplicity = 1
  Basis Set: AUG-CC-PVTZ
    Blend: AUG-CC-PVTZ
  Basis Set: (AUG-CC-PVTZ AUX)
    Blend: AUG-CC-PVTZ-JKFIT

    Orbital Energies [Eh]
    ---------------------

    Doubly Occupied:

       1A    -20.490868     2A    -20.474057     3A    -15.691944
       4A    -11.329194     5A    -11.312890     6A    -11.252445
       7A     -1.388112     8A     -1.343662     9A     -1.256819
      10A     -1.068268    11A     -0.925840    12A     -0.835644
      13A     -0.799423    14A     -0.729913    15A     -0.682412
      16A     -0.630766    17A     -0.585768    18A     -0.572358
      19A     -0.562973    20A     -0.554578    21A     -0.513761
      22A     -0.408644    23A     -0.386033    24A     -0.378429

  @DF-RHF Final Energy:  -321.91390337097994

   => Energetics <=

    Nuclear Repulsion Energy =            251.0405885770661314
    One-Electron Energy =                -937.5593856593591227
    Two-Electron Energy =                 364.6048937113130251
    Total Energy =                       -321.9139033709799378
  Basis Set: (AUG-CC-PVTZ AUX)
    Blend: AUG-CC-PVTZ-RI
    Molecular point group: c1

    Geometry (in Angstrom), charge = 0, multiplicity = 1:

       Center              X                  Y                   Z               Mass
    ------------   -----------------  -----------------  -----------------  -----------------
         O            1.488738247230     1.070579041434     0.114163050726    15.994914619570
         O            1.194048247230    -1.161724958566    -0.274992949274    15.994914619570
         N           -1.305056752770    -1.180457958566     0.041145050726    14.003074004430
         C           -0.688934752770     0.142294041434     0.404055050726    12.000000000000
         C           -1.387538752770     1.298119041434    -0.284215949274    12.000000000000
         C            0.822069247230     0.015055041434     0.037188050726    12.000000000000
         H           -0.768846752770     0.236726041434     1.490246050726     1.007825032230
         H           -1.740537752770    -1.146231658566    -0.658435249274     1.007825032230
         H           -1.905344752770    -1.578186958566     0.768169050726     1.007825032230
         H           -2.437436752770     1.370527041434     0.011437050726     1.007825032230
         H           -0.876443752770     2.219573041434    -0.005345949274     1.007825032230
         H           -1.329278752770     1.191199041434    -1.371779949274     1.007825032230
         H           -0.450987752770    -1.775367958566    -0.123182949274     1.007825032230

  Basis Set: AUG-CC-PVTZ
    Blend: AUG-CC-PVTZ
  Basis Set: (AUG-CC-PVTZ AUX)
    Blend: AUG-CC-PVTZ-JKFIT
	 Reference Energy          =    -321.9139033709799378 [Eh]
	 Singles Energy            =      -0.0000000000000000 [Eh]
	 Same-Spin Energy          =      -0.3212176159234308 [Eh]
	 Opposite-Spin Energy      =      -1.0039993251653012 [Eh]
	 Correlation Energy        =      -1.3252169410887320 [Eh]
	 Total Energy              =    -323.2391203120686782 [Eh]

	 ================> DF-SCS-MP2 Energies <==================
	-----------------------------------------------------------
	 SCS Same-Spin Scale       =       0.3333333333333333 [-]
	 SCS Opposite-Spin Scale   =       1.2000000000000000 [-]
	 SCS Same-Spin Energy      =      -0.1070725386411436 [Eh]
	 SCS Opposite-Spin Energy  =      -1.2047991901983615 [Eh]
	 SCS Correlation Energy    =      -1.3118717288395050 [Eh]
	 SCS Total Energy          =    -323.2257750998194297 [Eh]
	-----------------------------------------------------------

  Dipole Moment: [D]
     X:    -9.6053      Y:    -2.8343      Z:     0.8853     Total:    10.0538

*** Psi4 exiting successfully. Buy a developer a beer!
