                               Psi4 1.3.2 release

  ==> Input File <==

--------------------------------------------------------------------------
#psi4
#
memory 32 gb

molecule  {
0 1
  O        1.5890300     1.0650170     0.1165590
  O        1.2943400    -1.1672870    -0.2725970
  N       -1.2195418    -1.1977629     0.1199671
  C       -0.5886430     0.1367320     0.4064510
  C       -1.2872470     1.2925570    -0.2818200
  C        0.9223610     0.0094930     0.0395840
  H       -0.6941572     0.1799865     1.4936998
  H       -1.7458480    -1.1434940    -0.8256840
  H       -1.8050530    -1.5837490     0.7705650
  H       -2.3371450     1.3649650     0.0138330
  H       -0.7761520     2.2140110    -0.0029500
  H       -1.2289870     1.1856370    -1.3693840
  H       -0.3506960    -1.7809300    -0.1207870
units angstrom
no_reorient  #important for SAPT in psi4, default
symmetry c1  #important for SAPT in psi4, default
}

set PROPERTIES_ORIGIN ["COM"]
properties('MP2/aug-cc-pvtz', properties = ['dipole'])
--------------------------------------------------------------------------

    Molecular point group: c1
  Charge       = 0
  Multiplicity = 1
  Basis Set: AUG-CC-PVTZ
    Blend: AUG-CC-PVTZ
  Basis Set: (AUG-CC-PVTZ AUX)
    Blend: AUG-CC-PVTZ-JKFIT

    Orbital Energies [Eh]
    ---------------------

    Doubly Occupied:

       1A    -20.491669     2A    -20.474658     3A    -15.707432
       4A    -11.329998     5A    -11.312084     6A    -11.252849
       7A     -1.367672     8A     -1.322374     9A     -1.256376
      10A     -1.061218    11A     -0.911191    12A     -0.822129
      13A     -0.760847    14A     -0.730071    15A     -0.665065
      16A     -0.630850    17A     -0.582432    18A     -0.572148
      19A     -0.565279    20A     -0.552164    21A     -0.513419
      22A     -0.408726    23A     -0.386820    24A     -0.378691

  @DF-RHF Final Energy:  -321.94529434484167

   => Energetics <=

    Nuclear Repulsion Energy =            249.5000851579544872
    One-Electron Energy =                -934.7784375652811377
    Two-Electron Energy =                 363.3330580624850086
    Total Energy =                       -321.9452943448416704
  Basis Set: (AUG-CC-PVTZ AUX)
    Blend: AUG-CC-PVTZ-RI
    Molecular point group: c1

    Geometry (in Angstrom), charge = 0, multiplicity = 1:

       Center              X                  Y                   Z               Mass
    ------------   -----------------  -----------------  -----------------  -----------------
         O            1.492546897909     1.072910938475     0.104052801343    15.994914619570
         O            1.197856897909    -1.159393061525    -0.285103198657    15.994914619570
         N           -1.316024902091    -1.189868961525     0.107460901343    14.003074004430
         C           -0.685126102091     0.144625938475     0.393944801343    12.000000000000
         C           -1.383730102091     1.300450938475    -0.294326198657    12.000000000000
         C            0.825877897909     0.017386938475     0.027077801343    12.000000000000
         H           -0.790640302091     0.187880438475     1.481193601343     1.007825032230
         H           -1.842331102091    -1.135600061525    -0.838190198657     1.007825032230
         H           -1.901536102091    -1.575855061525     0.758058801343     1.007825032230
         H           -2.433628102091     1.372858938475     0.001326801343     1.007825032230
         H           -0.872635102091     2.221904938475    -0.015456198657     1.007825032230
         H           -1.325470102091     1.193530938475    -1.381890198657     1.007825032230
         H           -0.447179102091    -1.773036061525    -0.133293198657     1.007825032230

  Basis Set: AUG-CC-PVTZ
    Blend: AUG-CC-PVTZ
  Basis Set: (AUG-CC-PVTZ AUX)
    Blend: AUG-CC-PVTZ-JKFIT
	 Reference Energy          =    -321.9452943448416704 [Eh]
	 Singles Energy            =      -0.0000000000000000 [Eh]
	 Same-Spin Energy          =      -0.3225277055542247 [Eh]
	 Opposite-Spin Energy      =      -1.0075302586040182 [Eh]
	 Correlation Energy        =      -1.3300579641582428 [Eh]
	 Total Energy              =    -323.2753523089999135 [Eh]

	 ================> DF-SCS-MP2 Energies <==================
	-----------------------------------------------------------
	 SCS Same-Spin Scale       =       0.3333333333333333 [-]
	 SCS Opposite-Spin Scale   =       1.2000000000000000 [-]
	 SCS Same-Spin Energy      =      -0.1075092351847416 [Eh]
	 SCS Opposite-Spin Energy  =      -1.2090363103248218 [Eh]
	 SCS Correlation Energy    =      -1.3165455455095634 [Eh]
	 SCS Total Energy          =    -323.2618398903512116 [Eh]
	-----------------------------------------------------------

  Dipole Moment: [D]
     X:    -9.6373      Y:    -2.7930      Z:     0.6790     Total:    10.0568

*** Psi4 exiting successfully. Buy a developer a beer!
