                               Psi4 1.3.2 release

  ==> Input File <==

--------------------------------------------------------------------------
#psi4
#
memory 32 gb

molecule  {
0 1
  O        1.6069008     1.0539312     0.1107021
  O        1.3150842    -1.1598024    -0.2753022
  N       -1.2047650    -1.1860200     0.0435410
  C       -0.5886430     0.1367320     0.4064510
  C       -1.2872470     1.2925570    -0.2818200
  C        0.9223610     0.0094930     0.0395840
  H       -0.6685550     0.2311640     1.4926420
  H       -1.7458480    -1.1434940    -0.8256840
  H       -1.8050530    -1.5837490     0.7705650
  H       -2.3371450     1.3649650     0.0138330
  H       -0.7761520     2.2140110    -0.0029500
  H       -1.2289870     1.1856370    -1.3693840
  H       -0.3506960    -1.7809300    -0.1207870
units angstrom
no_reorient  #important for SAPT in psi4, default
symmetry c1  #important for SAPT in psi4, default
}

set PROPERTIES_ORIGIN ["COM"]
properties('MP2/aug-cc-pvtz', properties = ['dipole'])
--------------------------------------------------------------------------

    Molecular point group: c1
  Charge       = 0
  Multiplicity = 1
  Basis Set: AUG-CC-PVTZ
    Blend: AUG-CC-PVTZ
  Basis Set: (AUG-CC-PVTZ AUX)
    Blend: AUG-CC-PVTZ-JKFIT

    Orbital Energies [Eh]
    ---------------------

    Doubly Occupied:

       1A    -20.487266     2A    -20.470775     3A    -15.712150
       4A    -11.326507     5A    -11.313846     6A    -11.253064
       7A     -1.366849     8A     -1.323037     9A     -1.250666
      10A     -1.062012    11A     -0.911893    12A     -0.808541
      13A     -0.781002    14A     -0.725483    15A     -0.676169
      16A     -0.629170    17A     -0.582700    18A     -0.571397
      19A     -0.561647    20A     -0.554187    21A     -0.511860
      22A     -0.405037    23A     -0.384114    24A     -0.374246

  @DF-RHF Final Energy:  -321.95399165076742

   => Energetics <=

    Nuclear Repulsion Energy =            249.5461806546193770
    One-Electron Energy =                -934.9131079465236098
    Two-Electron Energy =                 363.4129356411367553
    Total Energy =                       -321.9539916507674207
  Basis Set: (AUG-CC-PVTZ AUX)
    Blend: AUG-CC-PVTZ-RI
    Molecular point group: c1

    Geometry (in Angstrom), charge = 0, multiplicity = 1:

       Center              X                  Y                   Z               Mass
    ------------   -----------------  -----------------  -----------------  -----------------
         O            1.500868130703     1.060046161420     0.111764098636    15.994914619570
         O            1.209051530703    -1.153687438580    -0.274240201364    15.994914619570
         N           -1.310797669297    -1.179905038580     0.044602998636    14.003074004430
         C           -0.694675669297     0.142846961420     0.407512998636    12.000000000000
         C           -1.393279669297     1.298671961420    -0.280758001364    12.000000000000
         C            0.816328330703     0.015607961420     0.040645998636    12.000000000000
         H           -0.774587669297     0.237278961420     1.493703998636     1.007825032230
         H           -1.851880669297    -1.137379038580    -0.824622001364     1.007825032230
         H           -1.911085669297    -1.577634038580     0.771626998636     1.007825032230
         H           -2.443177669297     1.371079961420     0.014894998636     1.007825032230
         H           -0.882184669297     2.220125961420    -0.001888001364     1.007825032230
         H           -1.335019669297     1.191751961420    -1.368322001364     1.007825032230
         H           -0.456728669297    -1.774815038580    -0.119725001364     1.007825032230

  Basis Set: AUG-CC-PVTZ
    Blend: AUG-CC-PVTZ
  Basis Set: (AUG-CC-PVTZ AUX)
    Blend: AUG-CC-PVTZ-JKFIT
	 Reference Energy          =    -321.9539916507674207 [Eh]
	 Singles Energy            =      -0.0000000000000000 [Eh]
	 Same-Spin Energy          =      -0.3220508619195612 [Eh]
	 Opposite-Spin Energy      =      -1.0067188448994089 [Eh]
	 Correlation Energy        =      -1.3287697068189701 [Eh]
	 Total Energy              =    -323.2827613575863666 [Eh]

	 ================> DF-SCS-MP2 Energies <==================
	-----------------------------------------------------------
	 SCS Same-Spin Scale       =       0.3333333333333333 [-]
	 SCS Opposite-Spin Scale   =       1.2000000000000000 [-]
	 SCS Same-Spin Energy      =      -0.1073502873065204 [Eh]
	 SCS Opposite-Spin Energy  =      -1.2080626138792907 [Eh]
	 SCS Correlation Energy    =      -1.3154129011858111 [Eh]
	 SCS Total Energy          =    -323.2694045519532438 [Eh]
	-----------------------------------------------------------

  Dipole Moment: [D]
     X:    -9.8622      Y:    -2.8266      Z:     0.7372     Total:    10.2857

*** Psi4 exiting successfully. Buy a developer a beer!
