                               Psi4 1.4a3.dev225

  ==> Input File <==

--------------------------------------------------------------------------
#psi4
#
memory 32 gb

molecule  {
0 1
  O        1.5890300     1.0650170     0.1165590
  O        1.2943400    -1.1672870    -0.2725970
  N       -1.2047650    -1.1860200     0.0435410
  C       -0.5886430     0.1367320     0.4064510
  C       -1.2872470     1.2925570    -0.2818200
  C        0.9369708    -0.0367262     0.0273228
  H       -0.6685550     0.2311640     1.4926420
  H       -1.7458480    -1.1434940    -0.8256840
  H       -1.8050530    -1.5837490     0.7705650
  H       -2.3371450     1.3649650     0.0138330
  H       -0.7761520     2.2140110    -0.0029500
  H       -1.2289870     1.1856370    -1.3693840
  H       -0.3506960    -1.7809300    -0.1207870
units angstrom
no_reorient  #important for SAPT in psi4, default
symmetry c1  #important for SAPT in psi4, default
}

set PROPERTIES_ORIGIN ["COM"]
properties('MP2/aug-cc-pvtz', properties = ['dipole'])
--------------------------------------------------------------------------

    Molecular point group: c1
  Charge       = 0
  Multiplicity = 1
  Basis Set: AUG-CC-PVTZ
    Blend: AUG-CC-PVTZ
  Basis Set: (AUG-CC-PVTZ AUX)
    Blend: AUG-CC-PVTZ-JKFIT

    Orbital Energies [Eh]
    ---------------------

    Doubly Occupied:

       1A    -20.501443     2A    -20.462872     3A    -15.710242
       4A    -11.327903     5A    -11.308899     6A    -11.249601
       7A     -1.382879     8A     -1.323848     9A     -1.250326
      10A     -1.055899    11A     -0.907345    12A     -0.807804
      13A     -0.781196    14A     -0.720497    15A     -0.677000
      16A     -0.630993    17A     -0.581284    18A     -0.574089
      19A     -0.561416    20A     -0.553523    21A     -0.520428
      22A     -0.410844    23A     -0.376975    24A     -0.374534

  @DF-RHF Final Energy:  -321.95212028665395

   => Energetics <=

    Nuclear Repulsion Energy =            249.8615277232116227
    One-Electron Energy =                -935.5236151308934041
    Two-Electron Energy =                 363.7099671210278871
    Total Energy =                       -321.9521202866539511
  Basis Set: (AUG-CC-PVTZ AUX)
    Blend: AUG-CC-PVTZ-RI
    Molecular point group: c1

    Geometry (in Angstrom), charge = 0, multiplicity = 1:

       Center              X                  Y                   Z               Mass
    ------------   -----------------  -----------------  -----------------  -----------------
         O            1.487964625030     1.076713572553     0.117735368171    15.994914619570
         O            1.193274625030    -1.155590427447    -0.271420631829    15.994914619570
         N           -1.305830374970    -1.174323427447     0.044717368171    14.003074004430
         C           -0.689708374970     0.148428572553     0.407627368171    12.000000000000
         C           -1.388312374970     1.304253572553    -0.280643631829    12.000000000000
         C            0.835905425030    -0.025029627447     0.028499168171    12.000000000000
         H           -0.769620374970     0.242860572553     1.493818368171     1.007825032230
         H           -1.846913374970    -1.131797427447    -0.824507631829     1.007825032230
         H           -1.906118374970    -1.572052427447     0.771741368171     1.007825032230
         H           -2.438210374970     1.376661572553     0.015009368171     1.007825032230
         H           -0.877217374970     2.225707572553    -0.001773631829     1.007825032230
         H           -1.330052374970     1.197333572553    -1.368207631829     1.007825032230
         H           -0.451761374970    -1.769233427447    -0.119610631829     1.007825032230

  Basis Set: AUG-CC-PVTZ
    Blend: AUG-CC-PVTZ
  Basis Set: (AUG-CC-PVTZ AUX)
    Blend: AUG-CC-PVTZ-JKFIT
	 Reference Energy          =    -321.9521202866539511 [Eh]
	 Singles Energy            =      -0.0000000000000000 [Eh]
	 Same-Spin Energy          =      -0.3218603764367513 [Eh]
	 Opposite-Spin Energy      =      -1.0059919270372353 [Eh]
	 Correlation Energy        =      -1.3278523034739866 [Eh]
	 Total Energy              =    -323.2799725901279544 [Eh]

	 ================> DF-SCS-MP2 Energies <==================
	-----------------------------------------------------------
	 SCS Same-Spin Scale       =       0.3333333333333333 [-]
	 SCS Opposite-Spin Scale   =       1.2000000000000000 [-]
	 SCS Same-Spin Energy      =      -0.1072867921455838 [Eh]
	 SCS Opposite-Spin Energy  =      -1.2071903124446823 [Eh]
	 SCS Correlation Energy    =      -1.3144771045902661 [Eh]
	 SCS Total Energy          =    -323.2665973912442041 [Eh]
	-----------------------------------------------------------

  Dipole Moment: [D]
     X:    -9.6694      Y:    -3.2664      Z:     0.6217     Total:    10.2251

*** Psi4 exiting successfully. Buy a developer a beer!
