                               Psi4 1.3.2 release

  ==> Input File <==

--------------------------------------------------------------------------
#psi4
#
memory 32 gb

molecule  {
0 1
  O        1.5800181     1.0704395     0.1194788
  O        1.2839250    -1.1708950    -0.2712087
  N       -1.2047650    -1.1860200     0.0435410
  C       -0.5886430     0.1367320     0.4064510
  C       -1.2872470     1.2925570    -0.2818200
  C        0.9223610     0.0094930     0.0395840
  H       -0.6685550     0.2311640     1.4926420
  H       -1.7458480    -1.1434940    -0.8256840
  H       -1.8050530    -1.5837490     0.7705650
  H       -2.3371450     1.3649650     0.0138330
  H       -0.7761520     2.2140110    -0.0029500
  H       -1.2289870     1.1856370    -1.3693840
  H       -0.3506960    -1.7809300    -0.1207870
units angstrom
no_reorient  #important for SAPT in psi4, default
symmetry c1  #important for SAPT in psi4, default
}

set PROPERTIES_ORIGIN ["COM"]
properties('MP2/aug-cc-pvtz', properties = ['dipole'])
--------------------------------------------------------------------------

    Molecular point group: c1
  Charge       = 0
  Multiplicity = 1
  Basis Set: AUG-CC-PVTZ
    Blend: AUG-CC-PVTZ
  Basis Set: (AUG-CC-PVTZ AUX)
    Blend: AUG-CC-PVTZ-JKFIT

    Orbital Energies [Eh]
    ---------------------

    Doubly Occupied:

       1A    -20.490790     2A    -20.474290     3A    -15.708505
       4A    -11.328862     5A    -11.310007     6A    -11.250989
       7A     -1.367968     8A     -1.320841     9A     -1.256917
      10A     -1.059339    11A     -0.909374    12A     -0.805804
      13A     -0.778864    14A     -0.724814    15A     -0.675425
      16A     -0.628790    17A     -0.583643    18A     -0.571805
      19A     -0.561073    20A     -0.553167    21A     -0.512774
      22A     -0.408582    23A     -0.385068    24A     -0.378934

  @DF-RHF Final Energy:  -321.95549064104677

   => Energetics <=

    Nuclear Repulsion Energy =            249.9568175479656702
    One-Electron Energy =                -935.7313709540704849
    Two-Electron Energy =                 363.8190627650580495
    Total Energy =                       -321.9554906410467652
  Basis Set: (AUG-CC-PVTZ AUX)
    Blend: AUG-CC-PVTZ-RI
    Molecular point group: c1

    Geometry (in Angstrom), charge = 0, multiplicity = 1:

       Center              X                  Y                   Z               Mass
    ------------   -----------------  -----------------  -----------------  -----------------
         O            1.484411027988     1.075581683010     0.118229028654    15.994914619570
         O            1.188317927988    -1.165752816990    -0.272458471346    15.994914619570
         N           -1.300372072012    -1.180877816990     0.042291228654    14.003074004430
         C           -0.684250072012     0.141874183010     0.405201228654    12.000000000000
         C           -1.382854072012     1.297699183010    -0.283069771346    12.000000000000
         C            0.826753927988     0.014635183010     0.038334228654    12.000000000000
         H           -0.764162072012     0.236306183010     1.491392228654     1.007825032230
         H           -1.841455072012    -1.138351816990    -0.826933771346     1.007825032230
         H           -1.900660072012    -1.578606816990     0.769315228654     1.007825032230
         H           -2.432752072012     1.370107183010     0.012583228654     1.007825032230
         H           -0.871759072012     2.219153183010    -0.004199771346     1.007825032230
         H           -1.324594072012     1.190779183010    -1.370633771346     1.007825032230
         H           -0.446303072012    -1.775787816990    -0.122036771346     1.007825032230

  Basis Set: AUG-CC-PVTZ
    Blend: AUG-CC-PVTZ
  Basis Set: (AUG-CC-PVTZ AUX)
    Blend: AUG-CC-PVTZ-JKFIT
	 Reference Energy          =    -321.9554906410467652 [Eh]
	 Singles Energy            =      -0.0000000000000000 [Eh]
	 Same-Spin Energy          =      -0.3221736074188113 [Eh]
	 Opposite-Spin Energy      =      -1.0067441109191688 [Eh]
	 Correlation Energy        =      -1.3289177183379801 [Eh]
	 Total Energy              =    -323.2844083593847699 [Eh]

	 ================> DF-SCS-MP2 Energies <==================
	-----------------------------------------------------------
	 SCS Same-Spin Scale       =       0.3333333333333333 [-]
	 SCS Opposite-Spin Scale   =       1.2000000000000000 [-]
	 SCS Same-Spin Energy      =      -0.1073912024729371 [Eh]
	 SCS Opposite-Spin Energy  =      -1.2080929331030026 [Eh]
	 SCS Correlation Energy    =      -1.3154841355759397 [Eh]
	 SCS Total Energy          =    -323.2709747766227224 [Eh]
	-----------------------------------------------------------

  Dipole Moment: [D]
     X:    -9.6316      Y:    -2.8361      Z:     0.7017     Total:    10.0649

*** Psi4 exiting successfully. Buy a developer a beer!
