                               Psi4 1.4a3.dev225

  ==> Input File <==

--------------------------------------------------------------------------
#psi4
#
memory 32 gb

molecule  {
0 1
  O        1.5890300     1.0650170     0.1165590
  O        1.2943400    -1.1672870    -0.2725970
  N       -1.2047650    -1.1860200     0.0435410
  C       -0.5804480     0.1543258     0.4112780
  C       -1.2872470     1.2925570    -0.2818200
  C        0.9223610     0.0094930     0.0395840
  H       -0.6685550     0.2311640     1.4926420
  H       -1.7458480    -1.1434940    -0.8256840
  H       -1.8050530    -1.5837490     0.7705650
  H       -2.3371450     1.3649650     0.0138330
  H       -0.7761520     2.2140110    -0.0029500
  H       -1.2289870     1.1856370    -1.3693840
  H       -0.3506960    -1.7809300    -0.1207870
units angstrom
no_reorient  #important for SAPT in psi4, default
symmetry c1  #important for SAPT in psi4, default
}

set PROPERTIES_ORIGIN ["COM"]
properties('MP2/aug-cc-pvtz', properties = ['dipole'])
--------------------------------------------------------------------------

    Molecular point group: c1
  Charge       = 0
  Multiplicity = 1
  Basis Set: AUG-CC-PVTZ
    Blend: AUG-CC-PVTZ
  Basis Set: (AUG-CC-PVTZ AUX)
    Blend: AUG-CC-PVTZ-JKFIT

    Orbital Energies [Eh]
    ---------------------

    Doubly Occupied:

       1A    -20.489847     2A    -20.473154     3A    -15.707233
       4A    -11.328128     5A    -11.312797     6A    -11.251953
       7A     -1.366219     8A     -1.317828     9A     -1.255089
      10A     -1.062759    11A     -0.910104    12A     -0.803896
      13A     -0.776532    14A     -0.723073    15A     -0.675139
      16A     -0.630704    17A     -0.584773    18A     -0.573509
      19A     -0.560698    20A     -0.553835    21A     -0.513980
      22A     -0.407816    23A     -0.385397    24A     -0.377478

  @DF-RHF Final Energy:  -321.95511797707610

   => Energetics <=

    Nuclear Repulsion Energy =            249.7557642592764466
    One-Electron Energy =                -935.3378891411396125
    Two-Electron Energy =                 363.6270069047870379
    Total Energy =                       -321.9551179770760996
  Basis Set: (AUG-CC-PVTZ AUX)
    Blend: AUG-CC-PVTZ-RI
    Molecular point group: c1

    Geometry (in Angstrom), charge = 0, multiplicity = 1:

       Center              X                  Y                   Z               Mass
    ------------   -----------------  -----------------  -----------------  -----------------
         O            1.488829078784     1.068114179361     0.115432574841    15.994914619570
         O            1.194139078784    -1.164189820639    -0.273723425159    15.994914619570
         N           -1.304965921216    -1.182922820639     0.042414574841    14.003074004430
         C           -0.680648921216     0.157422979361     0.410151574841    12.000000000000
         C           -1.387447921216     1.295654179361    -0.282946425159    12.000000000000
         C            0.822160078784     0.012590179361     0.038457574841    12.000000000000
         H           -0.768755921216     0.234261179361     1.491515574841     1.007825032230
         H           -1.846048921216    -1.140396820639    -0.826810425159     1.007825032230
         H           -1.905253921216    -1.580651820639     0.769438574841     1.007825032230
         H           -2.437345921216     1.368062179361     0.012706574841     1.007825032230
         H           -0.876352921216     2.217108179361    -0.004076425159     1.007825032230
         H           -1.329187921216     1.188734179361    -1.370510425159     1.007825032230
         H           -0.450896921216    -1.777832820639    -0.121913425159     1.007825032230

  Basis Set: AUG-CC-PVTZ
    Blend: AUG-CC-PVTZ
  Basis Set: (AUG-CC-PVTZ AUX)
    Blend: AUG-CC-PVTZ-JKFIT
	 Reference Energy          =    -321.9551179770760996 [Eh]
	 Singles Energy            =      -0.0000000000000000 [Eh]
	 Same-Spin Energy          =      -0.3220440025564296 [Eh]
	 Opposite-Spin Energy      =      -1.0067534127590707 [Eh]
	 Correlation Energy        =      -1.3287974153155004 [Eh]
	 Total Energy              =    -323.2839153923915774 [Eh]

	 ================> DF-SCS-MP2 Energies <==================
	-----------------------------------------------------------
	 SCS Same-Spin Scale       =       0.3333333333333333 [-]
	 SCS Opposite-Spin Scale   =       1.2000000000000000 [-]
	 SCS Same-Spin Energy      =      -0.1073480008521432 [Eh]
	 SCS Opposite-Spin Energy  =      -1.2081040953108848 [Eh]
	 SCS Correlation Energy    =      -1.3154520961630281 [Eh]
	 SCS Total Energy          =    -323.2705700732391279 [Eh]
	-----------------------------------------------------------

  Dipole Moment: [D]
     X:    -9.6955      Y:    -2.7788      Z:     0.7230     Total:    10.1117

*** Psi4 exiting successfully. Buy a developer a beer!
