                               Psi4 1.3.2 release

  ==> Input File <==

--------------------------------------------------------------------------
#psi4
#
memory 32 gb

molecule  {
0 1
  O        1.5890300     1.0650170     0.1165590
  O        1.3558857    -1.1434710    -0.2819233
  N       -1.2047650    -1.1860200     0.0435410
  C       -0.5766264     0.2165111     0.4191820
  C       -1.2872470     1.2925570    -0.2818200
  C        0.9223610     0.0094930     0.0395840
  H       -0.6685550     0.2311640     1.4926420
  H       -1.7458480    -1.1434940    -0.8256840
  H       -1.8050530    -1.5837490     0.7705650
  H       -2.3371450     1.3649650     0.0138330
  H       -0.7761520     2.2140110    -0.0029500
  H       -1.2289870     1.1856370    -1.3693840
  H       -0.3506960    -1.7809300    -0.1207870
units angstrom
no_reorient  #important for SAPT in psi4, default
symmetry c1  #important for SAPT in psi4, default
}

set PROPERTIES_ORIGIN ["COM"]
properties('MP2/aug-cc-pvtz', properties = ['dipole'])
--------------------------------------------------------------------------

    Molecular point group: c1
  Charge       = 0
  Multiplicity = 1
  Basis Set: AUG-CC-PVTZ
    Blend: AUG-CC-PVTZ
  Basis Set: (AUG-CC-PVTZ AUX)
    Blend: AUG-CC-PVTZ-JKFIT

    Orbital Energies [Eh]
    ---------------------

    Doubly Occupied:

       1A    -20.487733     2A    -20.468750     3A    -15.704127
       4A    -11.326714     5A    -11.321196     6A    -11.253694
       7A     -1.360881     8A     -1.309717     9A     -1.249258
      10A     -1.076235    11A     -0.910271    12A     -0.798847
      13A     -0.771000    14A     -0.716421    15A     -0.673412
      16A     -0.637447    17A     -0.594898    18A     -0.573872
      19A     -0.561282    20A     -0.552366    21A     -0.516906
      22A     -0.404738    23A     -0.382803    24A     -0.372519

  @DF-RHF Final Energy:  -321.94736859711378

   => Energetics <=

    Nuclear Repulsion Energy =            249.0060169424693868
    One-Electron Energy =                -933.8565973620457044
    Two-Electron Energy =                 362.9032118224625378
    Total Energy =                       -321.9473685971137797
  Basis Set: (AUG-CC-PVTZ AUX)
    Blend: AUG-CC-PVTZ-RI
    Molecular point group: c1

    Geometry (in Angstrom), charge = 0, multiplicity = 1:

       Center              X                  Y                   Z               Mass
    ------------   -----------------  -----------------  -----------------  -----------------
         O            1.477259126210     1.055456258279     0.116042645459    15.994914619570
         O            1.244114826210    -1.153031741721    -0.282439654541    15.994914619570
         N           -1.316535873790    -1.195580741721     0.043024645459    14.003074004430
         C           -0.688397273790     0.206950358279     0.418665645459    12.000000000000
         C           -1.399017873790     1.282996258279    -0.282336354541    12.000000000000
         C            0.810590126210    -0.000067741721     0.039067645459    12.000000000000
         H           -0.780325873790     0.221603258279     1.492125645459     1.007825032230
         H           -1.857618873790    -1.153054741721    -0.826200354541     1.007825032230
         H           -1.916823873790    -1.593309741721     0.770048645459     1.007825032230
         H           -2.448915873790     1.355404258279     0.013316645459     1.007825032230
         H           -0.887922873790     2.204450258279    -0.003466354541     1.007825032230
         H           -1.340757873790     1.176076258279    -1.369900354541     1.007825032230
         H           -0.462466873790    -1.790490741721    -0.121303354541     1.007825032230

  Basis Set: AUG-CC-PVTZ
    Blend: AUG-CC-PVTZ
  Basis Set: (AUG-CC-PVTZ AUX)
    Blend: AUG-CC-PVTZ-JKFIT
	 Reference Energy          =    -321.9473685971137797 [Eh]
	 Singles Energy            =      -0.0000000000000000 [Eh]
	 Same-Spin Energy          =      -0.3219970802246950 [Eh]
	 Opposite-Spin Energy      =      -1.0072659554370700 [Eh]
	 Correlation Energy        =      -1.3292630356617650 [Eh]
	 Total Energy              =    -323.2766316327755476 [Eh]

	 ================> DF-SCS-MP2 Energies <==================
	-----------------------------------------------------------
	 SCS Same-Spin Scale       =       0.3333333333333333 [-]
	 SCS Opposite-Spin Scale   =       1.2000000000000000 [-]
	 SCS Same-Spin Energy      =      -0.1073323600748983 [Eh]
	 SCS Opposite-Spin Energy  =      -1.2087191465244840 [Eh]
	 SCS Correlation Energy    =      -1.3160515065993823 [Eh]
	 SCS Total Energy          =    -323.2634201037131447 [Eh]
	-----------------------------------------------------------

  Dipole Moment: [D]
     X:    -9.8923      Y:    -2.6530      Z:     0.7595     Total:    10.2700

*** Psi4 exiting successfully. Buy a developer a beer!
