                               Psi4 1.4a3.dev225

  ==> Input File <==

--------------------------------------------------------------------------
#psi4
#
memory 32 gb

molecule  {
0 1
  O        1.5890300     1.0650170     0.1165590
  O        1.2943400    -1.1672870    -0.2725970
  N       -1.2047650    -1.1860200     0.0435410
  C       -0.5886430     0.1367320     0.4064510
  C       -1.2872470     1.2925570    -0.2818200
  C        0.9223610     0.0094930     0.0395840
  H       -0.6685550     0.2311640     1.4926420
  H       -1.7352878    -1.1443240    -0.8087195
  H       -1.8050530    -1.5837490     0.7705650
  H       -2.3371450     1.3649650     0.0138330
  H       -0.7761520     2.2140110    -0.0029500
  H       -1.2289870     1.1856370    -1.3693840
  H       -0.3506960    -1.7809300    -0.1207870
units angstrom
no_reorient  #important for SAPT in psi4, default
symmetry c1  #important for SAPT in psi4, default
}

set PROPERTIES_ORIGIN ["COM"]
properties('MP2/aug-cc-pvtz', properties = ['dipole'])
--------------------------------------------------------------------------

    Molecular point group: c1
  Charge       = 0
  Multiplicity = 1
  Basis Set: AUG-CC-PVTZ
    Blend: AUG-CC-PVTZ
  Basis Set: (AUG-CC-PVTZ AUX)
    Blend: AUG-CC-PVTZ-JKFIT

    Orbital Energies [Eh]
    ---------------------

    Doubly Occupied:

       1A    -20.489751     2A    -20.473216     3A    -15.708195
       4A    -11.328179     5A    -11.311439     6A    -11.251759
       7A     -1.368503     8A     -1.323851     9A     -1.255071
      10A     -1.060873    11A     -0.911321    12A     -0.808411
      13A     -0.782859    14A     -0.725568    15A     -0.676519
      16A     -0.629139    17A     -0.583502    18A     -0.571733
      19A     -0.561525    20A     -0.553638    21A     -0.512618
      22A     -0.407433    23A     -0.385028    24A     -0.377490

  @DF-RHF Final Energy:  -321.95556430885154

   => Energetics <=

    Nuclear Repulsion Energy =            249.9221468956441754
    One-Electron Energy =                -935.6401795827325714
    Two-Electron Energy =                 363.7624683782369175
    Total Energy =                       -321.9555643088515353
  Basis Set: (AUG-CC-PVTZ AUX)
    Blend: AUG-CC-PVTZ-RI
    Molecular point group: c1

    Geometry (in Angstrom), charge = 0, multiplicity = 1:

       Center              X                  Y                   Z               Mass
    ------------   -----------------  -----------------  -----------------  -----------------
         O            1.489813912613     1.070494500762     0.115891056780    15.994914619570
         O            1.195123912613    -1.161809499238    -0.273264943220    15.994914619570
         N           -1.303981087387    -1.180542499238     0.042873056780    14.003074004430
         C           -0.687859087387     0.142209500762     0.405783056780    12.000000000000
         C           -1.386463087387     1.298034500762    -0.282487943220    12.000000000000
         C            0.823144912613     0.014970500762     0.038916056780    12.000000000000
         H           -0.767771087387     0.236641500762     1.491974056780     1.007825032230
         H           -1.834503887387    -1.138846499238    -0.809387443220     1.007825032230
         H           -1.904269087387    -1.578271499238     0.769897056780     1.007825032230
         H           -2.436361087387     1.370442500762     0.013165056780     1.007825032230
         H           -0.875368087387     2.219488500762    -0.003617943220     1.007825032230
         H           -1.328203087387     1.191114500762    -1.370051943220     1.007825032230
         H           -0.449912087387    -1.775452499238    -0.121454943220     1.007825032230

  Basis Set: AUG-CC-PVTZ
    Blend: AUG-CC-PVTZ
  Basis Set: (AUG-CC-PVTZ AUX)
    Blend: AUG-CC-PVTZ-JKFIT
	 Reference Energy          =    -321.9555643088515353 [Eh]
	 Singles Energy            =      -0.0000000000000000 [Eh]
	 Same-Spin Energy          =      -0.3220172105691418 [Eh]
	 Opposite-Spin Energy      =      -1.0063826909865110 [Eh]
	 Correlation Energy        =      -1.3283999015556529 [Eh]
	 Total Energy              =    -323.2839642104071913 [Eh]

	 ================> DF-SCS-MP2 Energies <==================
	-----------------------------------------------------------
	 SCS Same-Spin Scale       =       0.3333333333333333 [-]
	 SCS Opposite-Spin Scale   =       1.2000000000000000 [-]
	 SCS Same-Spin Energy      =      -0.1073390701897139 [Eh]
	 SCS Opposite-Spin Energy  =      -1.2076592291838131 [Eh]
	 SCS Correlation Energy    =      -1.3149982993735270 [Eh]
	 SCS Total Energy          =    -323.2705626082250774 [Eh]
	-----------------------------------------------------------

  Dipole Moment: [D]
     X:    -9.6987      Y:    -2.8339      Z:     0.7312     Total:    10.1307

*** Psi4 exiting successfully. Buy a developer a beer!
