                               Psi4 1.3.2 release

  ==> Input File <==

--------------------------------------------------------------------------
#psi4
#
memory 32 gb

molecule  {
0 1
  O        1.5710619     1.0756784     0.1228871
  O        1.2943400    -1.1672870    -0.2725970
  N       -1.2047650    -1.1860200     0.0435410
  C       -0.5849788     0.1632683     0.4113289
  C       -1.2872470     1.2925570    -0.2818200
  C        0.9223610     0.0094930     0.0395840
  H       -0.6685550     0.2311640     1.4926420
  H       -1.7458480    -1.1434940    -0.8256840
  H       -1.8050530    -1.5837490     0.7705650
  H       -2.3371450     1.3649650     0.0138330
  H       -0.7761520     2.2140110    -0.0029500
  H       -1.2289870     1.1856370    -1.3693840
  H       -0.3506960    -1.7809300    -0.1207870
units angstrom
no_reorient  #important for SAPT in psi4, default
symmetry c1  #important for SAPT in psi4, default
}

set PROPERTIES_ORIGIN ["COM"]
properties('MP2/aug-cc-pvtz', properties = ['dipole'])
--------------------------------------------------------------------------

    Molecular point group: c1
  Charge       = 0
  Multiplicity = 1
  Basis Set: AUG-CC-PVTZ
    Blend: AUG-CC-PVTZ
  Basis Set: (AUG-CC-PVTZ AUX)
    Blend: AUG-CC-PVTZ-JKFIT

    Orbital Energies [Eh]
    ---------------------

    Doubly Occupied:

       1A    -20.491310     2A    -20.473881     3A    -15.705868
       4A    -11.329055     5A    -11.311822     6A    -11.250918
       7A     -1.365732     8A     -1.316254     9A     -1.257014
      10A     -1.063653    11A     -0.908461    12A     -0.802340
      13A     -0.775334    14A     -0.721128    15A     -0.674694
      16A     -0.631400    17A     -0.585711    18A     -0.574466
      19A     -0.560305    20A     -0.553318    21A     -0.515190
      22A     -0.408825    23A     -0.384843    24A     -0.378774

  @DF-RHF Final Energy:  -321.95492233798348

   => Energetics <=

    Nuclear Repulsion Energy =            249.8018538311730481
    One-Electron Energy =                -935.4329542963865833
    Two-Electron Energy =                 363.6761781272300595
    Total Energy =                       -321.9549223379834757
  Basis Set: (AUG-CC-PVTZ AUX)
    Blend: AUG-CC-PVTZ-RI
    Molecular point group: c1

    Geometry (in Angstrom), charge = 0, multiplicity = 1:

       Center              X                  Y                   Z               Mass
    ------------   -----------------  -----------------  -----------------  -----------------
         O            1.474699010626     1.075655473508     0.120617150148    15.994914619570
         O            1.197977110626    -1.167309926492    -0.274866949852    15.994914619570
         N           -1.301127889374    -1.186042926492     0.041271050148    14.003074004430
         C           -0.681341689374     0.163245373508     0.409058950148    12.000000000000
         C           -1.383609889374     1.292534073508    -0.284089949852    12.000000000000
         C            0.825998110626     0.009470073508     0.037314050148    12.000000000000
         H           -0.764917889374     0.231141073508     1.490372050148     1.007825032230
         H           -1.842210889374    -1.143516926492    -0.827953949852     1.007825032230
         H           -1.901415889374    -1.583771926492     0.768295050148     1.007825032230
         H           -2.433507889374     1.364942073508     0.011563050148     1.007825032230
         H           -0.872514889374     2.213988073508    -0.005219949852     1.007825032230
         H           -1.325349889374     1.185614073508    -1.371653949852     1.007825032230
         H           -0.447058889374    -1.780952926492    -0.123056949852     1.007825032230

  Basis Set: AUG-CC-PVTZ
    Blend: AUG-CC-PVTZ
  Basis Set: (AUG-CC-PVTZ AUX)
    Blend: AUG-CC-PVTZ-JKFIT
	 Reference Energy          =    -321.9549223379834757 [Eh]
	 Singles Energy            =      -0.0000000000000000 [Eh]
	 Same-Spin Energy          =      -0.3221040700029191 [Eh]
	 Opposite-Spin Energy      =      -1.0068361002039317 [Eh]
	 Correlation Energy        =      -1.3289401702068506 [Eh]
	 Total Energy              =    -323.2838625081903388 [Eh]

	 ================> DF-SCS-MP2 Energies <==================
	-----------------------------------------------------------
	 SCS Same-Spin Scale       =       0.3333333333333333 [-]
	 SCS Opposite-Spin Scale   =       1.2000000000000000 [-]
	 SCS Same-Spin Energy      =      -0.1073680233343064 [Eh]
	 SCS Opposite-Spin Energy  =      -1.2082033202447180 [Eh]
	 SCS Correlation Energy    =      -1.3155713435790244 [Eh]
	 SCS Total Energy          =    -323.2704936815625274 [Eh]
	-----------------------------------------------------------

  Dipole Moment: [D]
     X:    -9.6223      Y:    -2.7847      Z:     0.7046     Total:    10.0419

*** Psi4 exiting successfully. Buy a developer a beer!
