                               Psi4 1.3.2 release

  ==> Input File <==

--------------------------------------------------------------------------
#psi4
#
memory 32 gb

molecule  {
0 1
  O        1.5526847     1.0862208     0.1282007
  O        1.2525179    -1.1811787    -0.2669022
  N       -1.2047650    -1.1860200     0.0435410
  C       -0.5886430     0.1367320     0.4064510
  C       -1.2872470     1.2925570    -0.2818200
  C        0.9223610     0.0094930     0.0395840
  H       -0.6685550     0.2311640     1.4926420
  H       -1.7458480    -1.1434940    -0.8256840
  H       -1.8050530    -1.5837490     0.7705650
  H       -2.3371450     1.3649650     0.0138330
  H       -0.7761520     2.2140110    -0.0029500
  H       -1.2289870     1.1856370    -1.3693840
  H       -0.3506960    -1.7809300    -0.1207870
units angstrom
no_reorient  #important for SAPT in psi4, default
symmetry c1  #important for SAPT in psi4, default
}

set PROPERTIES_ORIGIN ["COM"]
properties('MP2/aug-cc-pvtz', properties = ['dipole'])
--------------------------------------------------------------------------

    Molecular point group: c1
  Charge       = 0
  Multiplicity = 1
  Basis Set: AUG-CC-PVTZ
    Blend: AUG-CC-PVTZ
  Basis Set: (AUG-CC-PVTZ AUX)
    Blend: AUG-CC-PVTZ-JKFIT

    Orbital Energies [Eh]
    ---------------------

    Doubly Occupied:

       1A    -20.494192     2A    -20.477721     3A    -15.704721
       4A    -11.331280     5A    -11.306087     6A    -11.248870
       7A     -1.369416     8A     -1.318591     9A     -1.262810
      10A     -1.056622    11A     -0.906822    12A     -0.803038
      13A     -0.776827    14A     -0.724344    15A     -0.674681
      16A     -0.628208    17A     -0.585512    18A     -0.572058
      19A     -0.559814    20A     -0.551959    21A     -0.513511
      22A     -0.412760    23A     -0.384821    24A     -0.383418

  @DF-RHF Final Energy:  -321.95553880016325

   => Energetics <=

    Nuclear Repulsion Energy =            250.4029149723667160
    One-Electron Energy =                -936.6207369819578616
    Two-Electron Energy =                 364.2622832094278920
    Total Energy =                       -321.9555388001632537
  Basis Set: (AUG-CC-PVTZ AUX)
    Blend: AUG-CC-PVTZ-RI
    Molecular point group: c1

    Geometry (in Angstrom), charge = 0, multiplicity = 1:

       Center              X                  Y                   Z               Mass
    ------------   -----------------  -----------------  -----------------  -----------------
         O            1.467628709143     1.090375493565     0.124610742483    15.994914619570
         O            1.167461909143    -1.177024006435    -0.270492157517    15.994914619570
         N           -1.289820990857    -1.181865306435     0.039951042483    14.003074004430
         C           -0.673698990857     0.140886693565     0.402861042483    12.000000000000
         C           -1.372302990857     1.296711693565    -0.285409957517    12.000000000000
         C            0.837305009143     0.013647693565     0.035994042483    12.000000000000
         H           -0.753610990857     0.235318693565     1.489052042483     1.007825032230
         H           -1.830903990857    -1.139339306435    -0.829273957517     1.007825032230
         H           -1.890108990857    -1.579594306435     0.766975042483     1.007825032230
         H           -2.422200990857     1.369119693565     0.010243042483     1.007825032230
         H           -0.861207990857     2.218165693565    -0.006539957517     1.007825032230
         H           -1.314042990857     1.189791693565    -1.372973957517     1.007825032230
         H           -0.435751990857    -1.776775306435    -0.124376957517     1.007825032230

  Basis Set: AUG-CC-PVTZ
    Blend: AUG-CC-PVTZ
  Basis Set: (AUG-CC-PVTZ AUX)
    Blend: AUG-CC-PVTZ-JKFIT
	 Reference Energy          =    -321.9555388001632537 [Eh]
	 Singles Energy            =      -0.0000000000000000 [Eh]
	 Same-Spin Energy          =      -0.3223568750999655 [Eh]
	 Opposite-Spin Energy      =      -1.0068739475209172 [Eh]
	 Correlation Energy        =      -1.3292308226208827 [Eh]
	 Total Energy              =    -323.2847696227841539 [Eh]

	 ================> DF-SCS-MP2 Energies <==================
	-----------------------------------------------------------
	 SCS Same-Spin Scale       =       0.3333333333333333 [-]
	 SCS Opposite-Spin Scale   =       1.2000000000000000 [-]
	 SCS Same-Spin Energy      =      -0.1074522916999885 [Eh]
	 SCS Opposite-Spin Energy  =      -1.2082487370251005 [Eh]
	 SCS Correlation Energy    =      -1.3157010287250890 [Eh]
	 SCS Total Energy          =    -323.2712398288883264 [Eh]
	-----------------------------------------------------------

  Dipole Moment: [D]
     X:    -9.3955      Y:    -2.8441      Z:     0.6659     Total:     9.8391

*** Psi4 exiting successfully. Buy a developer a beer!
