                               Psi4 1.3.2 release

  ==> Input File <==

--------------------------------------------------------------------------
#psi4
#
memory 32 gb

molecule  {
0 1
  O        1.5890300     1.0650170     0.1165590
  O        1.2943400    -1.1672870    -0.2725970
  N       -1.2047650    -1.1860200     0.0435410
  C       -0.5384215     0.1890249     0.4387168
  C       -1.2872470     1.2925570    -0.2818200
  C        0.9223610     0.0094930     0.0395840
  H       -0.6685550     0.2311640     1.4926420
  H       -1.7458480    -1.1434940    -0.8256840
  H       -1.8050530    -1.5837490     0.7705650
  H       -2.3371450     1.3649650     0.0138330
  H       -0.7403824     2.1828156     0.0287325
  H       -1.2289870     1.1856370    -1.3693840
  H       -0.3506960    -1.7809300    -0.1207870
units angstrom
no_reorient  #important for SAPT in psi4, default
symmetry c1  #important for SAPT in psi4, default
}

set PROPERTIES_ORIGIN ["COM"]
properties('MP2/aug-cc-pvtz', properties = ['dipole'])
--------------------------------------------------------------------------

    Molecular point group: c1
  Charge       = 0
  Multiplicity = 1
  Basis Set: AUG-CC-PVTZ
    Blend: AUG-CC-PVTZ
  Basis Set: (AUG-CC-PVTZ AUX)
    Blend: AUG-CC-PVTZ-JKFIT

    Orbital Energies [Eh]
    ---------------------

    Doubly Occupied:

       1A    -20.490275     2A    -20.474048     3A    -15.698773
       4A    -11.327985     5A    -11.317233     6A    -11.254125
       7A     -1.365048     8A     -1.306613     9A     -1.256173
      10A     -1.065965    11A     -0.912547    12A     -0.797306
      13A     -0.766880    14A     -0.722544    15A     -0.673488
      16A     -0.634814    17A     -0.589886    18A     -0.578260
      19A     -0.562860    20A     -0.546444    21A     -0.516089
      22A     -0.409994    23A     -0.388237    24A     -0.378195

  @DF-RHF Final Energy:  -321.95065609812940

   => Energetics <=

    Nuclear Repulsion Energy =            249.7335479865415380
    One-Electron Energy =                -935.3008444729481425
    Two-Electron Energy =                 363.6166403882771760
    Total Energy =                       -321.9506560981294001
  Basis Set: (AUG-CC-PVTZ AUX)
    Blend: AUG-CC-PVTZ-RI
    Molecular point group: c1

    Geometry (in Angstrom), charge = 0, multiplicity = 1:

       Center              X                  Y                   Z               Mass
    ------------   -----------------  -----------------  -----------------  -----------------
         O            1.482760784725     1.063791217756     0.111376365597    15.994914619570
         O            1.188070784725    -1.168512782244    -0.277779634403    15.994914619570
         N           -1.311034215275    -1.187245782244     0.038358365597    14.003074004430
         C           -0.644690715275     0.187799117756     0.433534165597    12.000000000000
         C           -1.393516215275     1.291331217756    -0.287002634403    12.000000000000
         C            0.816091784725     0.008267217756     0.034401365597    12.000000000000
         H           -0.774824215275     0.229938217756     1.487459365597     1.007825032230
         H           -1.852117215275    -1.144719782244    -0.830866634403     1.007825032230
         H           -1.911322215275    -1.584974782244     0.765382365597     1.007825032230
         H           -2.443414215275     1.363739217756     0.008650365597     1.007825032230
         H           -0.846651615275     2.181589817756     0.023549865597     1.007825032230
         H           -1.335256215275     1.184411217756    -1.374566634403     1.007825032230
         H           -0.456965215275    -1.782155782244    -0.125969634403     1.007825032230

  Basis Set: AUG-CC-PVTZ
    Blend: AUG-CC-PVTZ
  Basis Set: (AUG-CC-PVTZ AUX)
    Blend: AUG-CC-PVTZ-JKFIT
	 Reference Energy          =    -321.9506560981294001 [Eh]
	 Singles Energy            =      -0.0000000000000000 [Eh]
	 Same-Spin Energy          =      -0.3218906664378324 [Eh]
	 Opposite-Spin Energy      =      -1.0070708160525066 [Eh]
	 Correlation Energy        =      -1.3289614824903391 [Eh]
	 Total Energy              =    -323.2796175806197425 [Eh]

	 ================> DF-SCS-MP2 Energies <==================
	-----------------------------------------------------------
	 SCS Same-Spin Scale       =       0.3333333333333333 [-]
	 SCS Opposite-Spin Scale   =       1.2000000000000000 [-]
	 SCS Same-Spin Energy      =      -0.1072968888126108 [Eh]
	 SCS Opposite-Spin Energy  =      -1.2084849792630079 [Eh]
	 SCS Correlation Energy    =      -1.3157818680756188 [Eh]
	 SCS Total Energy          =    -323.2664379662050465 [Eh]
	-----------------------------------------------------------

  Dipole Moment: [D]
     X:    -9.6280      Y:    -2.6405      Z:     0.7844     Total:    10.0143

*** Psi4 exiting successfully. Buy a developer a beer!
