                               Psi4 1.3.2 release

  ==> Input File <==

--------------------------------------------------------------------------
#psi4
#
memory 32 gb

molecule  {
0 1
  O        1.6067950     1.0540341     0.1102074
  O        1.2943400    -1.1672870    -0.2725970
  N       -1.2047650    -1.1860200     0.0435410
  C       -0.5918470     0.1101570     0.4014613
  C       -1.2872470     1.2925570    -0.2818200
  C        0.9223610     0.0094930     0.0395840
  H       -0.6685550     0.2311640     1.4926420
  H       -1.7458480    -1.1434940    -0.8256840
  H       -1.8050530    -1.5837490     0.7705650
  H       -2.3371450     1.3649650     0.0138330
  H       -0.7761520     2.2140110    -0.0029500
  H       -1.2289870     1.1856370    -1.3693840
  H       -0.3506960    -1.7809300    -0.1207870
units angstrom
no_reorient  #important for SAPT in psi4, default
symmetry c1  #important for SAPT in psi4, default
}

set PROPERTIES_ORIGIN ["COM"]
properties('MP2/aug-cc-pvtz', properties = ['dipole'])
--------------------------------------------------------------------------

    Molecular point group: c1
  Charge       = 0
  Multiplicity = 1
  Basis Set: AUG-CC-PVTZ
    Blend: AUG-CC-PVTZ
  Basis Set: (AUG-CC-PVTZ AUX)
    Blend: AUG-CC-PVTZ-JKFIT

    Orbital Energies [Eh]
    ---------------------

    Doubly Occupied:

       1A    -20.487969     2A    -20.472480     3A    -15.713190
       4A    -11.327210     5A    -11.310990     6A    -11.252536
       7A     -1.370204     8A     -1.326424     9A     -1.252798
      10A     -1.056890    11A     -0.912135    12A     -0.811066
      13A     -0.783724    14A     -0.729826    15A     -0.675826
      16A     -0.626615    17A     -0.581251    18A     -0.569771
      19A     -0.561353    20A     -0.553262    21A     -0.509473
      22A     -0.405866    23A     -0.384804    24A     -0.376076

  @DF-RHF Final Energy:  -321.95375554826626

   => Energetics <=

    Nuclear Repulsion Energy =            249.8457920950282301
    One-Electron Energy =                -935.4956177305645042
    Two-Electron Energy =                 363.6960700872699590
    Total Energy =                       -321.9537555482662583
  Basis Set: (AUG-CC-PVTZ AUX)
    Blend: AUG-CC-PVTZ-RI
    Molecular point group: c1

    Geometry (in Angstrom), charge = 0, multiplicity = 1:

       Center              X                  Y                   Z               Mass
    ------------   -----------------  -----------------  -----------------  -----------------
         O            1.504939216347     1.065056204074     0.111544752713    15.994914619570
         O            1.192484216347    -1.156264895926    -0.271259647287    15.994914619570
         N           -1.306620783653    -1.174997895926     0.044878352713    14.003074004430
         C           -0.693702783653     0.121179104074     0.402798652713    12.000000000000
         C           -1.389102783653     1.303579104074    -0.280482647287    12.000000000000
         C            0.820505216347     0.020515104074     0.040921352713    12.000000000000
         H           -0.770410783653     0.242186104074     1.493979352713     1.007825032230
         H           -1.847703783653    -1.132471895926    -0.824346647287     1.007825032230
         H           -1.906908783653    -1.572726895926     0.771902352713     1.007825032230
         H           -2.439000783653     1.375987104074     0.015170352713     1.007825032230
         H           -0.878007783653     2.225033104074    -0.001612647287     1.007825032230
         H           -1.330842783653     1.196659104074    -1.368046647287     1.007825032230
         H           -0.452551783653    -1.769907895926    -0.119449647287     1.007825032230

  Basis Set: AUG-CC-PVTZ
    Blend: AUG-CC-PVTZ
  Basis Set: (AUG-CC-PVTZ AUX)
    Blend: AUG-CC-PVTZ-JKFIT
	 Reference Energy          =    -321.9537555482662583 [Eh]
	 Singles Energy            =      -0.0000000000000000 [Eh]
	 Same-Spin Energy          =      -0.3222132300982942 [Eh]
	 Opposite-Spin Energy      =      -1.0067168600588641 [Eh]
	 Correlation Energy        =      -1.3289300901571584 [Eh]
	 Total Energy              =    -323.2826856384234020 [Eh]

	 ================> DF-SCS-MP2 Energies <==================
	-----------------------------------------------------------
	 SCS Same-Spin Scale       =       0.3333333333333333 [-]
	 SCS Opposite-Spin Scale   =       1.2000000000000000 [-]
	 SCS Same-Spin Energy      =      -0.1074044100327647 [Eh]
	 SCS Opposite-Spin Energy  =      -1.2080602320706368 [Eh]
	 SCS Correlation Energy    =      -1.3154646421034015 [Eh]
	 SCS Total Energy          =    -323.2692201903696514 [Eh]
	-----------------------------------------------------------

  Dipole Moment: [D]
     X:    -9.7898      Y:    -2.8728      Z:     0.7227     Total:    10.2282

*** Psi4 exiting successfully. Buy a developer a beer!
