                               Psi4 1.4a3.dev225

  ==> Input File <==

--------------------------------------------------------------------------
#psi4
#
memory 32 gb

molecule  {
0 1
  O        1.5890300     1.0650170     0.1165590
  O        1.2943400    -1.1672870    -0.2725970
  N       -1.2047650    -1.1860200     0.0435410
  C       -0.5886430     0.1367320     0.4064510
  C       -1.2872470     1.2925570    -0.2818200
  C        0.9223610     0.0094930     0.0395840
  H       -0.6685550     0.2311640     1.4926420
  H       -1.7722485    -1.1414191    -0.8680952
  H       -1.8050530    -1.5837490     0.7705650
  H       -2.3371450     1.3649650     0.0138330
  H       -0.7761520     2.2140110    -0.0029500
  H       -1.2289870     1.1856370    -1.3693840
  H       -0.3506960    -1.7809300    -0.1207870
units angstrom
no_reorient  #important for SAPT in psi4, default
symmetry c1  #important for SAPT in psi4, default
}

set PROPERTIES_ORIGIN ["COM"]
properties('MP2/aug-cc-pvtz', properties = ['dipole'])
--------------------------------------------------------------------------

    Molecular point group: c1
  Charge       = 0
  Multiplicity = 1
  Basis Set: AUG-CC-PVTZ
    Blend: AUG-CC-PVTZ
  Basis Set: (AUG-CC-PVTZ AUX)
    Blend: AUG-CC-PVTZ-JKFIT

    Orbital Energies [Eh]
    ---------------------

    Doubly Occupied:

       1A    -20.489326     2A    -20.472911     3A    -15.713310
       4A    -11.327800     5A    -11.310955     6A    -11.251504
       7A     -1.365676     8A     -1.316233     9A     -1.254369
      10A     -1.058773    11A     -0.907784    12A     -0.803553
      13A     -0.770643    14A     -0.723509    15A     -0.673305
      16A     -0.628415    17A     -0.582500    18A     -0.571479
      19A     -0.560943    20A     -0.553282    21A     -0.512158
      22A     -0.406972    23A     -0.384654    24A     -0.377131

  @DF-RHF Final Energy:  -321.95157689457056

   => Energetics <=

    Nuclear Repulsion Energy =            249.5629304639309112
    One-Electron Energy =                -934.9946449216319024
    Two-Electron Energy =                 363.4801375631304268
    Total Energy =                       -321.9515768945705645
  Basis Set: (AUG-CC-PVTZ AUX)
    Blend: AUG-CC-PVTZ-RI
    Molecular point group: c1

    Geometry (in Angstrom), charge = 0, multiplicity = 1:

       Center              X                  Y                   Z               Mass
    ------------   -----------------  -----------------  -----------------  -----------------
         O            1.490232226928     1.070461623645     0.116563059889    15.994914619570
         O            1.195542226928    -1.161842376355    -0.272592940111    15.994914619570
         N           -1.303562773072    -1.180575376355     0.043545059889    14.003074004430
         C           -0.687440773072     0.142176623645     0.406455059889    12.000000000000
         C           -1.386044773072     1.298001623645    -0.281815940111    12.000000000000
         C            0.823563226928     0.014937623645     0.039588059889    12.000000000000
         H           -0.767352773072     0.236608623645     1.492646059889     1.007825032230
         H           -1.871046273072    -1.135974476355    -0.868091140111     1.007825032230
         H           -1.903850773072    -1.578304376355     0.770569059889     1.007825032230
         H           -2.435942773072     1.370409623645     0.013837059889     1.007825032230
         H           -0.874949773072     2.219455623645    -0.002945940111     1.007825032230
         H           -1.327784773072     1.191081623645    -1.369379940111     1.007825032230
         H           -0.449493773072    -1.775485376355    -0.120782940111     1.007825032230

  Basis Set: AUG-CC-PVTZ
    Blend: AUG-CC-PVTZ
  Basis Set: (AUG-CC-PVTZ AUX)
    Blend: AUG-CC-PVTZ-JKFIT
	 Reference Energy          =    -321.9515768945705645 [Eh]
	 Singles Energy            =      -0.0000000000000000 [Eh]
	 Same-Spin Energy          =      -0.3224067734445311 [Eh]
	 Opposite-Spin Energy      =      -1.0076270584601832 [Eh]
	 Correlation Energy        =      -1.3300338319047142 [Eh]
	 Total Energy              =    -323.2816107264752645 [Eh]

	 ================> DF-SCS-MP2 Energies <==================
	-----------------------------------------------------------
	 SCS Same-Spin Scale       =       0.3333333333333333 [-]
	 SCS Opposite-Spin Scale   =       1.2000000000000000 [-]
	 SCS Same-Spin Energy      =      -0.1074689244815104 [Eh]
	 SCS Opposite-Spin Energy  =      -1.2091524701522198 [Eh]
	 SCS Correlation Energy    =      -1.3166213946337302 [Eh]
	 SCS Total Energy          =    -323.2681982892042925 [Eh]
	-----------------------------------------------------------

  Dipole Moment: [D]
     X:    -9.7346      Y:    -2.8302      Z:     0.6694     Total:    10.1597

*** Psi4 exiting successfully. Buy a developer a beer!
