                               Psi4 1.3.2 release

  ==> Input File <==

--------------------------------------------------------------------------
#psi4
#
memory 32 gb

molecule  {
0 1
  O        1.5890300     1.0650170     0.1165590
  O        1.2943400    -1.1672870    -0.2725970
  N       -1.2047650    -1.1860200     0.0435410
  C       -0.6058160     0.1199982     0.3952720
  C       -1.2872470     1.2925570    -0.2818200
  C        0.9223610     0.0094930     0.0395840
  H       -0.6685550     0.2311640     1.4926420
  H       -1.7458480    -1.1434940    -0.8256840
  H       -1.8050530    -1.5837490     0.7705650
  H       -2.3371450     1.3649650     0.0138330
  H       -0.7883915     2.2238523    -0.0136851
  H       -1.2289870     1.1856370    -1.3693840
  H       -0.3506960    -1.7809300    -0.1207870
units angstrom
no_reorient  #important for SAPT in psi4, default
symmetry c1  #important for SAPT in psi4, default
}

set PROPERTIES_ORIGIN ["COM"]
properties('MP2/aug-cc-pvtz', properties = ['dipole'])
--------------------------------------------------------------------------

    Molecular point group: c1
  Charge       = 0
  Multiplicity = 1
  Basis Set: AUG-CC-PVTZ
    Blend: AUG-CC-PVTZ
  Basis Set: (AUG-CC-PVTZ AUX)
    Blend: AUG-CC-PVTZ-JKFIT

    Orbital Energies [Eh]
    ---------------------

    Doubly Occupied:

       1A    -20.489577     2A    -20.473145     3A    -15.712727
       4A    -11.328374     5A    -11.309730     6A    -11.251095
       7A     -1.369551     8A     -1.325958     9A     -1.254607
      10A     -1.058509    11A     -0.909905    12A     -0.810010
      13A     -0.783869    14A     -0.726911    15A     -0.675169
      16A     -0.627145    17A     -0.582959    18A     -0.568020
      19A     -0.564111    20A     -0.551783    21A     -0.510887
      22A     -0.406484    23A     -0.383716    24A     -0.377335

  @DF-RHF Final Energy:  -321.95399529413436

   => Energetics <=

    Nuclear Repulsion Energy =            249.8467271337876809
    One-Electron Energy =                -935.4982912485564839
    Two-Electron Energy =                 363.6975688206344444
    Total Energy =                       -321.9539952941343586
  Basis Set: (AUG-CC-PVTZ AUX)
    Blend: AUG-CC-PVTZ-RI
    Molecular point group: c1

    Geometry (in Angstrom), charge = 0, multiplicity = 1:

       Center              X                  Y                   Z               Mass
    ------------   -----------------  -----------------  -----------------  -----------------
         O            1.492386176284     1.072628759622     0.117711029552    15.994914619570
         O            1.197696176284    -1.159675240378    -0.271444970448    15.994914619570
         N           -1.301408823716    -1.178408240378     0.044693029552    14.003074004430
         C           -0.702459823716     0.127609959622     0.396424029552    12.000000000000
         C           -1.383890823716     1.300168759622    -0.280667970448    12.000000000000
         C            0.825717176284     0.017104759622     0.040736029552    12.000000000000
         H           -0.765198823716     0.238775759622     1.493794029552     1.007825032230
         H           -1.842491823716    -1.135882240378    -0.824531970448     1.007825032230
         H           -1.901696823716    -1.576137240378     0.771717029552     1.007825032230
         H           -2.433788823716     1.372576759622     0.014985029552     1.007825032230
         H           -0.885035323716     2.231464059622    -0.012533070448     1.007825032230
         H           -1.325630823716     1.193248759622    -1.368231970448     1.007825032230
         H           -0.447339823716    -1.773318240378    -0.119634970448     1.007825032230

  Basis Set: AUG-CC-PVTZ
    Blend: AUG-CC-PVTZ
  Basis Set: (AUG-CC-PVTZ AUX)
    Blend: AUG-CC-PVTZ-JKFIT
	 Reference Energy          =    -321.9539952941343586 [Eh]
	 Singles Energy            =      -0.0000000000000000 [Eh]
	 Same-Spin Energy          =      -0.3223225259408389 [Eh]
	 Opposite-Spin Energy      =      -1.0067927048704339 [Eh]
	 Correlation Energy        =      -1.3291152308112728 [Eh]
	 Total Energy              =    -323.2831105249456414 [Eh]

	 ================> DF-SCS-MP2 Energies <==================
	-----------------------------------------------------------
	 SCS Same-Spin Scale       =       0.3333333333333333 [-]
	 SCS Opposite-Spin Scale   =       1.2000000000000000 [-]
	 SCS Same-Spin Energy      =      -0.1074408419802796 [Eh]
	 SCS Opposite-Spin Energy  =      -1.2081512458445207 [Eh]
	 SCS Correlation Energy    =      -1.3155920878248004 [Eh]
	 SCS Total Energy          =    -323.2695873819591839 [Eh]
	-----------------------------------------------------------

  Dipole Moment: [D]
     X:    -9.7200      Y:    -2.8853      Z:     0.6899     Total:    10.1626

*** Psi4 exiting successfully. Buy a developer a beer!
