                               Psi4 1.3.2 release

  ==> Input File <==

--------------------------------------------------------------------------
#psi4
#
memory 32 gb

molecule  {
0 1
  O        1.5979911     1.0595141     0.1136334
  O        1.3047267    -1.1635894    -0.2739615
  N       -1.2047650    -1.1860200     0.0435410
  C       -0.5886430     0.1367320     0.4064510
  C       -1.2872470     1.2925570    -0.2818200
  C        0.9223610     0.0094930     0.0395840
  H       -0.6685550     0.2311640     1.4926420
  H       -1.7458480    -1.1434940    -0.8256840
  H       -1.8050530    -1.5837490     0.7705650
  H       -2.3371450     1.3649650     0.0138330
  H       -0.7761520     2.2140110    -0.0029500
  H       -1.2289870     1.1856370    -1.3693840
  H       -0.3506960    -1.7809300    -0.1207870
units angstrom
no_reorient  #important for SAPT in psi4, default
symmetry c1  #important for SAPT in psi4, default
}

set PROPERTIES_ORIGIN ["COM"]
properties('MP2/aug-cc-pvtz', properties = ['dipole'])
--------------------------------------------------------------------------

    Molecular point group: c1
  Charge       = 0
  Multiplicity = 1
  Basis Set: AUG-CC-PVTZ
    Blend: AUG-CC-PVTZ
  Basis Set: (AUG-CC-PVTZ AUX)
    Blend: AUG-CC-PVTZ-JKFIT

    Orbital Energies [Eh]
    ---------------------

    Doubly Occupied:

       1A    -20.488454     2A    -20.471956     3A    -15.710951
       4A    -11.327284     5A    -11.312576     6A    -11.252377
       7A     -1.367184     8A     -1.322314     9A     -1.252787
      10A     -1.061126    11A     -0.911057    12A     -0.807633
      13A     -0.780281    14A     -0.725238    15A     -0.675919
      16A     -0.629066    17A     -0.582912    18A     -0.571517
      19A     -0.561556    20A     -0.553879    21A     -0.512182
      22A     -0.406111    23A     -0.384609    24A     -0.375823

  @DF-RHF Final Energy:  -321.95465318034769

   => Energetics <=

    Nuclear Repulsion Energy =            249.6791048634057972
    One-Electron Energy =                -935.1779292111739323
    Two-Electron Energy =                 363.5441711674204726
    Total Energy =                       -321.9546531803476910
  Basis Set: (AUG-CC-PVTZ AUX)
    Blend: AUG-CC-PVTZ-RI
    Molecular point group: c1

    Geometry (in Angstrom), charge = 0, multiplicity = 1:

       Center              X                  Y                   Z               Mass
    ------------   -----------------  -----------------  -----------------  -----------------
         O            1.495419242083     1.065306478421     0.113928053811    15.994914619570
         O            1.202154842083    -1.157797021579    -0.273666846189    15.994914619570
         N           -1.307336857917    -1.180227621579     0.043835653811    14.003074004430
         C           -0.691214857917     0.142524378421     0.406745653811    12.000000000000
         C           -1.389818857917     1.298349378421    -0.281525346189    12.000000000000
         C            0.819789142083     0.015285378421     0.039878653811    12.000000000000
         H           -0.771126857917     0.236956378421     1.492936653811     1.007825032230
         H           -1.848419857917    -1.137701621579    -0.825389346189     1.007825032230
         H           -1.907624857917    -1.577956621579     0.770859653811     1.007825032230
         H           -2.439716857917     1.370757378421     0.014127653811     1.007825032230
         H           -0.878723857917     2.219803378421    -0.002655346189     1.007825032230
         H           -1.331558857917     1.191429378421    -1.369089346189     1.007825032230
         H           -0.453267857917    -1.775137621579    -0.120492346189     1.007825032230

  Basis Set: AUG-CC-PVTZ
    Blend: AUG-CC-PVTZ
  Basis Set: (AUG-CC-PVTZ AUX)
    Blend: AUG-CC-PVTZ-JKFIT
	 Reference Energy          =    -321.9546531803476910 [Eh]
	 Singles Energy            =      -0.0000000000000000 [Eh]
	 Same-Spin Energy          =      -0.3220850133275445 [Eh]
	 Opposite-Spin Energy      =      -1.0067154961446154 [Eh]
	 Correlation Energy        =      -1.3288005094721600 [Eh]
	 Total Energy              =    -323.2834536898198508 [Eh]

	 ================> DF-SCS-MP2 Energies <==================
	-----------------------------------------------------------
	 SCS Same-Spin Scale       =       0.3333333333333333 [-]
	 SCS Opposite-Spin Scale   =       1.2000000000000000 [-]
	 SCS Same-Spin Energy      =      -0.1073616711091815 [Eh]
	 SCS Opposite-Spin Energy  =      -1.2080585953735385 [Eh]
	 SCS Correlation Energy    =      -1.3154202664827201 [Eh]
	 SCS Total Energy          =    -323.2700734468303949 [Eh]
	-----------------------------------------------------------

  Dipole Moment: [D]
     X:    -9.7860      Y:    -2.8299      Z:     0.7254     Total:    10.2127

*** Psi4 exiting successfully. Buy a developer a beer!
