                               Psi4 1.3.2 release

  ==> Input File <==

--------------------------------------------------------------------------
#psi4
#
memory 32 gb

molecule  {
0 1
  O        1.6420114     1.0308086     0.0989250
  O        1.3562076    -1.1437670    -0.2804241
  N       -1.2047650    -1.1860200     0.0435410
  C       -0.5886430     0.1367320     0.4064510
  C       -1.2872470     1.2925570    -0.2818200
  C        0.9223610     0.0094930     0.0395840
  H       -0.6685550     0.2311640     1.4926420
  H       -1.7458480    -1.1434940    -0.8256840
  H       -1.8050530    -1.5837490     0.7705650
  H       -2.3371450     1.3649650     0.0138330
  H       -0.7761520     2.2140110    -0.0029500
  H       -1.2289870     1.1856370    -1.3693840
  H       -0.3506960    -1.7809300    -0.1207870
units angstrom
no_reorient  #important for SAPT in psi4, default
symmetry c1  #important for SAPT in psi4, default
}

set PROPERTIES_ORIGIN ["COM"]
properties('MP2/aug-cc-pvtz', properties = ['dipole'])
--------------------------------------------------------------------------

    Molecular point group: c1
  Charge       = 0
  Multiplicity = 1
  Basis Set: AUG-CC-PVTZ
    Blend: AUG-CC-PVTZ
  Basis Set: (AUG-CC-PVTZ AUX)
    Blend: AUG-CC-PVTZ-JKFIT

    Orbital Energies [Eh]
    ---------------------

    Doubly Occupied:

       1A    -20.482381     2A    -20.465953     3A    -15.716793
       4A    -11.323477     5A    -11.318828     6A    -11.255761
       7A     -1.365881     8A     -1.325821     9A     -1.241821
      10A     -1.065500    11A     -0.915192    12A     -0.812124
      13A     -0.783946    14A     -0.726671    15A     -0.677207
      16A     -0.629365    17A     -0.582666    18A     -0.571604
      19A     -0.561064    20A     -0.554708    21A     -0.510427
      22A     -0.402191    23A     -0.379984    24A     -0.367791

  @DF-RHF Final Energy:  -321.94970659544094

   => Energetics <=

    Nuclear Repulsion Energy =            249.0542667601039284
    One-Electron Energy =                -933.9336301695268503
    Two-Electron Energy =                 362.9296568139819783
    Total Energy =                       -321.9497065954409436
  Basis Set: (AUG-CC-PVTZ AUX)
    Blend: AUG-CC-PVTZ-RI
    Molecular point group: c1

    Geometry (in Angstrom), charge = 0, multiplicity = 1:

       Center              X                  Y                   Z               Mass
    ------------   -----------------  -----------------  -----------------  -----------------
         O            1.522285433561     1.038196577863     0.103022429395    15.994914619570
         O            1.236481633561    -1.136379022137    -0.276326670605    15.994914619570
         N           -1.324490966439    -1.178632022137     0.047638429395    14.003074004430
         C           -0.708368966439     0.144119977863     0.410548429395    12.000000000000
         C           -1.406972966439     1.299944977863    -0.277722570605    12.000000000000
         C            0.802635033561     0.016880977863     0.043681429395    12.000000000000
         H           -0.788280966439     0.238551977863     1.496739429395     1.007825032230
         H           -1.865573966439    -1.136106022137    -0.821586570605     1.007825032230
         H           -1.924778966439    -1.576361022137     0.774662429395     1.007825032230
         H           -2.456870966439     1.372352977863     0.017930429395     1.007825032230
         H           -0.895877966439     2.221398977863     0.001147429395     1.007825032230
         H           -1.348712966439     1.193024977863    -1.365286570605     1.007825032230
         H           -0.470421966439    -1.773542022137    -0.116689570605     1.007825032230

  Basis Set: AUG-CC-PVTZ
    Blend: AUG-CC-PVTZ
  Basis Set: (AUG-CC-PVTZ AUX)
    Blend: AUG-CC-PVTZ-JKFIT
	 Reference Energy          =    -321.9497065954409436 [Eh]
	 Singles Energy            =      -0.0000000000000000 [Eh]
	 Same-Spin Energy          =      -0.3219828532097131 [Eh]
	 Opposite-Spin Energy      =      -1.0068527436655883 [Eh]
	 Correlation Energy        =      -1.3288355968753014 [Eh]
	 Total Energy              =    -323.2785421923162517 [Eh]

	 ================> DF-SCS-MP2 Energies <==================
	-----------------------------------------------------------
	 SCS Same-Spin Scale       =       0.3333333333333333 [-]
	 SCS Opposite-Spin Scale   =       1.2000000000000000 [-]
	 SCS Same-Spin Energy      =      -0.1073276177365710 [Eh]
	 SCS Opposite-Spin Energy  =      -1.2082232923987060 [Eh]
	 SCS Correlation Energy    =      -1.3155509101352769 [Eh]
	 SCS Total Energy          =    -323.2652575055762441 [Eh]
	-----------------------------------------------------------

  Dipole Moment: [D]
     X:   -10.1606      Y:    -2.8115      Z:     0.7837     Total:    10.5715

*** Psi4 exiting successfully. Buy a developer a beer!
