                               Psi4 1.3.2 release

  ==> Input File <==

--------------------------------------------------------------------------
#psi4
#
memory 32 gb

molecule  {
0 1
  O        1.5890300     1.0650170     0.1165590
  O        1.2943400    -1.1672870    -0.2725970
  N       -1.2047650    -1.1860200     0.0435410
  C       -0.5886430     0.1367320     0.4064510
  C       -1.3794223     1.4450591    -0.3726320
  C        0.9223610     0.0094930     0.0395840
  H       -0.6685550     0.2311640     1.4926420
  H       -1.7458480    -1.1434940    -0.8256840
  H       -1.8050530    -1.5837490     0.7705650
  H       -2.3371450     1.3649650     0.0138330
  H       -0.7761520     2.2140110    -0.0029500
  H       -1.2289870     1.1856370    -1.3693840
  H       -0.3506960    -1.7809300    -0.1207870
units angstrom
no_reorient  #important for SAPT in psi4, default
symmetry c1  #important for SAPT in psi4, default
}

set PROPERTIES_ORIGIN ["COM"]
properties('MP2/aug-cc-pvtz', properties = ['dipole'])
--------------------------------------------------------------------------

    Molecular point group: c1
  Charge       = 0
  Multiplicity = 1
  Basis Set: AUG-CC-PVTZ
    Blend: AUG-CC-PVTZ
  Basis Set: (AUG-CC-PVTZ AUX)
    Blend: AUG-CC-PVTZ-JKFIT

    Orbital Energies [Eh]
    ---------------------

    Doubly Occupied:

       1A    -20.488392     2A    -20.471681     3A    -15.709119
       4A    -11.326920     5A    -11.314083     6A    -11.254229
       7A     -1.364814     8A     -1.318957     9A     -1.253131
      10A     -1.035789    11A     -0.922634    12A     -0.803667
      13A     -0.777589    14A     -0.719871    15A     -0.669618
      16A     -0.636629    17A     -0.600331    18A     -0.580532
      19A     -0.573346    20A     -0.538483    21A     -0.481002
      22A     -0.406192    23A     -0.383370    24A     -0.376412

  @DF-RHF Final Energy:  -321.92800238618702

   => Energetics <=

    Nuclear Repulsion Energy =            246.8281773782914854
    One-Electron Energy =                -929.4987736234789963
    Two-Electron Energy =                 360.7425938590005217
    Total Energy =                       -321.9280023861870177
  Basis Set: (AUG-CC-PVTZ AUX)
    Blend: AUG-CC-PVTZ-RI
    Molecular point group: c1

    Geometry (in Angstrom), charge = 0, multiplicity = 1:

       Center              X                  Y                   Z               Mass
    ------------   -----------------  -----------------  -----------------  -----------------
         O            1.502354906978     1.049934035556     0.128320816508    15.994914619570
         O            1.207664906978    -1.182369964444    -0.260835183492    15.994914619570
         N           -1.291440093022    -1.201102964444     0.055302816508    14.003074004430
         C           -0.675318093022     0.121649035556     0.418212816508    12.000000000000
         C           -1.466097393022     1.429976135556    -0.360870183492    12.000000000000
         C            0.835685906978    -0.005589964444     0.051345816508    12.000000000000
         H           -0.755230093022     0.216081035556     1.504403816508     1.007825032230
         H           -1.832523093022    -1.158576964444    -0.813922183492     1.007825032230
         H           -1.891728093022    -1.598831964444     0.782326816508     1.007825032230
         H           -2.423820093022     1.349882035556     0.025594816508     1.007825032230
         H           -0.862827093022     2.198928035556     0.008811816508     1.007825032230
         H           -1.315662093022     1.170554035556    -1.357622183492     1.007825032230
         H           -0.437371093022    -1.796012964444    -0.109025183492     1.007825032230

  Basis Set: AUG-CC-PVTZ
    Blend: AUG-CC-PVTZ
  Basis Set: (AUG-CC-PVTZ AUX)
    Blend: AUG-CC-PVTZ-JKFIT
	 Reference Energy          =    -321.9280023861870177 [Eh]
	 Singles Energy            =      -0.0000000000000000 [Eh]
	 Same-Spin Energy          =      -0.3218814439292186 [Eh]
	 Opposite-Spin Energy      =      -1.0076488075467496 [Eh]
	 Correlation Energy        =      -1.3295302514759682 [Eh]
	 Total Energy              =    -323.2575326376629619 [Eh]

	 ================> DF-SCS-MP2 Energies <==================
	-----------------------------------------------------------
	 SCS Same-Spin Scale       =       0.3333333333333333 [-]
	 SCS Opposite-Spin Scale   =       1.2000000000000000 [-]
	 SCS Same-Spin Energy      =      -0.1072938146430729 [Eh]
	 SCS Opposite-Spin Energy  =      -1.2091785690560994 [Eh]
	 SCS Correlation Energy    =      -1.3164723836991723 [Eh]
	 SCS Total Energy          =    -323.2444747698862102 [Eh]
	-----------------------------------------------------------

  Dipole Moment: [D]
     X:    -9.7496      Y:    -2.8943      Z:     0.7021     Total:    10.1943

*** Psi4 exiting successfully. Buy a developer a beer!
