                               Psi4 1.3.2 release

  ==> Input File <==

--------------------------------------------------------------------------
#psi4
#
memory 32 gb

molecule  {
0 1
  O        1.5890300     1.0650170     0.1165590
  O        1.2943400    -1.1672870    -0.2725970
  N       -1.2047650    -1.1860200     0.0435410
  C       -0.5886430     0.1367320     0.4064510
  C       -1.2872470     1.2925570    -0.2818200
  C        0.8255080     0.0176488     0.0630996
  H       -0.6685550     0.2311640     1.4926420
  H       -1.7458480    -1.1434940    -0.8256840
  H       -1.8050530    -1.5837490     0.7705650
  H       -2.3371450     1.3649650     0.0138330
  H       -0.7761520     2.2140110    -0.0029500
  H       -1.2289870     1.1856370    -1.3693840
  H       -0.3506960    -1.7809300    -0.1207870
units angstrom
no_reorient  #important for SAPT in psi4, default
symmetry c1  #important for SAPT in psi4, default
}

set PROPERTIES_ORIGIN ["COM"]
properties('MP2/aug-cc-pvtz', properties = ['dipole'])
--------------------------------------------------------------------------

    Molecular point group: c1
  Charge       = 0
  Multiplicity = 1
  Basis Set: AUG-CC-PVTZ
    Blend: AUG-CC-PVTZ
  Basis Set: (AUG-CC-PVTZ AUX)
    Blend: AUG-CC-PVTZ-JKFIT

    Orbital Energies [Eh]
    ---------------------

    Doubly Occupied:

       1A    -20.487890     2A    -20.470924     3A    -15.715153
       4A    -11.330315     5A    -11.321942     6A    -11.258858
       7A     -1.362905     8A     -1.310085     9A     -1.224095
      10A     -1.077078    11A     -0.932064    12A     -0.815631
      13A     -0.784664    14A     -0.741615    15A     -0.683082
      16A     -0.630576    17A     -0.584294    18A     -0.572955
      19A     -0.560645    20A     -0.544843    21A     -0.493403
      22A     -0.410336    23A     -0.379829    24A     -0.364087

  @DF-RHF Final Energy:  -321.93293900773023

   => Energetics <=

    Nuclear Repulsion Energy =            250.0251964034862624
    One-Electron Energy =                -935.8017271145579343
    Two-Electron Energy =                 363.8435917033414739
    Total Energy =                       -321.9329390077302264
  Basis Set: (AUG-CC-PVTZ AUX)
    Blend: AUG-CC-PVTZ-RI
    Molecular point group: c1

    Geometry (in Angstrom), charge = 0, multiplicity = 1:

       Center              X                  Y                   Z               Mass
    ------------   -----------------  -----------------  -----------------  -----------------
         O            1.502985270407     1.069386037335     0.112914112779    15.994914619570
         O            1.208295270407    -1.162917962665    -0.276241887221    15.994914619570
         N           -1.290809729593    -1.181650962665     0.039896112779    14.003074004430
         C           -0.674687729593     0.141101037335     0.402806112779    12.000000000000
         C           -1.373291729593     1.296926037335    -0.285464887221    12.000000000000
         C            0.739463270407     0.022017837335     0.059454712779    12.000000000000
         H           -0.754599729593     0.235533037335     1.488997112779     1.007825032230
         H           -1.831892729593    -1.139124962665    -0.829328887221     1.007825032230
         H           -1.891097729593    -1.579379962665     0.766920112779     1.007825032230
         H           -2.423189729593     1.369334037335     0.010188112779     1.007825032230
         H           -0.862196729593     2.218380037335    -0.006594887221     1.007825032230
         H           -1.315031729593     1.190006037335    -1.373028887221     1.007825032230
         H           -0.436740729593    -1.776560962665    -0.124431887221     1.007825032230

  Basis Set: AUG-CC-PVTZ
    Blend: AUG-CC-PVTZ
  Basis Set: (AUG-CC-PVTZ AUX)
    Blend: AUG-CC-PVTZ-JKFIT
	 Reference Energy          =    -321.9329390077302264 [Eh]
	 Singles Energy            =      -0.0000000000000000 [Eh]
	 Same-Spin Energy          =      -0.3246712546449764 [Eh]
	 Opposite-Spin Energy      =      -1.0122674256052453 [Eh]
	 Correlation Energy        =      -1.3369386802502217 [Eh]
	 Total Energy              =    -323.2698776879804541 [Eh]

	 ================> DF-SCS-MP2 Energies <==================
	-----------------------------------------------------------
	 SCS Same-Spin Scale       =       0.3333333333333333 [-]
	 SCS Opposite-Spin Scale   =       1.2000000000000000 [-]
	 SCS Same-Spin Energy      =      -0.1082237515483254 [Eh]
	 SCS Opposite-Spin Energy  =      -1.2147209107262944 [Eh]
	 SCS Correlation Energy    =      -1.3229446622746199 [Eh]
	 SCS Total Energy          =    -323.2558836700048346 [Eh]
	-----------------------------------------------------------

  Dipole Moment: [D]
     X:   -10.1828      Y:    -2.7402      Z:     0.8015     Total:    10.5754

*** Psi4 exiting successfully. Buy a developer a beer!
