                               Psi4 1.3.2 release

  ==> Input File <==

--------------------------------------------------------------------------
#psi4
#
memory 32 gb

molecule  {
0 1
  O        1.5890300     1.0650170     0.1165590
  O        1.2943400    -1.1672870    -0.2725970
  N       -1.2047650    -1.1860200     0.0435410
  C       -0.5782059     0.1257334     0.4278710
  C       -1.2872470     1.2925570    -0.2818200
  C        0.9223610     0.0094930     0.0395840
  H       -0.6685550     0.2311640     1.4926420
  H       -1.7497702    -1.1608532    -0.8239078
  H       -1.8050530    -1.5837490     0.7705650
  H       -2.3371450     1.3649650     0.0138330
  H       -0.7761520     2.2140110    -0.0029500
  H       -1.2289870     1.1856370    -1.3693840
  H       -0.3506960    -1.7809300    -0.1207870
units angstrom
no_reorient  #important for SAPT in psi4, default
symmetry c1  #important for SAPT in psi4, default
}

set PROPERTIES_ORIGIN ["COM"]
properties('MP2/aug-cc-pvtz', properties = ['dipole'])
--------------------------------------------------------------------------

    Molecular point group: c1
  Charge       = 0
  Multiplicity = 1
  Basis Set: AUG-CC-PVTZ
    Blend: AUG-CC-PVTZ
  Basis Set: (AUG-CC-PVTZ AUX)
    Blend: AUG-CC-PVTZ-JKFIT

    Orbital Energies [Eh]
    ---------------------

    Doubly Occupied:

       1A    -20.489319     2A    -20.473144     3A    -15.709719
       4A    -11.327711     5A    -11.310890     6A    -11.252345
       7A     -1.367655     8A     -1.321445     9A     -1.254785
      10A     -1.056508    11A     -0.912221    12A     -0.807382
      13A     -0.777559    14A     -0.725934    15A     -0.678978
      16A     -0.627782    17A     -0.581554    18A     -0.571254
      19A     -0.559695    20A     -0.554269    21A     -0.511994
      22A     -0.407383    23A     -0.385452    24A     -0.377266

  @DF-RHF Final Energy:  -321.95455135172233

   => Energetics <=

    Nuclear Repulsion Energy =            249.7071080448924931
    One-Electron Energy =                -935.2388279015814305
    Two-Electron Energy =                 363.5771685049666075
    Total Energy =                       -321.9545513517223299
  Basis Set: (AUG-CC-PVTZ AUX)
    Blend: AUG-CC-PVTZ-RI
    Molecular point group: c1

    Geometry (in Angstrom), charge = 0, multiplicity = 1:

       Center              X                  Y                   Z               Mass
    ------------   -----------------  -----------------  -----------------  -----------------
         O            1.488571325757     1.072163738456     0.113176411601    15.994914619570
         O            1.193881325757    -1.160140261544    -0.275979588399    15.994914619570
         N           -1.305223674243    -1.178873261544     0.040158411601    14.003074004430
         C           -0.678664574243     0.132880138456     0.424488411601    12.000000000000
         C           -1.387705674243     1.299703738456    -0.285202588399    12.000000000000
         C            0.821902325757     0.016639738456     0.036201411601    12.000000000000
         H           -0.769013674243     0.238310738456     1.489259411601     1.007825032230
         H           -1.850228874243    -1.153706461544    -0.827290388399     1.007825032230
         H           -1.905511674243    -1.576602261544     0.767182411601     1.007825032230
         H           -2.437603674243     1.372111738456     0.010450411601     1.007825032230
         H           -0.876610674243     2.221157738456    -0.006332588399     1.007825032230
         H           -1.329445674243     1.192783738456    -1.372766588399     1.007825032230
         H           -0.451154674243    -1.773783261544    -0.124169588399     1.007825032230

  Basis Set: AUG-CC-PVTZ
    Blend: AUG-CC-PVTZ
  Basis Set: (AUG-CC-PVTZ AUX)
    Blend: AUG-CC-PVTZ-JKFIT
	 Reference Energy          =    -321.9545513517223299 [Eh]
	 Singles Energy            =      -0.0000000000000000 [Eh]
	 Same-Spin Energy          =      -0.3219575877716747 [Eh]
	 Opposite-Spin Energy      =      -1.0065921372381155 [Eh]
	 Correlation Energy        =      -1.3285497250097902 [Eh]
	 Total Energy              =    -323.2831010767321231 [Eh]

	 ================> DF-SCS-MP2 Energies <==================
	-----------------------------------------------------------
	 SCS Same-Spin Scale       =       0.3333333333333333 [-]
	 SCS Opposite-Spin Scale   =       1.2000000000000000 [-]
	 SCS Same-Spin Energy      =      -0.1073191959238916 [Eh]
	 SCS Opposite-Spin Energy  =      -1.2079105646857384 [Eh]
	 SCS Correlation Energy    =      -1.3152297606096299 [Eh]
	 SCS Total Energy          =    -323.2697811123319411 [Eh]
	-----------------------------------------------------------

  Dipole Moment: [D]
     X:    -9.7106      Y:    -2.8660      Z:     0.7393     Total:    10.1517

*** Psi4 exiting successfully. Buy a developer a beer!
