                               Psi4 1.3.2 release

  ==> Input File <==

--------------------------------------------------------------------------
#psi4
#
memory 32 gb

molecule  {
0 1
  O        1.5890300     1.0650170     0.1165590
  O        1.3354942    -1.1517642    -0.2789112
  N       -1.2047650    -1.1860200     0.0435410
  C       -0.5810903     0.1899704     0.4150523
  C       -1.2872470     1.2925570    -0.2818200
  C        0.9223610     0.0094930     0.0395840
  H       -0.6685550     0.2311640     1.4926420
  H       -1.7458480    -1.1434940    -0.8256840
  H       -1.8050530    -1.5837490     0.7705650
  H       -2.3371450     1.3649650     0.0138330
  H       -0.7761520     2.2140110    -0.0029500
  H       -1.2289870     1.1856370    -1.3693840
  H       -0.3506960    -1.7809300    -0.1207870
units angstrom
no_reorient  #important for SAPT in psi4, default
symmetry c1  #important for SAPT in psi4, default
}

set PROPERTIES_ORIGIN ["COM"]
properties('MP2/aug-cc-pvtz', properties = ['dipole'])
--------------------------------------------------------------------------

    Molecular point group: c1
  Charge       = 0
  Multiplicity = 1
  Basis Set: AUG-CC-PVTZ
    Blend: AUG-CC-PVTZ
  Basis Set: (AUG-CC-PVTZ AUX)
    Blend: AUG-CC-PVTZ-JKFIT

    Orbital Energies [Eh]
    ---------------------

    Doubly Occupied:

       1A    -20.488343     2A    -20.470086     3A    -15.706449
       4A    -11.327029     5A    -11.317704     6A    -11.252944
       7A     -1.362627     8A     -1.313890     9A     -1.251030
      10A     -1.070840    11A     -0.910131    12A     -0.801529
      13A     -0.773943    14A     -0.718549    15A     -0.674595
      16A     -0.634465    17A     -0.589910    18A     -0.573950
      19A     -0.560876    20A     -0.553676    21A     -0.515855
      22A     -0.405504    23A     -0.383667    24A     -0.374047

  @DF-RHF Final Energy:  -321.95142424808563

   => Energetics <=

    Nuclear Repulsion Energy =            249.2599885888005815
    One-Electron Energy =                -934.3595469922911434
    Two-Electron Energy =                 363.1481341554049891
    Total Energy =                       -321.9514242480856296
  Basis Set: (AUG-CC-PVTZ AUX)
    Blend: AUG-CC-PVTZ-RI
    Molecular point group: c1

    Geometry (in Angstrom), charge = 0, multiplicity = 1:

       Center              X                  Y                   Z               Mass
    ------------   -----------------  -----------------  -----------------  -----------------
         O            1.481523438408     1.060522504066     0.116058121637    15.994914619570
         O            1.227987638408    -1.156258695934    -0.279412078363    15.994914619570
         N           -1.312271561592    -1.190514495934     0.043040121637    14.003074004430
         C           -0.688596861592     0.185475904066     0.414551421637    12.000000000000
         C           -1.394753561592     1.288062504066    -0.282320878363    12.000000000000
         C            0.814854438408     0.004998504066     0.039083121637    12.000000000000
         H           -0.776061561592     0.226669504066     1.492141121637     1.007825032230
         H           -1.853354561592    -1.147988495934    -0.826184878363     1.007825032230
         H           -1.912559561592    -1.588243495934     0.770064121637     1.007825032230
         H           -2.444651561592     1.360470504066     0.013332121637     1.007825032230
         H           -0.883658561592     2.209516504066    -0.003450878363     1.007825032230
         H           -1.336493561592     1.181142504066    -1.369884878363     1.007825032230
         H           -0.458202561592    -1.785424495934    -0.121287878363     1.007825032230

  Basis Set: AUG-CC-PVTZ
    Blend: AUG-CC-PVTZ
  Basis Set: (AUG-CC-PVTZ AUX)
    Blend: AUG-CC-PVTZ-JKFIT
	 Reference Energy          =    -321.9514242480856296 [Eh]
	 Singles Energy            =      -0.0000000000000000 [Eh]
	 Same-Spin Energy          =      -0.3219783494945441 [Eh]
	 Opposite-Spin Energy      =      -1.0069952125789583 [Eh]
	 Correlation Energy        =      -1.3289735620735024 [Eh]
	 Total Energy              =    -323.2803978101591156 [Eh]

	 ================> DF-SCS-MP2 Energies <==================
	-----------------------------------------------------------
	 SCS Same-Spin Scale       =       0.3333333333333333 [-]
	 SCS Opposite-Spin Scale   =       1.2000000000000000 [-]
	 SCS Same-Spin Energy      =      -0.1073261164981814 [Eh]
	 SCS Opposite-Spin Energy  =      -1.2083942550947500 [Eh]
	 SCS Correlation Energy    =      -1.3157203715929313 [Eh]
	 SCS Total Energy          =    -323.2671446196785610 [Eh]
	-----------------------------------------------------------

  Dipole Moment: [D]
     X:    -9.8378      Y:    -2.7201      Z:     0.7447     Total:    10.2340

*** Psi4 exiting successfully. Buy a developer a beer!
