                               Psi4 1.4a3.dev225

  ==> Input File <==

--------------------------------------------------------------------------
#psi4
#
memory 32 gb

molecule  {
0 1
  O        1.5890300     1.0650170     0.1165590
  O        1.2943400    -1.1672870    -0.2725970
  N       -1.2047650    -1.1860200     0.0435410
  C       -0.5886430     0.1367320     0.4064510
  C       -1.2780295     1.2773068    -0.2727388
  C        0.9223610     0.0094930     0.0395840
  H       -0.6685550     0.2311640     1.4926420
  H       -1.7458480    -1.1434940    -0.8256840
  H       -1.8050530    -1.5837490     0.7705650
  H       -2.3371450     1.3649650     0.0138330
  H       -0.7761520     2.2140110    -0.0029500
  H       -1.2289870     1.1856370    -1.3693840
  H       -0.3506960    -1.7809300    -0.1207870
units angstrom
no_reorient  #important for SAPT in psi4, default
symmetry c1  #important for SAPT in psi4, default
}

set PROPERTIES_ORIGIN ["COM"]
properties('MP2/aug-cc-pvtz', properties = ['dipole'])
--------------------------------------------------------------------------

    Molecular point group: c1
  Charge       = 0
  Multiplicity = 1
  Basis Set: AUG-CC-PVTZ
    Blend: AUG-CC-PVTZ
  Basis Set: (AUG-CC-PVTZ AUX)
    Blend: AUG-CC-PVTZ-JKFIT

    Orbital Energies [Eh]
    ---------------------

    Doubly Occupied:

       1A    -20.489758     2A    -20.473280     3A    -15.709752
       4A    -11.328207     5A    -11.310716     6A    -11.252156
       7A     -1.367888     8A     -1.321870     9A     -1.255067
      10A     -1.063660    11A     -0.908720    12A     -0.807059
      13A     -0.779718    14A     -0.725644    15A     -0.676605
      16A     -0.629308    17A     -0.585886    18A     -0.570822
      19A     -0.560266    20A     -0.550333    21A     -0.513636
      22A     -0.407255    23A     -0.385024    24A     -0.377485

  @DF-RHF Final Energy:  -321.95456458266227

   => Energetics <=

    Nuclear Repulsion Energy =            250.1325868183303669
    One-Electron Energy =                -936.0740784017723399
    Two-Electron Energy =                 363.9869270007797581
    Total Energy =                       -321.9545645826622717
  Basis Set: (AUG-CC-PVTZ AUX)
    Blend: AUG-CC-PVTZ-RI
    Molecular point group: c1

    Geometry (in Angstrom), charge = 0, multiplicity = 1:

       Center              X                  Y                   Z               Mass
    ------------   -----------------  -----------------  -----------------  -----------------
         O            1.488691287432     1.072540212771     0.114859281962    15.994914619570
         O            1.194001287432    -1.159763787229    -0.274296718038    15.994914619570
         N           -1.305103712568    -1.178496787229     0.041841281962    14.003074004430
         C           -0.688981712568     0.144255212771     0.404751281962    12.000000000000
         C           -1.378368212568     1.284830012771    -0.274438518038    12.000000000000
         C            0.822022287432     0.017016212771     0.037884281962    12.000000000000
         H           -0.768893712568     0.238687212771     1.490942281962     1.007825032230
         H           -1.846186712568    -1.135970787229    -0.827383718038     1.007825032230
         H           -1.905391712568    -1.576225787229     0.768865281962     1.007825032230
         H           -2.437483712568     1.372488212771     0.012133281962     1.007825032230
         H           -0.876490712568     2.221534212771    -0.004649718038     1.007825032230
         H           -1.329325712568     1.193160212771    -1.371083718038     1.007825032230
         H           -0.451034712568    -1.773406787229    -0.122486718038     1.007825032230

  Basis Set: AUG-CC-PVTZ
    Blend: AUG-CC-PVTZ
  Basis Set: (AUG-CC-PVTZ AUX)
    Blend: AUG-CC-PVTZ-JKFIT
	 Reference Energy          =    -321.9545645826622717 [Eh]
	 Singles Energy            =      -0.0000000000000000 [Eh]
	 Same-Spin Energy          =      -0.3222973546158715 [Eh]
	 Opposite-Spin Energy      =      -1.0068931612007919 [Eh]
	 Correlation Energy        =      -1.3291905158166633 [Eh]
	 Total Energy              =    -323.2837550984789345 [Eh]

	 ================> DF-SCS-MP2 Energies <==================
	-----------------------------------------------------------
	 SCS Same-Spin Scale       =       0.3333333333333333 [-]
	 SCS Opposite-Spin Scale   =       1.2000000000000000 [-]
	 SCS Same-Spin Energy      =      -0.1074324515386238 [Eh]
	 SCS Opposite-Spin Energy  =      -1.2082717934409501 [Eh]
	 SCS Correlation Energy    =      -1.3157042449795739 [Eh]
	 SCS Total Energy          =    -323.2702688276418712 [Eh]
	-----------------------------------------------------------

  Dipole Moment: [D]
     X:    -9.7009      Y:    -2.8265      Z:     0.7155     Total:    10.1296

*** Psi4 exiting successfully. Buy a developer a beer!
