                               Psi4 1.3.2 release

  ==> Input File <==

--------------------------------------------------------------------------
#psi4
#
memory 32 gb

molecule  {
0 1
  O        1.5890300     1.0650170     0.1165590
  O        1.2943400    -1.1672870    -0.2725970
  N       -1.2047650    -1.1860200     0.0435410
  C       -0.5549407     0.1712506     0.4281767
  C       -1.2872470     1.2925570    -0.2818200
  C        0.9223610     0.0094930     0.0395840
  H       -0.6685550     0.2311640     1.4926420
  H       -1.7458480    -1.1434940    -0.8256840
  H       -1.8050530    -1.5837490     0.7705650
  H       -2.3371450     1.3649650     0.0138330
  H       -0.7521438     2.1934895     0.0182620
  H       -1.2289870     1.1856370    -1.3693840
  H       -0.3506960    -1.7809300    -0.1207870
units angstrom
no_reorient  #important for SAPT in psi4, default
symmetry c1  #important for SAPT in psi4, default
}

set PROPERTIES_ORIGIN ["COM"]
properties('MP2/aug-cc-pvtz', properties = ['dipole'])
--------------------------------------------------------------------------

    Molecular point group: c1
  Charge       = 0
  Multiplicity = 1
  Basis Set: AUG-CC-PVTZ
    Blend: AUG-CC-PVTZ
  Basis Set: (AUG-CC-PVTZ AUX)
    Blend: AUG-CC-PVTZ-JKFIT

    Orbital Energies [Eh]
    ---------------------

    Doubly Occupied:

       1A    -20.489981     2A    -20.473572     3A    -15.702767
       4A    -11.327869     5A    -11.315045     6A    -11.253200
       7A     -1.365405     8A     -1.311810     9A     -1.255667
      10A     -1.063963    11A     -0.911564    12A     -0.800338
      13A     -0.771107    14A     -0.722751    15A     -0.674904
      16A     -0.632770    17A     -0.586643    18A     -0.576912
      19A     -0.560928    20A     -0.550614    21A     -0.515067
      22A     -0.409069    23A     -0.387160    24A     -0.377812

  @DF-RHF Final Energy:  -321.95339390772659

   => Energetics <=

    Nuclear Repulsion Energy =            249.7598284196141094
    One-Electron Energy =                -935.3526119356024537
    Two-Electron Energy =                 363.6393896082617516
    Total Energy =                       -321.9533939077265927
  Basis Set: (AUG-CC-PVTZ AUX)
    Blend: AUG-CC-PVTZ-RI
    Molecular point group: c1

    Geometry (in Angstrom), charge = 0, multiplicity = 1:

       Center              X                  Y                   Z               Mass
    ------------   -----------------  -----------------  -----------------  -----------------
         O            1.485120013364     1.066065664209     0.112915244930    15.994914619570
         O            1.190430013364    -1.166238335791    -0.276240755070    15.994914619570
         N           -1.308674986636    -1.184971335791     0.039897244930    14.003074004430
         C           -0.658850686636     0.172299264209     0.424532944930    12.000000000000
         C           -1.391156986636     1.293605664209    -0.285463755070    12.000000000000
         C            0.818451013364     0.010541664209     0.035940244930    12.000000000000
         H           -0.772464986636     0.232212664209     1.488998244930     1.007825032230
         H           -1.849757986636    -1.142445335791    -0.829327755070     1.007825032230
         H           -1.908962986636    -1.582700335791     0.766921244930     1.007825032230
         H           -2.441054986636     1.366013664209     0.010189244930     1.007825032230
         H           -0.856053786636     2.194538164209     0.014618244930     1.007825032230
         H           -1.332896986636     1.186685664209    -1.373027755070     1.007825032230
         H           -0.454605986636    -1.779881335791    -0.124430755070     1.007825032230

  Basis Set: AUG-CC-PVTZ
    Blend: AUG-CC-PVTZ
  Basis Set: (AUG-CC-PVTZ AUX)
    Blend: AUG-CC-PVTZ-JKFIT
	 Reference Energy          =    -321.9533939077265927 [Eh]
	 Singles Energy            =      -0.0000000000000000 [Eh]
	 Same-Spin Energy          =      -0.3219120637721573 [Eh]
	 Opposite-Spin Energy      =      -1.0068700628166454 [Eh]
	 Correlation Energy        =      -1.3287821265888027 [Eh]
	 Total Energy              =    -323.2821760343153983 [Eh]

	 ================> DF-SCS-MP2 Energies <==================
	-----------------------------------------------------------
	 SCS Same-Spin Scale       =       0.3333333333333333 [-]
	 SCS Opposite-Spin Scale   =       1.2000000000000000 [-]
	 SCS Same-Spin Energy      =      -0.1073040212573858 [Eh]
	 SCS Opposite-Spin Energy  =      -1.2082440753799744 [Eh]
	 SCS Correlation Energy    =      -1.3155480966373601 [Eh]
	 SCS Total Energy          =    -323.2689420043639643 [Eh]
	-----------------------------------------------------------

  Dipole Moment: [D]
     X:    -9.6633      Y:    -2.7109      Z:     0.7608     Total:    10.0652

*** Psi4 exiting successfully. Buy a developer a beer!
