                               Psi4 1.3.2 release

  ==> Input File <==

--------------------------------------------------------------------------
#psi4
#
memory 32 gb

molecule  {
0 1
  O        1.5890300     1.0650170     0.1165590
  O        1.3046730    -1.1635400    -0.2742115
  N       -1.2047650    -1.1860200     0.0435410
  C       -0.5869271     0.1500587     0.4086436
  C       -1.2872470     1.2925570    -0.2818200
  C        0.9223610     0.0094930     0.0395840
  H       -0.6685550     0.2311640     1.4926420
  H       -1.7458480    -1.1434940    -0.8256840
  H       -1.8050530    -1.5837490     0.7705650
  H       -2.3371450     1.3649650     0.0138330
  H       -0.7761520     2.2140110    -0.0029500
  H       -1.2289870     1.1856370    -1.3693840
  H       -0.3506960    -1.7809300    -0.1207870
units angstrom
no_reorient  #important for SAPT in psi4, default
symmetry c1  #important for SAPT in psi4, default
}

set PROPERTIES_ORIGIN ["COM"]
properties('MP2/aug-cc-pvtz', properties = ['dipole'])
--------------------------------------------------------------------------

    Molecular point group: c1
  Charge       = 0
  Multiplicity = 1
  Basis Set: AUG-CC-PVTZ
    Blend: AUG-CC-PVTZ
  Basis Set: (AUG-CC-PVTZ AUX)
    Blend: AUG-CC-PVTZ-JKFIT

    Orbital Energies [Eh]
    ---------------------

    Doubly Occupied:

       1A    -20.489300     2A    -20.472323     3A    -15.709080
       4A    -11.327759     5A    -11.312822     6A    -11.251973
       7A     -1.366132     8A     -1.319744     9A     -1.253874
      10A     -1.062860    11A     -0.910146    12A     -0.805442
      13A     -0.778187    14A     -0.723133    15A     -0.675561
      16A     -0.630287    17A     -0.584230    18A     -0.572671
      19A     -0.561194    20A     -0.553853    21A     -0.513528
      22A     -0.406814    23A     -0.384677    24A     -0.376517

  @DF-RHF Final Energy:  -321.95480775515347

   => Energetics <=

    Nuclear Repulsion Energy =            249.6707071839681475
    One-Electron Energy =                -935.1668135527428376
    Two-Electron Energy =                 363.5412986136212226
    Total Energy =                       -321.9548077551534675
  Basis Set: (AUG-CC-PVTZ AUX)
    Blend: AUG-CC-PVTZ-RI
    Molecular point group: c1

    Geometry (in Angstrom), charge = 0, multiplicity = 1:

       Center              X                  Y                   Z               Mass
    ------------   -----------------  -----------------  -----------------  -----------------
         O            1.487846164302     1.068016167315     0.116077584241    15.994914619570
         O            1.203489164302    -1.160540832685    -0.274692915759    15.994914619570
         N           -1.305948835698    -1.183020832685     0.043059584241    14.003074004430
         C           -0.688110935698     0.153057867315     0.408162184241    12.000000000000
         C           -1.388430835698     1.295556167315    -0.282301415759    12.000000000000
         C            0.821177164302     0.012492167315     0.039102584241    12.000000000000
         H           -0.769738835698     0.234163167315     1.492160584241     1.007825032230
         H           -1.847031835698    -1.140494832685    -0.826165415759     1.007825032230
         H           -1.906236835698    -1.580749832685     0.770083584241     1.007825032230
         H           -2.438328835698     1.367964167315     0.013351584241     1.007825032230
         H           -0.877335835698     2.217010167315    -0.003431415759     1.007825032230
         H           -1.330170835698     1.188636167315    -1.369865415759     1.007825032230
         H           -0.451879835698    -1.777930832685    -0.121268415759     1.007825032230

  Basis Set: AUG-CC-PVTZ
    Blend: AUG-CC-PVTZ
  Basis Set: (AUG-CC-PVTZ AUX)
    Blend: AUG-CC-PVTZ-JKFIT
	 Reference Energy          =    -321.9548077551534675 [Eh]
	 Singles Energy            =      -0.0000000000000000 [Eh]
	 Same-Spin Energy          =      -0.3220648263993253 [Eh]
	 Opposite-Spin Energy      =      -1.0067548353024438 [Eh]
	 Correlation Energy        =      -1.3288196617017691 [Eh]
	 Total Energy              =    -323.2836274168552109 [Eh]

	 ================> DF-SCS-MP2 Energies <==================
	-----------------------------------------------------------
	 SCS Same-Spin Scale       =       0.3333333333333333 [-]
	 SCS Opposite-Spin Scale   =       1.2000000000000000 [-]
	 SCS Same-Spin Energy      =      -0.1073549421331084 [Eh]
	 SCS Opposite-Spin Energy  =      -1.2081058023629325 [Eh]
	 SCS Correlation Energy    =      -1.3154607444960409 [Eh]
	 SCS Total Energy          =    -323.2702684996494895 [Eh]
	-----------------------------------------------------------

  Dipole Moment: [D]
     X:    -9.7436      Y:    -2.8073      Z:     0.7215     Total:    10.1656

*** Psi4 exiting successfully. Buy a developer a beer!
