                               Psi4 1.3.2 release

  ==> Input File <==

--------------------------------------------------------------------------
#psi4
#
memory 32 gb

molecule  {
0 1
  O        1.5890300     1.0650170     0.1165590
  O        1.2943400    -1.1672870    -0.2725970
  N       -1.2390753    -1.1606202     0.0130072
  C       -0.5886430     0.1367320     0.4064510
  C       -1.3199583     1.2578938    -0.3047944
  C        0.9223610     0.0094930     0.0395840
  H       -0.6685550     0.2311640     1.4926420
  H       -1.7458480    -1.1434940    -0.8256840
  H       -1.8050530    -1.5837490     0.7705650
  H       -2.3371450     1.3649650     0.0138330
  H       -0.7761520     2.2140110    -0.0029500
  H       -1.2289870     1.1856370    -1.3693840
  H       -0.3506960    -1.7809300    -0.1207870
units angstrom
no_reorient  #important for SAPT in psi4, default
symmetry c1  #important for SAPT in psi4, default
}

set PROPERTIES_ORIGIN ["COM"]
properties('MP2/aug-cc-pvtz', properties = ['dipole'])
--------------------------------------------------------------------------

    Molecular point group: c1
  Charge       = 0
  Multiplicity = 1
  Basis Set: AUG-CC-PVTZ
    Blend: AUG-CC-PVTZ
  Basis Set: (AUG-CC-PVTZ AUX)
    Blend: AUG-CC-PVTZ-JKFIT

    Orbital Energies [Eh]
    ---------------------

    Doubly Occupied:

       1A    -20.492307     2A    -20.474647     3A    -15.705436
       4A    -11.329746     5A    -11.312200     6A    -11.250001
       7A     -1.367589     8A     -1.321966     9A     -1.256526
      10A     -1.059589    11A     -0.913022    12A     -0.806365
      13A     -0.773044    14A     -0.726025    15A     -0.677926
      16A     -0.632894    17A     -0.584048    18A     -0.571407
      19A     -0.564015    20A     -0.539400    21A     -0.515202
      22A     -0.408984    23A     -0.386216    24A     -0.378978

  @DF-RHF Final Energy:  -321.94812023167145

   => Energetics <=

    Nuclear Repulsion Energy =            249.7182810282802734
    One-Electron Energy =                -935.2377416169081243
    Two-Electron Energy =                 363.5713403569564548
    Total Energy =                       -321.9481202316714530
  Basis Set: (AUG-CC-PVTZ AUX)
    Blend: AUG-CC-PVTZ-RI
    Molecular point group: c1

    Geometry (in Angstrom), charge = 0, multiplicity = 1:

       Center              X                  Y                   Z               Mass
    ------------   -----------------  -----------------  -----------------  -----------------
         O            1.499737002345     1.071162082749     0.123980623192    15.994914619570
         O            1.205047002345    -1.161141917251    -0.265175376808    15.994914619570
         N           -1.328368297655    -1.154475117251     0.020428823192    14.003074004430
         C           -0.677935997655     0.142877082749     0.413872623192    12.000000000000
         C           -1.409251297655     1.264038882749    -0.297372776808    12.000000000000
         C            0.833068002345     0.015638082749     0.047005623192    12.000000000000
         H           -0.757847997655     0.237309082749     1.500063623192     1.007825032230
         H           -1.835140997655    -1.137348917251    -0.818262376808     1.007825032230
         H           -1.894345997655    -1.577603917251     0.777986623192     1.007825032230
         H           -2.426437997655     1.371110082749     0.021254623192     1.007825032230
         H           -0.865444997655     2.220156082749     0.004471623192     1.007825032230
         H           -1.318279997655     1.191782082749    -1.361962376808     1.007825032230
         H           -0.439988997655    -1.774784917251    -0.113365376808     1.007825032230

  Basis Set: AUG-CC-PVTZ
    Blend: AUG-CC-PVTZ
  Basis Set: (AUG-CC-PVTZ AUX)
    Blend: AUG-CC-PVTZ-JKFIT
	 Reference Energy          =    -321.9481202316714530 [Eh]
	 Singles Energy            =      -0.0000000000000000 [Eh]
	 Same-Spin Energy          =      -0.3226336333374915 [Eh]
	 Opposite-Spin Energy      =      -1.0075168075894085 [Eh]
	 Correlation Energy        =      -1.3301504409269000 [Eh]
	 Total Energy              =    -323.2782706725983530 [Eh]

	 ================> DF-SCS-MP2 Energies <==================
	-----------------------------------------------------------
	 SCS Same-Spin Scale       =       0.3333333333333333 [-]
	 SCS Opposite-Spin Scale   =       1.2000000000000000 [-]
	 SCS Same-Spin Energy      =      -0.1075445444458305 [Eh]
	 SCS Opposite-Spin Energy  =      -1.2090201691072902 [Eh]
	 SCS Correlation Energy    =      -1.3165647135531207 [Eh]
	 SCS Total Energy          =    -323.2646849452245874 [Eh]
	-----------------------------------------------------------

  Dipole Moment: [D]
     X:    -9.5901      Y:    -2.8266      Z:     0.7230     Total:    10.0241

*** Psi4 exiting successfully. Buy a developer a beer!
