                               Psi4 1.3.2 release

  ==> Input File <==

--------------------------------------------------------------------------
#psi4
#
memory 32 gb

molecule  {
0 1
  O        1.6245630     1.0425272     0.1048235
  O        1.3357089    -1.1519616    -0.2779115
  N       -1.2047650    -1.1860200     0.0435410
  C       -0.5886430     0.1367320     0.4064510
  C       -1.2872470     1.2925570    -0.2818200
  C        0.9223610     0.0094930     0.0395840
  H       -0.6685550     0.2311640     1.4926420
  H       -1.7458480    -1.1434940    -0.8256840
  H       -1.8050530    -1.5837490     0.7705650
  H       -2.3371450     1.3649650     0.0138330
  H       -0.7761520     2.2140110    -0.0029500
  H       -1.2289870     1.1856370    -1.3693840
  H       -0.3506960    -1.7809300    -0.1207870
units angstrom
no_reorient  #important for SAPT in psi4, default
symmetry c1  #important for SAPT in psi4, default
}

set PROPERTIES_ORIGIN ["COM"]
properties('MP2/aug-cc-pvtz', properties = ['dipole'])
--------------------------------------------------------------------------

    Molecular point group: c1
  Charge       = 0
  Multiplicity = 1
  Basis Set: AUG-CC-PVTZ
    Blend: AUG-CC-PVTZ
  Basis Set: (AUG-CC-PVTZ AUX)
    Blend: AUG-CC-PVTZ-JKFIT

    Orbital Energies [Eh]
    ---------------------

    Doubly Occupied:

       1A    -20.484850     2A    -20.468384     3A    -15.714503
       4A    -11.324975     5A    -11.316358     6A    -11.254423
       7A     -1.366289     8A     -1.324452     9A     -1.246314
      10A     -1.063767    11A     -0.913552    12A     -0.810344
      13A     -0.782465    14A     -0.726036    15A     -0.676678
      16A     -0.629311    17A     -0.582543    18A     -0.571336
      19A     -0.561500    20A     -0.554643    21A     -0.511170
      22A     -0.403309    23A     -0.382492    24A     -0.371047

  @DF-RHF Final Energy:  -321.95217913451626

   => Energetics <=

    Nuclear Repulsion Energy =            249.2922419445943660
    One-Electron Energy =                -934.4073588078695138
    Two-Electron Energy =                 363.1629377287588909
    Total Energy =                       -321.9521791345162569
  Basis Set: (AUG-CC-PVTZ AUX)
    Blend: AUG-CC-PVTZ-RI
    Molecular point group: c1

    Geometry (in Angstrom), charge = 0, multiplicity = 1:

       Center              X                  Y                   Z               Mass
    ------------   -----------------  -----------------  -----------------  -----------------
         O            1.511653164369     1.049282190231     0.107410111497    15.994914619570
         O            1.222799064369    -1.145206609769    -0.275324888503    15.994914619570
         N           -1.317674835631    -1.179265009769     0.046127611497    14.003074004430
         C           -0.701552835631     0.143486990231     0.409037611497    12.000000000000
         C           -1.400156835631     1.299311990231    -0.279233388503    12.000000000000
         C            0.809451164369     0.016247990231     0.042170611497    12.000000000000
         H           -0.781464835631     0.237918990231     1.495228611497     1.007825032230
         H           -1.858757835631    -1.136739009769    -0.823097388503     1.007825032230
         H           -1.917962835631    -1.576994009769     0.773151611497     1.007825032230
         H           -2.450054835631     1.371719990231     0.016419611497     1.007825032230
         H           -0.889061835631     2.220765990231    -0.000363388503     1.007825032230
         H           -1.341896835631     1.192391990231    -1.366797388503     1.007825032230
         H           -0.463605835631    -1.774175009769    -0.118200388503     1.007825032230

  Basis Set: AUG-CC-PVTZ
    Blend: AUG-CC-PVTZ
  Basis Set: (AUG-CC-PVTZ AUX)
    Blend: AUG-CC-PVTZ-JKFIT
	 Reference Energy          =    -321.9521791345162569 [Eh]
	 Singles Energy            =      -0.0000000000000000 [Eh]
	 Same-Spin Energy          =      -0.3220030380216622 [Eh]
	 Opposite-Spin Energy      =      -1.0067614251315418 [Eh]
	 Correlation Energy        =      -1.3287644631532038 [Eh]
	 Total Energy              =    -323.2809435976694772 [Eh]

	 ================> DF-SCS-MP2 Energies <==================
	-----------------------------------------------------------
	 SCS Same-Spin Scale       =       0.3333333333333333 [-]
	 SCS Opposite-Spin Scale   =       1.2000000000000000 [-]
	 SCS Same-Spin Energy      =      -0.1073343460072207 [Eh]
	 SCS Opposite-Spin Energy  =      -1.2081137101578501 [Eh]
	 SCS Correlation Energy    =      -1.3154480561650708 [Eh]
	 SCS Total Energy          =    -323.2676271906813099 [Eh]
	-----------------------------------------------------------

  Dipole Moment: [D]
     X:   -10.0128      Y:    -2.8194      Z:     0.7606     Total:    10.4299

*** Psi4 exiting successfully. Buy a developer a beer!
