                               Psi4 1.3.2 release

  ==> Input File <==

--------------------------------------------------------------------------
#psi4
#
memory 32 gb

molecule  {
0 1
  O        1.5890300     1.0650170     0.1165590
  O        1.2943400    -1.1672870    -0.2725970
  N       -1.2047650    -1.1860200     0.0435410
  C       -0.5579074     0.1025410     0.4703532
  C       -1.2872470     1.2925570    -0.2818200
  C        0.9223610     0.0094930     0.0395840
  H       -0.6685550     0.2311640     1.4926420
  H       -1.7571154    -1.1955893    -0.8195632
  H       -1.8050530    -1.5837490     0.7705650
  H       -2.3371450     1.3649650     0.0138330
  H       -0.7761520     2.2140110    -0.0029500
  H       -1.2289870     1.1856370    -1.3693840
  H       -0.3506960    -1.7809300    -0.1207870
units angstrom
no_reorient  #important for SAPT in psi4, default
symmetry c1  #important for SAPT in psi4, default
}

set PROPERTIES_ORIGIN ["COM"]
properties('MP2/aug-cc-pvtz', properties = ['dipole'])
--------------------------------------------------------------------------

    Molecular point group: c1
  Charge       = 0
  Multiplicity = 1
  Basis Set: AUG-CC-PVTZ
    Blend: AUG-CC-PVTZ
  Basis Set: (AUG-CC-PVTZ AUX)
    Blend: AUG-CC-PVTZ-JKFIT

    Orbital Energies [Eh]
    ---------------------

    Doubly Occupied:

       1A    -20.488773     2A    -20.473270     3A    -15.709772
       4A    -11.327336     5A    -11.310398     6A    -11.253658
       7A     -1.367919     8A     -1.321318     9A     -1.254688
      10A     -1.050194    11A     -0.915719    12A     -0.809174
      13A     -0.773938    14A     -0.727188    15A     -0.686771
      16A     -0.625841    17A     -0.579914    18A     -0.570514
      19A     -0.561794    20A     -0.549507    21A     -0.507960
      22A     -0.407449    23A     -0.386421    24A     -0.377092

  @DF-RHF Final Energy:  -321.94841784642898

   => Energetics <=

    Nuclear Repulsion Energy =            249.4848543613511254
    One-Electron Energy =                -934.7933269469911011
    Two-Electron Energy =                 363.3600547392109661
    Total Energy =                       -321.9484178464289812
  Basis Set: (AUG-CC-PVTZ AUX)
    Blend: AUG-CC-PVTZ-RI
    Molecular point group: c1

    Geometry (in Angstrom), charge = 0, multiplicity = 1:

       Center              X                  Y                   Z               Mass
    ------------   -----------------  -----------------  -----------------  -----------------
         O            1.485919046353     1.075682266019     0.107402370037    15.994914619570
         O            1.191229046353    -1.156621733981    -0.281753629963    15.994914619570
         N           -1.307875953647    -1.175354733981     0.034384370037    14.003074004430
         C           -0.661018353647     0.113206266019     0.461196570037    12.000000000000
         C           -1.390357953647     1.303222266019    -0.290976629963    12.000000000000
         C            0.819250046353     0.020158266019     0.030427370037    12.000000000000
         H           -0.771665953647     0.241829266019     1.483485370037     1.007825032230
         H           -1.860226353647    -1.184924033981    -0.828719829963     1.007825032230
         H           -1.908163953647    -1.573083733981     0.761408370037     1.007825032230
         H           -2.440255953647     1.375630266019     0.004676370037     1.007825032230
         H           -0.879262953647     2.224676266019    -0.012106629963     1.007825032230
         H           -1.332097953647     1.196302266019    -1.378540629963     1.007825032230
         H           -0.453806953647    -1.770264733981    -0.129943629963     1.007825032230

  Basis Set: AUG-CC-PVTZ
    Blend: AUG-CC-PVTZ
  Basis Set: (AUG-CC-PVTZ AUX)
    Blend: AUG-CC-PVTZ-JKFIT
	 Reference Energy          =    -321.9484178464289812 [Eh]
	 Singles Energy            =      -0.0000000000000000 [Eh]
	 Same-Spin Energy          =      -0.3217867975017694 [Eh]
	 Opposite-Spin Energy      =      -1.0066514674175724 [Eh]
	 Correlation Energy        =      -1.3284382649193418 [Eh]
	 Total Energy              =    -323.2768561113483088 [Eh]

	 ================> DF-SCS-MP2 Energies <==================
	-----------------------------------------------------------
	 SCS Same-Spin Scale       =       0.3333333333333333 [-]
	 SCS Opposite-Spin Scale   =       1.2000000000000000 [-]
	 SCS Same-Spin Energy      =      -0.1072622658339231 [Eh]
	 SCS Opposite-Spin Energy  =      -1.2079817609010868 [Eh]
	 SCS Correlation Energy    =      -1.3152440267350098 [Eh]
	 SCS Total Energy          =    -323.2636618731639828 [Eh]
	-----------------------------------------------------------

  Dipole Moment: [D]
     X:    -9.7090      Y:    -2.9307      Z:     0.7866     Total:    10.1721

*** Psi4 exiting successfully. Buy a developer a beer!
