                               Psi4 1.4a3.dev225

  ==> Input File <==

--------------------------------------------------------------------------
#psi4
#
memory 32 gb

molecule  {
0 1
  O        1.5890300     1.0650170     0.1165590
  O        1.2943400    -1.1672870    -0.2725970
  N       -1.2047650    -1.1860200     0.0435410
  C       -0.5886430     0.1367320     0.4064510
  C       -1.2872470     1.2925570    -0.2818200
  C        0.9223610     0.0094930     0.0395840
  H       -0.6685550     0.2311640     1.4926420
  H       -1.7564082    -1.1426640    -0.8426485
  H       -1.8050530    -1.5837490     0.7705650
  H       -2.3371450     1.3649650     0.0138330
  H       -0.7761520     2.2140110    -0.0029500
  H       -1.2289870     1.1856370    -1.3693840
  H       -0.3506960    -1.7809300    -0.1207870
units angstrom
no_reorient  #important for SAPT in psi4, default
symmetry c1  #important for SAPT in psi4, default
}

set PROPERTIES_ORIGIN ["COM"]
properties('MP2/aug-cc-pvtz', properties = ['dipole'])
--------------------------------------------------------------------------

    Molecular point group: c1
  Charge       = 0
  Multiplicity = 1
  Basis Set: AUG-CC-PVTZ
    Blend: AUG-CC-PVTZ
  Basis Set: (AUG-CC-PVTZ AUX)
    Blend: AUG-CC-PVTZ-JKFIT

    Orbital Energies [Eh]
    ---------------------

    Doubly Occupied:

       1A    -20.489507     2A    -20.473040     3A    -15.711214
       4A    -11.327961     5A    -11.311157     6A    -11.251612
       7A     -1.366732     8A     -1.319382     9A     -1.254670
      10A     -1.059628    11A     -0.909191    12A     -0.805297
      13A     -0.776078    14A     -0.724436    15A     -0.674770
      16A     -0.628734    17A     -0.582941    18A     -0.571589
      19A     -0.561194    20A     -0.553434    21A     -0.512356
      22A     -0.407169    23A     -0.384812    24A     -0.377284

  @DF-RHF Final Energy:  -321.95412281749913

   => Energetics <=

    Nuclear Repulsion Energy =            249.7127249045684607
    One-Electron Energy =                -935.2653176491162412
    Two-Electron Energy =                 363.5984699270487113
    Total Energy =                       -321.9541228174991261
  Basis Set: (AUG-CC-PVTZ AUX)
    Blend: AUG-CC-PVTZ-RI
    Molecular point group: c1

    Geometry (in Angstrom), charge = 0, multiplicity = 1:

       Center              X                  Y                   Z               Mass
    ------------   -----------------  -----------------  -----------------  -----------------
         O            1.490052949364     1.070475713191     0.116275058880    15.994914619570
         O            1.195362949364    -1.161828286809    -0.272880941120    15.994914619570
         N           -1.303742050636    -1.180561286809     0.043257058880    14.003074004430
         C           -0.687620050636     0.142190713191     0.406167058880    12.000000000000
         C           -1.386224050636     1.298015713191    -0.282103941120    12.000000000000
         C            0.823383949364     0.014951713191     0.039300058880    12.000000000000
         H           -0.767532050636     0.236622713191     1.492358058880     1.007825032230
         H           -1.855385250636    -1.137205286809    -0.842932441120     1.007825032230
         H           -1.904030050636    -1.578290286809     0.770281058880     1.007825032230
         H           -2.436122050636     1.370423713191     0.013549058880     1.007825032230
         H           -0.875129050636     2.219469713191    -0.003233941120     1.007825032230
         H           -1.327964050636     1.191095713191    -1.369667941120     1.007825032230
         H           -0.449673050636    -1.775471286809    -0.121070941120     1.007825032230

  Basis Set: AUG-CC-PVTZ
    Blend: AUG-CC-PVTZ
  Basis Set: (AUG-CC-PVTZ AUX)
    Blend: AUG-CC-PVTZ-JKFIT
	 Reference Energy          =    -321.9541228174991261 [Eh]
	 Singles Energy            =      -0.0000000000000000 [Eh]
	 Same-Spin Energy          =      -0.3222369081010441 [Eh]
	 Opposite-Spin Energy      =      -1.0070769778368411 [Eh]
	 Correlation Energy        =      -1.3293138859378852 [Eh]
	 Total Energy              =    -323.2834367034370189 [Eh]

	 ================> DF-SCS-MP2 Energies <==================
	-----------------------------------------------------------
	 SCS Same-Spin Scale       =       0.3333333333333333 [-]
	 SCS Opposite-Spin Scale   =       1.2000000000000000 [-]
	 SCS Same-Spin Energy      =      -0.1074123027003480 [Eh]
	 SCS Opposite-Spin Energy  =      -1.2084923734042092 [Eh]
	 SCS Correlation Energy    =      -1.3159046761045572 [Eh]
	 SCS Total Energy          =    -323.2700274936036635 [Eh]
	-----------------------------------------------------------

  Dipole Moment: [D]
     X:    -9.7193      Y:    -2.8320      Z:     0.6960     Total:    10.1474

*** Psi4 exiting successfully. Buy a developer a beer!
