                               Psi4 1.3.2 release

  ==> Input File <==

--------------------------------------------------------------------------
#psi4
#
memory 32 gb

molecule  {
0 1
  O        1.5890300     1.0650170     0.1165590
  O        1.2317748    -1.1878775    -0.2624150
  N       -1.2047650    -1.1860200     0.0435410
  C       -0.5965181     0.0566041     0.3927145
  C       -1.2872470     1.2925570    -0.2818200
  C        0.9223610     0.0094930     0.0395840
  H       -0.6685550     0.2311640     1.4926420
  H       -1.7458480    -1.1434940    -0.8256840
  H       -1.8050530    -1.5837490     0.7705650
  H       -2.3371450     1.3649650     0.0138330
  H       -0.7761520     2.2140110    -0.0029500
  H       -1.2289870     1.1856370    -1.3693840
  H       -0.3506960    -1.7809300    -0.1207870
units angstrom
no_reorient  #important for SAPT in psi4, default
symmetry c1  #important for SAPT in psi4, default
}

set PROPERTIES_ORIGIN ["COM"]
properties('MP2/aug-cc-pvtz', properties = ['dipole'])
--------------------------------------------------------------------------

    Molecular point group: c1
  Charge       = 0
  Multiplicity = 1
  Basis Set: AUG-CC-PVTZ
    Blend: AUG-CC-PVTZ
  Basis Set: (AUG-CC-PVTZ AUX)
    Blend: AUG-CC-PVTZ-JKFIT

    Orbital Energies [Eh]
    ---------------------

    Doubly Occupied:

       1A    -20.491697     2A    -20.478505     3A    -15.711502
       4A    -11.330600     5A    -11.303297     6A    -11.250216
       7A     -1.379087     8A     -1.331434     9A     -1.261355
      10A     -1.044932    11A     -0.911412    12A     -0.814226
      13A     -0.787706    14A     -0.739049    15A     -0.674754
      16A     -0.620924    17A     -0.584059    18A     -0.567160
      19A     -0.557081    20A     -0.550246    21A     -0.502277
      22A     -0.410852    23A     -0.385074    24A     -0.383040

  @DF-RHF Final Energy:  -321.94784630519268

   => Energetics <=

    Nuclear Repulsion Energy =            250.7831451278447332
    One-Electron Energy =                -937.3210106352322555
    Two-Electron Energy =                 364.5900192021948669
    Total Energy =                       -321.9478463051926838
  Basis Set: (AUG-CC-PVTZ AUX)
    Blend: AUG-CC-PVTZ-RI
    Molecular point group: c1

    Geometry (in Angstrom), charge = 0, multiplicity = 1:

       Center              X                  Y                   Z               Mass
    ------------   -----------------  -----------------  -----------------  -----------------
         O            1.502232754800     1.084981589217     0.116105268171    15.994914619570
         O            1.144977554800    -1.167912910783    -0.262868731829    15.994914619570
         N           -1.291562245200    -1.166055410783     0.043087268171    14.003074004430
         C           -0.683315345200     0.076568689217     0.392260768171    12.000000000000
         C           -1.374044245200     1.312521589217    -0.282273731829    12.000000000000
         C            0.835563754800     0.029457589217     0.039130268171    12.000000000000
         H           -0.755352245200     0.251128589217     1.492188268171     1.007825032230
         H           -1.832645245200    -1.123529410783    -0.826137731829     1.007825032230
         H           -1.891850245200    -1.563784410783     0.770111268171     1.007825032230
         H           -2.423942245200     1.384929589217     0.013379268171     1.007825032230
         H           -0.862949245200     2.233975589217    -0.003403731829     1.007825032230
         H           -1.315784245200     1.205601589217    -1.369837731829     1.007825032230
         H           -0.437493245200    -1.760965410783    -0.121240731829     1.007825032230

  Basis Set: AUG-CC-PVTZ
    Blend: AUG-CC-PVTZ
  Basis Set: (AUG-CC-PVTZ AUX)
    Blend: AUG-CC-PVTZ-JKFIT
	 Reference Energy          =    -321.9478463051926838 [Eh]
	 Singles Energy            =      -0.0000000000000000 [Eh]
	 Same-Spin Energy          =      -0.3228609425159543 [Eh]
	 Opposite-Spin Energy      =      -1.0071378496562664 [Eh]
	 Correlation Energy        =      -1.3299987921722207 [Eh]
	 Total Energy              =    -323.2778450973648887 [Eh]

	 ================> DF-SCS-MP2 Energies <==================
	-----------------------------------------------------------
	 SCS Same-Spin Scale       =       0.3333333333333333 [-]
	 SCS Opposite-Spin Scale   =       1.2000000000000000 [-]
	 SCS Same-Spin Energy      =      -0.1076203141719848 [Eh]
	 SCS Opposite-Spin Energy  =      -1.2085654195875197 [Eh]
	 SCS Correlation Energy    =      -1.3161857337595044 [Eh]
	 SCS Total Energy          =    -323.2640320389521662 [Eh]
	-----------------------------------------------------------

  Dipole Moment: [D]
     X:    -9.4724      Y:    -2.9571      Z:     0.6639     Total:     9.9455

*** Psi4 exiting successfully. Buy a developer a beer!
