                               Psi4 1.3.2 release

  ==> Input File <==

--------------------------------------------------------------------------
#psi4
#
memory 32 gb

molecule  {
0 1
  O        1.5890300     1.0650170     0.1165590
  O        1.2943400    -1.1672870    -0.2725970
  N       -1.1930466    -1.1902961     0.0394695
  C       -0.5886430     0.1367320     0.4064510
  C       -1.2872470     1.2925570    -0.2818200
  C        0.9201858    -0.0032438     0.0352952
  H       -0.6685550     0.2311640     1.4926420
  H       -1.7458480    -1.1434940    -0.8256840
  H       -1.8050530    -1.5837490     0.7705650
  H       -2.3371450     1.3649650     0.0138330
  H       -0.7761520     2.2140110    -0.0029500
  H       -1.2289870     1.1856370    -1.3693840
  H       -0.3506960    -1.7809300    -0.1207870
units angstrom
no_reorient  #important for SAPT in psi4, default
symmetry c1  #important for SAPT in psi4, default
}

set PROPERTIES_ORIGIN ["COM"]
properties('MP2/aug-cc-pvtz', properties = ['dipole'])
--------------------------------------------------------------------------

    Molecular point group: c1
  Charge       = 0
  Multiplicity = 1
  Basis Set: AUG-CC-PVTZ
    Blend: AUG-CC-PVTZ
  Basis Set: (AUG-CC-PVTZ AUX)
    Blend: AUG-CC-PVTZ-JKFIT

    Orbital Energies [Eh]
    ---------------------

    Doubly Occupied:

       1A    -20.492046     2A    -20.469391     3A    -15.711048
       4A    -11.327622     5A    -11.311470     6A    -11.251828
       7A     -1.370028     8A     -1.320958     9A     -1.252948
      10A     -1.060008    11A     -0.910617    12A     -0.806638
      13A     -0.783051    14A     -0.723125    15A     -0.676838
      16A     -0.629251    17A     -0.582313    18A     -0.572000
      19A     -0.561022    20A     -0.553996    21A     -0.513087
      22A     -0.408122    23A     -0.382692    24A     -0.375493

  @DF-RHF Final Energy:  -321.95411203564947

   => Energetics <=

    Nuclear Repulsion Energy =            249.9203047648985034
    One-Electron Energy =                -935.6576498712071270
    Two-Electron Energy =                 363.7832330706590938
    Total Energy =                       -321.9541120356494730
  Basis Set: (AUG-CC-PVTZ AUX)
    Blend: AUG-CC-PVTZ-RI
    Molecular point group: c1

    Geometry (in Angstrom), charge = 0, multiplicity = 1:

       Center              X                  Y                   Z               Mass
    ------------   -----------------  -----------------  -----------------  -----------------
         O            1.488383797974     1.072873941232     0.117301271686    15.994914619570
         O            1.193693797974    -1.159430058768    -0.271854728314    15.994914619570
         N           -1.293692802026    -1.182439158768     0.040211771686    14.003074004430
         C           -0.689289202026     0.144588941232     0.407193271686    12.000000000000
         C           -1.387893202026     1.300413941232    -0.281077728314    12.000000000000
         C            0.819539597974     0.004613141232     0.036037471686    12.000000000000
         H           -0.769201202026     0.239020941232     1.493384271686     1.007825032230
         H           -1.846494202026    -1.135637058768    -0.824941728314     1.007825032230
         H           -1.905699202026    -1.575892058768     0.771307271686     1.007825032230
         H           -2.437791202026     1.372821941232     0.014575271686     1.007825032230
         H           -0.876798202026     2.221867941232    -0.002207728314     1.007825032230
         H           -1.329633202026     1.193493941232    -1.368641728314     1.007825032230
         H           -0.451342202026    -1.773073058768    -0.120044728314     1.007825032230

  Basis Set: AUG-CC-PVTZ
    Blend: AUG-CC-PVTZ
  Basis Set: (AUG-CC-PVTZ AUX)
    Blend: AUG-CC-PVTZ-JKFIT
	 Reference Energy          =    -321.9541120356494730 [Eh]
	 Singles Energy            =      -0.0000000000000000 [Eh]
	 Same-Spin Energy          =      -0.3220972193829040 [Eh]
	 Opposite-Spin Energy      =      -1.0067096209636435 [Eh]
	 Correlation Energy        =      -1.3288068403465476 [Eh]
	 Total Energy              =    -323.2829188759960175 [Eh]

	 ================> DF-SCS-MP2 Energies <==================
	-----------------------------------------------------------
	 SCS Same-Spin Scale       =       0.3333333333333333 [-]
	 SCS Opposite-Spin Scale   =       1.2000000000000000 [-]
	 SCS Same-Spin Energy      =      -0.1073657397943013 [Eh]
	 SCS Opposite-Spin Energy  =      -1.2080515451563720 [Eh]
	 SCS Correlation Energy    =      -1.3154172849506733 [Eh]
	 SCS Total Energy          =    -323.2695293206001566 [Eh]
	-----------------------------------------------------------

  Dipole Moment: [D]
     X:    -9.7678      Y:    -2.9556      Z:     0.6943     Total:    10.2288

*** Psi4 exiting successfully. Buy a developer a beer!
