                               Psi4 1.4a3.dev225

  ==> Input File <==

--------------------------------------------------------------------------
#psi4
#
memory 32 gb

molecule  {
0 1
  O        1.5890300     1.0650170     0.1165590
  O        1.2943400    -1.1672870    -0.2725970
  N       -1.2047650    -1.1860200     0.0435410
  C       -0.6091305     0.0927475     0.3943834
  C       -1.2872470     1.2925570    -0.2818200
  C        0.9223610     0.0094930     0.0395840
  H       -0.6685550     0.2311640     1.4926420
  H       -1.7458480    -1.1434940    -0.8256840
  H       -1.8050530    -1.5837490     0.7705650
  H       -2.3371450     1.3649650     0.0138330
  H       -0.7761520     2.2140110    -0.0029500
  H       -1.2289870     1.1856370    -1.3693840
  H       -0.3506960    -1.7809300    -0.1207870
units angstrom
no_reorient  #important for SAPT in psi4, default
symmetry c1  #important for SAPT in psi4, default
}

set PROPERTIES_ORIGIN ["COM"]
properties('MP2/aug-cc-pvtz', properties = ['dipole'])
--------------------------------------------------------------------------

    Molecular point group: c1
  Charge       = 0
  Multiplicity = 1
  Basis Set: AUG-CC-PVTZ
    Blend: AUG-CC-PVTZ
  Basis Set: (AUG-CC-PVTZ AUX)
    Blend: AUG-CC-PVTZ-JKFIT

    Orbital Energies [Eh]
    ---------------------

    Doubly Occupied:

       1A    -20.489209     2A    -20.473369     3A    -15.715142
       4A    -11.328226     5A    -11.307965     6A    -11.251271
       7A     -1.372824     8A     -1.329929     9A     -1.254510
      10A     -1.053943    11A     -0.911161    12A     -0.813914
      13A     -0.787243    14A     -0.731474    15A     -0.675367
      16A     -0.624631    17A     -0.580917    18A     -0.567795
      19A     -0.561954    20A     -0.551231    21A     -0.508135
      22A     -0.406070    23A     -0.383612    24A     -0.377367

  @DF-RHF Final Energy:  -321.95211982567514

   => Energetics <=

    Nuclear Repulsion Energy =            249.9750942661610793
    One-Electron Energy =                -935.7399127872760118
    Two-Electron Energy =                 363.8126986954397353
    Total Energy =                       -321.9521198256751404
  Basis Set: (AUG-CC-PVTZ AUX)
    Blend: AUG-CC-PVTZ-RI
    Molecular point group: c1

    Geometry (in Angstrom), charge = 0, multiplicity = 1:

       Center              X                  Y                   Z               Mass
    ------------   -----------------  -----------------  -----------------  -----------------
         O            1.492694311499     1.076412426016     0.117709278777    15.994914619570
         O            1.198004311499    -1.155891573984    -0.271446721223    15.994914619570
         N           -1.301100688501    -1.174624573984     0.044691278777    14.003074004430
         C           -0.705466188501     0.104142926016     0.395533678777    12.000000000000
         C           -1.383582688501     1.303952426016    -0.280669721223    12.000000000000
         C            0.826025311499     0.020888426016     0.040734278777    12.000000000000
         H           -0.764890688501     0.242559426016     1.493792278777     1.007825032230
         H           -1.842183688501    -1.132098573984    -0.824533721223     1.007825032230
         H           -1.901388688501    -1.572353573984     0.771715278777     1.007825032230
         H           -2.433480688501     1.376360426016     0.014983278777     1.007825032230
         H           -0.872487688501     2.225406426016    -0.001799721223     1.007825032230
         H           -1.325322688501     1.197032426016    -1.368233721223     1.007825032230
         H           -0.447031688501    -1.769534573984    -0.119636721223     1.007825032230

  Basis Set: AUG-CC-PVTZ
    Blend: AUG-CC-PVTZ
  Basis Set: (AUG-CC-PVTZ AUX)
    Blend: AUG-CC-PVTZ-JKFIT
	 Reference Energy          =    -321.9521198256751404 [Eh]
	 Singles Energy            =      -0.0000000000000000 [Eh]
	 Same-Spin Energy          =      -0.3224547582821072 [Eh]
	 Opposite-Spin Energy      =      -1.0068443182927758 [Eh]
	 Correlation Energy        =      -1.3292990765748831 [Eh]
	 Total Energy              =    -323.2814189022500386 [Eh]

	 ================> DF-SCS-MP2 Energies <==================
	-----------------------------------------------------------
	 SCS Same-Spin Scale       =       0.3333333333333333 [-]
	 SCS Opposite-Spin Scale   =       1.2000000000000000 [-]
	 SCS Same-Spin Energy      =      -0.1074849194273691 [Eh]
	 SCS Opposite-Spin Energy  =      -1.2082131819513309 [Eh]
	 SCS Correlation Energy    =      -1.3156981013786999 [Eh]
	 SCS Total Energy          =    -323.2678179270538408 [Eh]
	-----------------------------------------------------------

  Dipole Moment: [D]
     X:    -9.7287      Y:    -2.9527      Z:     0.6903     Total:    10.1903

*** Psi4 exiting successfully. Buy a developer a beer!
