                               Psi4 1.3.2 release

  ==> Input File <==

--------------------------------------------------------------------------
#psi4
#
memory 32 gb

molecule  {
0 1
  O        1.5890300     1.0650170     0.1165590
  O        1.2943400    -1.1672870    -0.2725970
  N       -1.2047650    -1.1860200     0.0435410
  C       -0.5886430     0.1367320     0.4064510
  C       -1.2872470     1.2925570    -0.2818200
  C        0.9345380     0.0130643     0.0925398
  H       -0.6305340     0.2289122     1.4949647
  H       -1.7458480    -1.1434940    -0.8256840
  H       -1.8050530    -1.5837490     0.7705650
  H       -2.3371450     1.3649650     0.0138330
  H       -0.7761520     2.2140110    -0.0029500
  H       -1.2289870     1.1856370    -1.3693840
  H       -0.3506960    -1.7809300    -0.1207870
units angstrom
no_reorient  #important for SAPT in psi4, default
symmetry c1  #important for SAPT in psi4, default
}

set PROPERTIES_ORIGIN ["COM"]
properties('MP2/aug-cc-pvtz', properties = ['dipole'])
--------------------------------------------------------------------------

    Molecular point group: c1
  Charge       = 0
  Multiplicity = 1
  Basis Set: AUG-CC-PVTZ
    Blend: AUG-CC-PVTZ
  Basis Set: (AUG-CC-PVTZ AUX)
    Blend: AUG-CC-PVTZ-JKFIT

    Orbital Energies [Eh]
    ---------------------

    Doubly Occupied:

       1A    -20.486056     2A    -20.476399     3A    -15.709616
       4A    -11.328036     5A    -11.310749     6A    -11.252349
       7A     -1.365866     8A     -1.322822     9A     -1.253597
      10A     -1.059910    11A     -0.911706    12A     -0.804488
      13A     -0.778796    14A     -0.725570    15A     -0.674526
      16A     -0.627732    17A     -0.585561    18A     -0.571983
      19A     -0.561177    20A     -0.552963    21A     -0.511273
      22A     -0.405121    23A     -0.385546    24A     -0.378129

  @DF-RHF Final Energy:  -321.95357139254702

   => Energetics <=

    Nuclear Repulsion Energy =            249.7029426206655955
    One-Electron Energy =                -935.2330844817522575
    Two-Electron Energy =                 363.5765704685396713
    Total Energy =                       -321.9535713925470191
  Basis Set: (AUG-CC-PVTZ AUX)
    Blend: AUG-CC-PVTZ-RI
    Molecular point group: c1

    Geometry (in Angstrom), charge = 0, multiplicity = 1:

       Center              X                  Y                   Z               Mass
    ------------   -----------------  -----------------  -----------------  -----------------
         O            1.487862152784     1.070029326654     0.108920485080    15.994914619570
         O            1.193172152784    -1.162274673346    -0.280235514920    15.994914619570
         N           -1.305932847216    -1.181007673346     0.035902485080    14.003074004430
         C           -0.689810847216     0.141744326654     0.398812485080    12.000000000000
         C           -1.388414847216     1.297569326654    -0.289458514920    12.000000000000
         C            0.833370152784     0.018076626654     0.084901285080    12.000000000000
         H           -0.731701847216     0.233924526654     1.487326185080     1.007825032230
         H           -1.847015847216    -1.138481673346    -0.833322514920     1.007825032230
         H           -1.906220847216    -1.578736673346     0.762926485080     1.007825032230
         H           -2.438312847216     1.369977326654     0.006194485080     1.007825032230
         H           -0.877319847216     2.219023326654    -0.010588514920     1.007825032230
         H           -1.330154847216     1.190649326654    -1.377022514920     1.007825032230
         H           -0.451863847216    -1.775917673346    -0.128425514920     1.007825032230

  Basis Set: AUG-CC-PVTZ
    Blend: AUG-CC-PVTZ
  Basis Set: (AUG-CC-PVTZ AUX)
    Blend: AUG-CC-PVTZ-JKFIT
	 Reference Energy          =    -321.9535713925470191 [Eh]
	 Singles Energy            =      -0.0000000000000000 [Eh]
	 Same-Spin Energy          =      -0.3221818376410568 [Eh]
	 Opposite-Spin Energy      =      -1.0067732149279940 [Eh]
	 Correlation Energy        =      -1.3289550525690508 [Eh]
	 Total Energy              =    -323.2825264451160479 [Eh]

	 ================> DF-SCS-MP2 Energies <==================
	-----------------------------------------------------------
	 SCS Same-Spin Scale       =       0.3333333333333333 [-]
	 SCS Opposite-Spin Scale   =       1.2000000000000000 [-]
	 SCS Same-Spin Energy      =      -0.1073939458803523 [Eh]
	 SCS Opposite-Spin Energy  =      -1.2081278579135928 [Eh]
	 SCS Correlation Energy    =      -1.3155218037939451 [Eh]
	 SCS Total Energy          =    -323.2690931963409753 [Eh]
	-----------------------------------------------------------

  Dipole Moment: [D]
     X:    -9.6755      Y:    -2.7101      Z:     0.7465     Total:    10.0755

*** Psi4 exiting successfully. Buy a developer a beer!
