                               Psi4 1.4a3.dev225

  ==> Input File <==

--------------------------------------------------------------------------
#psi4
#
memory 32 gb

molecule  {
0 1
  O        1.5890300     1.0650170     0.1165590
  O        1.2943400    -1.1672870    -0.2725970
  N       -1.2047650    -1.1860200     0.0435410
  C       -0.5968380     0.1191382     0.4016240
  C       -1.2872470     1.2925570    -0.2818200
  C        0.9223610     0.0094930     0.0395840
  H       -0.6685550     0.2311640     1.4926420
  H       -1.7458480    -1.1434940    -0.8256840
  H       -1.8050530    -1.5837490     0.7705650
  H       -2.3371450     1.3649650     0.0138330
  H       -0.7761520     2.2140110    -0.0029500
  H       -1.2289870     1.1856370    -1.3693840
  H       -0.3506960    -1.7809300    -0.1207870
units angstrom
no_reorient  #important for SAPT in psi4, default
symmetry c1  #important for SAPT in psi4, default
}

set PROPERTIES_ORIGIN ["COM"]
properties('MP2/aug-cc-pvtz', properties = ['dipole'])
--------------------------------------------------------------------------

    Molecular point group: c1
  Charge       = 0
  Multiplicity = 1
  Basis Set: AUG-CC-PVTZ
    Blend: AUG-CC-PVTZ
  Basis Set: (AUG-CC-PVTZ AUX)
    Blend: AUG-CC-PVTZ-JKFIT

    Orbital Energies [Eh]
    ---------------------

    Doubly Occupied:

       1A    -20.489439     2A    -20.473172     3A    -15.712043
       4A    -11.328081     5A    -11.309892     6A    -11.251477
       7A     -1.369303     8A     -1.325125     9A     -1.254694
      10A     -1.057714    11A     -0.910476    12A     -0.809574
      13A     -0.782615    14A     -0.727361    15A     -0.675806
      16A     -0.627202    17A     -0.582081    18A     -0.569709
      19A     -0.562100    20A     -0.552771    21A     -0.510863
      22A     -0.406796    23A     -0.384420    24A     -0.377344

  @DF-RHF Final Energy:  -321.95450187404668

   => Energetics <=

    Nuclear Repulsion Energy =            249.8779677547894380
    One-Electron Energy =                -935.5648232129367443
    Two-Electron Energy =                 363.7323535841006219
    Total Energy =                       -321.9545018740466844
  Basis Set: (AUG-CC-PVTZ AUX)
    Blend: AUG-CC-PVTZ-RI
    Molecular point group: c1

    Geometry (in Angstrom), charge = 0, multiplicity = 1:

       Center              X                  Y                   Z               Mass
    ------------   -----------------  -----------------  -----------------  -----------------
         O            1.491037783193     1.072856034592     0.116733540818    15.994914619570
         O            1.196347783193    -1.159447965408    -0.272422459182    15.994914619570
         N           -1.302757216807    -1.178180965408     0.043715540818    14.003074004430
         C           -0.694830216807     0.126977234592     0.401798540818    12.000000000000
         C           -1.385239216807     1.300396034592    -0.281645459182    12.000000000000
         C            0.824368783193     0.017332034592     0.039758540818    12.000000000000
         H           -0.766547216807     0.239003034592     1.492816540818     1.007825032230
         H           -1.843840216807    -1.135654965408    -0.825509459182     1.007825032230
         H           -1.903045216807    -1.575909965408     0.770739540818     1.007825032230
         H           -2.435137216807     1.372804034592     0.014007540818     1.007825032230
         H           -0.874144216807     2.221850034592    -0.002775459182     1.007825032230
         H           -1.326979216807     1.193476034592    -1.369209459182     1.007825032230
         H           -0.448688216807    -1.773090965408    -0.120612459182     1.007825032230

  Basis Set: AUG-CC-PVTZ
    Blend: AUG-CC-PVTZ
  Basis Set: (AUG-CC-PVTZ AUX)
    Blend: AUG-CC-PVTZ-JKFIT
	 Reference Energy          =    -321.9545018740466844 [Eh]
	 Singles Energy            =      -0.0000000000000000 [Eh]
	 Same-Spin Energy          =      -0.3222355043748644 [Eh]
	 Opposite-Spin Energy      =      -1.0067370133611040 [Eh]
	 Correlation Energy        =      -1.3289725177359684 [Eh]
	 Total Energy              =    -323.2834743917826472 [Eh]

	 ================> DF-SCS-MP2 Energies <==================
	-----------------------------------------------------------
	 SCS Same-Spin Scale       =       0.3333333333333333 [-]
	 SCS Opposite-Spin Scale   =       1.2000000000000000 [-]
	 SCS Same-Spin Energy      =      -0.1074118347916215 [Eh]
	 SCS Opposite-Spin Energy  =      -1.2080844160333248 [Eh]
	 SCS Correlation Energy    =      -1.3154962508249464 [Eh]
	 SCS Total Energy          =    -323.2699981248716199 [Eh]
	-----------------------------------------------------------

  Dipole Moment: [D]
     X:    -9.7193      Y:    -2.8837      Z:     0.7042     Total:    10.1625

*** Psi4 exiting successfully. Buy a developer a beer!
