                               Psi4 1.3.2 release

  ==> Input File <==

--------------------------------------------------------------------------
#psi4
#
memory 32 gb

molecule  {
0 1
  O        1.5890300     1.0650170     0.1165590
  O        1.2943400    -1.1672870    -0.2725970
  N       -1.2047650    -1.1860200     0.0435410
  C       -0.5886430     0.1367320     0.4064510
  C       -1.2872470     1.2925570    -0.2818200
  C        0.9255784     0.0103714     0.0527836
  H       -0.6590571     0.2306117     1.4933469
  H       -1.7458480    -1.1434940    -0.8256840
  H       -1.8050530    -1.5837490     0.7705650
  H       -2.3371450     1.3649650     0.0138330
  H       -0.7761520     2.2140110    -0.0029500
  H       -1.2289870     1.1856370    -1.3693840
  H       -0.3506960    -1.7809300    -0.1207870
units angstrom
no_reorient  #important for SAPT in psi4, default
symmetry c1  #important for SAPT in psi4, default
}

set PROPERTIES_ORIGIN ["COM"]
properties('MP2/aug-cc-pvtz', properties = ['dipole'])
--------------------------------------------------------------------------

    Molecular point group: c1
  Charge       = 0
  Multiplicity = 1
  Basis Set: AUG-CC-PVTZ
    Blend: AUG-CC-PVTZ
  Basis Set: (AUG-CC-PVTZ AUX)
    Blend: AUG-CC-PVTZ-JKFIT

    Orbital Energies [Eh]
    ---------------------

    Doubly Occupied:

       1A    -20.488710     2A    -20.473898     3A    -15.709703
       4A    -11.327974     5A    -11.311117     6A    -11.251843
       7A     -1.367089     8A     -1.321846     9A     -1.254900
      10A     -1.060137    11A     -0.910563    12A     -0.806143
      13A     -0.779376    14A     -0.725087    15A     -0.675415
      16A     -0.628617    17A     -0.583835    18A     -0.571777
      19A     -0.561329    20A     -0.553430    21A     -0.512236
      22A     -0.406795    23A     -0.385141    24A     -0.377691

  @DF-RHF Final Energy:  -321.95521613502677

   => Energetics <=

    Nuclear Repulsion Energy =            249.7949761799073940
    One-Electron Energy =                -935.4110826107528283
    Two-Electron Energy =                 363.6608902958186604
    Total Energy =                       -321.9552161350267738
  Basis Set: (AUG-CC-PVTZ AUX)
    Blend: AUG-CC-PVTZ-RI
    Molecular point group: c1

    Geometry (in Angstrom), charge = 0, multiplicity = 1:

       Center              X                  Y                   Z               Mass
    ------------   -----------------  -----------------  -----------------  -----------------
         O            1.489392361056     1.070372985263     0.114296311464    15.994914619570
         O            1.194702361056    -1.161931014737    -0.274859688536    15.994914619570
         N           -1.304402638944    -1.180664014737     0.041278311464    14.003074004430
         C           -0.688280638944     0.142087985263     0.404188311464    12.000000000000
         C           -1.386884638944     1.297912985263    -0.284082688536    12.000000000000
         C            0.825940761056     0.015727385263     0.050520911464    12.000000000000
         H           -0.758694738944     0.235967685263     1.491084211464     1.007825032230
         H           -1.845485638944    -1.138138014737    -0.827946688536     1.007825032230
         H           -1.904690638944    -1.578393014737     0.768302311464     1.007825032230
         H           -2.436782638944     1.370320985263     0.011570311464     1.007825032230
         H           -0.875789638944     2.219366985263    -0.005212688536     1.007825032230
         H           -1.328624638944     1.190992985263    -1.371646688536     1.007825032230
         H           -0.450333638944    -1.775574014737    -0.123049688536     1.007825032230

  Basis Set: AUG-CC-PVTZ
    Blend: AUG-CC-PVTZ
  Basis Set: (AUG-CC-PVTZ AUX)
    Blend: AUG-CC-PVTZ-JKFIT
	 Reference Energy          =    -321.9552161350267738 [Eh]
	 Singles Energy            =      -0.0000000000000000 [Eh]
	 Same-Spin Energy          =      -0.3221113725466376 [Eh]
	 Opposite-Spin Energy      =      -1.0066685531447352 [Eh]
	 Correlation Energy        =      -1.3287799256913728 [Eh]
	 Total Energy              =    -323.2839960607181524 [Eh]

	 ================> DF-SCS-MP2 Energies <==================
	-----------------------------------------------------------
	 SCS Same-Spin Scale       =       0.3333333333333333 [-]
	 SCS Opposite-Spin Scale   =       1.2000000000000000 [-]
	 SCS Same-Spin Energy      =      -0.1073704575155459 [Eh]
	 SCS Opposite-Spin Energy  =      -1.2080022637736822 [Eh]
	 SCS Correlation Energy    =      -1.3153727212892281 [Eh]
	 SCS Total Energy          =    -323.2705888563160102 [Eh]
	-----------------------------------------------------------

  Dipole Moment: [D]
     X:    -9.7007      Y:    -2.8029      Z:     0.7217     Total:    10.1232

*** Psi4 exiting successfully. Buy a developer a beer!
