                               Psi4 1.4a3.dev225

  ==> Input File <==

--------------------------------------------------------------------------
#psi4
#
memory 32 gb

molecule  {
0 1
  O        1.5890300     1.0650170     0.1165590
  O        1.2943400    -1.1672870    -0.2725970
  N       -1.2047650    -1.1860200     0.0435410
  C       -0.5886430     0.1367320     0.4064510
  C       -1.2872470     1.2925570    -0.2818200
  C        0.9707875     0.0054151     0.0278262
  H       -0.6685550     0.2311640     1.4926420
  H       -1.7458480    -1.1434940    -0.8256840
  H       -1.8050530    -1.5837490     0.7705650
  H       -2.3371450     1.3649650     0.0138330
  H       -0.7761520     2.2140110    -0.0029500
  H       -1.2289870     1.1856370    -1.3693840
  H       -0.3506960    -1.7809300    -0.1207870
units angstrom
no_reorient  #important for SAPT in psi4, default
symmetry c1  #important for SAPT in psi4, default
}

set PROPERTIES_ORIGIN ["COM"]
properties('MP2/aug-cc-pvtz', properties = ['dipole'])
--------------------------------------------------------------------------

    Molecular point group: c1
  Charge       = 0
  Multiplicity = 1
  Basis Set: AUG-CC-PVTZ
    Blend: AUG-CC-PVTZ
  Basis Set: (AUG-CC-PVTZ AUX)
    Blend: AUG-CC-PVTZ-JKFIT

    Orbital Energies [Eh]
    ---------------------

    Doubly Occupied:

       1A    -20.491781     2A    -20.475637     3A    -15.706580
       4A    -11.328412     5A    -11.303555     6A    -11.247716
       7A     -1.374419     8A     -1.322986     9A     -1.271039
      10A     -1.052385    11A     -0.899987    12A     -0.802142
      13A     -0.776714    14A     -0.717565    15A     -0.672372
      16A     -0.627835    17A     -0.588257    18A     -0.573589
      19A     -0.560188    20A     -0.552847    21A     -0.520020
      22A     -0.411714    23A     -0.385080    24A     -0.379363

  @DF-RHF Final Energy:  -321.95787606589943

   => Energetics <=

    Nuclear Repulsion Energy =            249.7227802120868034
    One-Electron Energy =                -935.2769432934848055
    Two-Electron Energy =                 363.5962870154985467
    Total Energy =                       -321.9578760658994270
  Basis Set: (AUG-CC-PVTZ AUX)
    Blend: AUG-CC-PVTZ-RI
    Molecular point group: c1

    Geometry (in Angstrom), charge = 0, multiplicity = 1:

       Center              X                  Y                   Z               Mass
    ------------   -----------------  -----------------  -----------------  -----------------
         O            1.483407511279     1.071034641797     0.117667530355    15.994914619570
         O            1.188717511279    -1.161269358203    -0.271488469645    15.994914619570
         N           -1.310387488721    -1.180002358203     0.044649530355    14.003074004430
         C           -0.694265488721     0.142749641797     0.407559530355    12.000000000000
         C           -1.392869488721     1.298574641797    -0.280711469645    12.000000000000
         C            0.865165011279     0.011432741797     0.028934730355    12.000000000000
         H           -0.774177488721     0.237181641797     1.493750530355     1.007825032230
         H           -1.851470488721    -1.137476358203    -0.824575469645     1.007825032230
         H           -1.910675488721    -1.577731358203     0.771673530355     1.007825032230
         H           -2.442767488721     1.370982641797     0.014941530355     1.007825032230
         H           -0.881774488721     2.220028641797    -0.001841469645     1.007825032230
         H           -1.334609488721     1.191654641797    -1.368275469645     1.007825032230
         H           -0.456318488721    -1.774912358203    -0.119678469645     1.007825032230

  Basis Set: AUG-CC-PVTZ
    Blend: AUG-CC-PVTZ
  Basis Set: (AUG-CC-PVTZ AUX)
    Blend: AUG-CC-PVTZ-JKFIT
	 Reference Energy          =    -321.9578760658994270 [Eh]
	 Singles Energy            =      -0.0000000000000000 [Eh]
	 Same-Spin Energy          =      -0.3213270049010782 [Eh]
	 Opposite-Spin Energy      =      -1.0048237538821223 [Eh]
	 Correlation Energy        =      -1.3261507587832004 [Eh]
	 Total Energy              =    -323.2840268246826554 [Eh]

	 ================> DF-SCS-MP2 Energies <==================
	-----------------------------------------------------------
	 SCS Same-Spin Scale       =       0.3333333333333333 [-]
	 SCS Opposite-Spin Scale   =       1.2000000000000000 [-]
	 SCS Same-Spin Energy      =      -0.1071090016336927 [Eh]
	 SCS Opposite-Spin Energy  =      -1.2057885046585468 [Eh]
	 SCS Correlation Energy    =      -1.3128975062922394 [Eh]
	 SCS Total Energy          =    -323.2707735721916720 [Eh]
	-----------------------------------------------------------

  Dipole Moment: [D]
     X:    -9.3993      Y:    -2.8801      Z:     0.6585     Total:     9.8526

*** Psi4 exiting successfully. Buy a developer a beer!
