                               Psi4 1.3.2 release

  ==> Input File <==

--------------------------------------------------------------------------
#psi4
#
memory 32 gb

molecule  {
0 1
  O        1.5890300     1.0650170     0.1165590
  O        1.2943400    -1.1672870    -0.2725970
  N       -1.2047650    -1.1860200     0.0435410
  C       -0.5886430     0.1367320     0.4064510
  C       -1.2872470     1.2925570    -0.2818200
  C        1.0289597     0.1782687     0.0518921
  H       -0.6685550     0.2311640     1.4926420
  H       -1.7458480    -1.1434940    -0.8256840
  H       -1.8050530    -1.5837490     0.7705650
  H       -2.3371450     1.3649650     0.0138330
  H       -0.7761520     2.2140110    -0.0029500
  H       -1.2289870     1.1856370    -1.3693840
  H       -0.3506960    -1.7809300    -0.1207870
units angstrom
no_reorient  #important for SAPT in psi4, default
symmetry c1  #important for SAPT in psi4, default
}

set PROPERTIES_ORIGIN ["COM"]
properties('MP2/aug-cc-pvtz', properties = ['dipole'])
--------------------------------------------------------------------------

    Molecular point group: c1
  Charge       = 0
  Multiplicity = 1
  Basis Set: AUG-CC-PVTZ
    Blend: AUG-CC-PVTZ
  Basis Set: (AUG-CC-PVTZ AUX)
    Blend: AUG-CC-PVTZ-JKFIT

    Orbital Energies [Eh]
    ---------------------

    Doubly Occupied:

       1A    -20.521356     2A    -20.451857     3A    -15.695745
       4A    -11.321080     5A    -11.292301     6A    -11.245707
       7A     -1.487870     8A     -1.320755     9A     -1.202880
      10A     -1.048136    11A     -0.886741    12A     -0.787378
      13A     -0.762974    14A     -0.726085    15A     -0.682929
      16A     -0.647076    17A     -0.607802    18A     -0.600641
      19A     -0.568097    20A     -0.559360    21A     -0.534831
      22A     -0.393085    23A     -0.374952    24A     -0.352526

  @DF-RHF Final Energy:  -321.88707173364713

   => Energetics <=

    Nuclear Repulsion Energy =            250.1198702564532255
    One-Electron Energy =                -935.8695546079093219
    Two-Electron Energy =                 363.8626126178090203
    Total Energy =                       -321.8870717336471330
  Basis Set: (AUG-CC-PVTZ AUX)
    Blend: AUG-CC-PVTZ-RI
    Molecular point group: c1

    Geometry (in Angstrom), charge = 0, multiplicity = 1:

       Center              X                  Y                   Z               Mass
    ------------   -----------------  -----------------  -----------------  -----------------
         O            1.475568268168     1.047741017127     0.114424427279    15.994914619570
         O            1.180878268168    -1.184562982873    -0.274731572721    15.994914619570
         N           -1.318226731832    -1.203295982873     0.041406427279    14.003074004430
         C           -0.702104731832     0.119456017127     0.404316427279    12.000000000000
         C           -1.400708731832     1.275281017127    -0.283954572721    12.000000000000
         C            0.915497968168     0.160992717127     0.049757527279    12.000000000000
         H           -0.782016731832     0.213888017127     1.490507427279     1.007825032230
         H           -1.859309731832    -1.160769982873    -0.827818572721     1.007825032230
         H           -1.918514731832    -1.601024982873     0.768430427279     1.007825032230
         H           -2.450606731832     1.347689017127     0.011698427279     1.007825032230
         H           -0.889613731832     2.196735017127    -0.005084572721     1.007825032230
         H           -1.342448731832     1.168361017127    -1.371518572721     1.007825032230
         H           -0.464157731832    -1.798205982873    -0.122921572721     1.007825032230

  Basis Set: AUG-CC-PVTZ
    Blend: AUG-CC-PVTZ
  Basis Set: (AUG-CC-PVTZ AUX)
    Blend: AUG-CC-PVTZ-JKFIT
	 Reference Energy          =    -321.8870717336471330 [Eh]
	 Singles Energy            =      -0.0000000000000000 [Eh]
	 Same-Spin Energy          =      -0.3199006372566584 [Eh]
	 Opposite-Spin Energy      =      -1.0026997507718982 [Eh]
	 Correlation Energy        =      -1.3226003880285566 [Eh]
	 Total Energy              =    -323.2096721216756805 [Eh]

	 ================> DF-SCS-MP2 Energies <==================
	-----------------------------------------------------------
	 SCS Same-Spin Scale       =       0.3333333333333333 [-]
	 SCS Opposite-Spin Scale   =       1.2000000000000000 [-]
	 SCS Same-Spin Energy      =      -0.1066335457522195 [Eh]
	 SCS Opposite-Spin Energy  =      -1.2032397009262779 [Eh]
	 SCS Correlation Energy    =      -1.3098732466784972 [Eh]
	 SCS Total Energy          =    -323.1969449803256111 [Eh]
	-----------------------------------------------------------

  Dipole Moment: [D]
     X:    -8.7408      Y:    -1.1422      Z:     0.9090     Total:     8.8618

*** Psi4 exiting successfully. Buy a developer a beer!
