                               Psi4 1.3.2 release

  ==> Input File <==

--------------------------------------------------------------------------
#psi4
#
memory 32 gb

molecule  {
0 1
  O        1.5890300     1.0650170     0.1165590
  O        1.2943400    -1.1672870    -0.2725970
  N       -1.2559358    -1.1473255    -0.0020822
  C       -0.5886430     0.1367320     0.4064510
  C       -1.3359823     1.2400473    -0.3159583
  C        0.9223610     0.0094930     0.0395840
  H       -0.6685550     0.2311640     1.4926420
  H       -1.7458480    -1.1434940    -0.8256840
  H       -1.8050530    -1.5837490     0.7705650
  H       -2.3371450     1.3649650     0.0138330
  H       -0.7761520     2.2140110    -0.0029500
  H       -1.2289870     1.1856370    -1.3693840
  H       -0.3506960    -1.7809300    -0.1207870
units angstrom
no_reorient  #important for SAPT in psi4, default
symmetry c1  #important for SAPT in psi4, default
}

set PROPERTIES_ORIGIN ["COM"]
properties('MP2/aug-cc-pvtz', properties = ['dipole'])
--------------------------------------------------------------------------

    Molecular point group: c1
  Charge       = 0
  Multiplicity = 1
  Basis Set: AUG-CC-PVTZ
    Blend: AUG-CC-PVTZ
  Basis Set: (AUG-CC-PVTZ AUX)
    Blend: AUG-CC-PVTZ-JKFIT

    Orbital Energies [Eh]
    ---------------------

    Doubly Occupied:

       1A    -20.493800     2A    -20.475497     3A    -15.703300
       4A    -11.330674     5A    -11.312910     6A    -11.249546
       7A     -1.367831     8A     -1.322409     9A     -1.257463
      10A     -1.059572    11A     -0.915046    12A     -0.808298
      13A     -0.767871    14A     -0.726380    15A     -0.678824
      16A     -0.634958    17A     -0.585077    18A     -0.572542
      19A     -0.566691    20A     -0.528412    21A     -0.516369
      22A     -0.409873    23A     -0.386923    24A     -0.379865

  @DF-RHF Final Energy:  -321.93936918922947

   => Energetics <=

    Nuclear Repulsion Energy =            249.6860666040133481
    One-Electron Energy =                -935.1506158431917584
    Two-Electron Energy =                 363.5251800499489150
    Total Energy =                       -321.9393691892294669
  Basis Set: (AUG-CC-PVTZ AUX)
    Blend: AUG-CC-PVTZ-RI
    Molecular point group: c1

    Geometry (in Angstrom), charge = 0, multiplicity = 1:

       Center              X                  Y                   Z               Mass
    ------------   -----------------  -----------------  -----------------  -----------------
         O            1.504547760319     1.071476423701     0.127857925675    15.994914619570
         O            1.209857760319    -1.160827576299    -0.261298074325    15.994914619570
         N           -1.340418039681    -1.140866076299     0.009216725675    14.003074004430
         C           -0.673125239681     0.143191423701     0.417749925675    12.000000000000
         C           -1.420464539681     1.246506723701    -0.304659374325    12.000000000000
         C            0.837878760319     0.015952423701     0.050882925675    12.000000000000
         H           -0.753037239681     0.237623423701     1.503940925675     1.007825032230
         H           -1.830330239681    -1.137034576299    -0.814385074325     1.007825032230
         H           -1.889535239681    -1.577289576299     0.781863925675     1.007825032230
         H           -2.421627239681     1.371424423701     0.025131925675     1.007825032230
         H           -0.860634239681     2.220470423701     0.008348925675     1.007825032230
         H           -1.313469239681     1.192096423701    -1.358085074325     1.007825032230
         H           -0.435178239681    -1.774470576299    -0.109488074325     1.007825032230

  Basis Set: AUG-CC-PVTZ
    Blend: AUG-CC-PVTZ
  Basis Set: (AUG-CC-PVTZ AUX)
    Blend: AUG-CC-PVTZ-JKFIT
	 Reference Energy          =    -321.9393691892294669 [Eh]
	 Singles Energy            =      -0.0000000000000000 [Eh]
	 Same-Spin Energy          =      -0.3230133307248572 [Eh]
	 Opposite-Spin Energy      =      -1.0082166297592923 [Eh]
	 Correlation Energy        =      -1.3312299604841495 [Eh]
	 Total Energy              =    -323.2705991497136324 [Eh]

	 ================> DF-SCS-MP2 Energies <==================
	-----------------------------------------------------------
	 SCS Same-Spin Scale       =       0.3333333333333333 [-]
	 SCS Opposite-Spin Scale   =       1.2000000000000000 [-]
	 SCS Same-Spin Energy      =      -0.1076711102416190 [Eh]
	 SCS Opposite-Spin Energy  =      -1.2098599557111507 [Eh]
	 SCS Correlation Energy    =      -1.3175310659527697 [Eh]
	 SCS Total Energy          =    -323.2569002551822450 [Eh]
	-----------------------------------------------------------

  Dipole Moment: [D]
     X:    -9.5226      Y:    -2.8251      Z:     0.7305     Total:     9.9597

*** Psi4 exiting successfully. Buy a developer a beer!
