                               Psi4 1.3.2 release

  ==> Input File <==

--------------------------------------------------------------------------
#psi4
#
memory 32 gb

molecule  {
0 1
  O        1.5890300     1.0650170     0.1165590
  O        1.2943400    -1.1672870    -0.2725970
  N       -1.2047650    -1.1860200     0.0435410
  C       -0.5886430     0.1367320     0.4064510
  C       -1.2872470     1.2925570    -0.2818200
  C        0.9190285     0.0086242     0.0264124
  H       -0.6780468     0.2317091     1.4918544
  H       -1.7458480    -1.1434940    -0.8256840
  H       -1.8050530    -1.5837490     0.7705650
  H       -2.3371450     1.3649650     0.0138330
  H       -0.7761520     2.2140110    -0.0029500
  H       -1.2289870     1.1856370    -1.3693840
  H       -0.3506960    -1.7809300    -0.1207870
units angstrom
no_reorient  #important for SAPT in psi4, default
symmetry c1  #important for SAPT in psi4, default
}

set PROPERTIES_ORIGIN ["COM"]
properties('MP2/aug-cc-pvtz', properties = ['dipole'])
--------------------------------------------------------------------------

    Molecular point group: c1
  Charge       = 0
  Multiplicity = 1
  Basis Set: AUG-CC-PVTZ
    Blend: AUG-CC-PVTZ
  Basis Set: (AUG-CC-PVTZ AUX)
    Blend: AUG-CC-PVTZ-JKFIT

    Orbital Energies [Eh]
    ---------------------

    Doubly Occupied:

       1A    -20.490563     2A    -20.472390     3A    -15.709771
       4A    -11.328221     5A    -11.311505     6A    -11.251534
       7A     -1.368052     8A     -1.321356     9A     -1.254605
      10A     -1.060344    11A     -0.909888    12A     -0.807310
      13A     -0.779758    14A     -0.724986    15A     -0.675906
      16A     -0.629275    17A     -0.582598    18A     -0.571523
      19A     -0.561380    20A     -0.553617    21A     -0.512703
      22A     -0.407777    23A     -0.384659    24A     -0.377004

  @DF-RHF Final Energy:  -321.95478383667978

   => Energetics <=

    Nuclear Repulsion Energy =            249.8321646259647082
    One-Electron Energy =                -935.4804436905067178
    Two-Electron Energy =                 363.6934952278622859
    Total Energy =                       -321.9547838366797805
  Basis Set: (AUG-CC-PVTZ AUX)
    Blend: AUG-CC-PVTZ-RI
    Molecular point group: c1

    Geometry (in Angstrom), charge = 0, multiplicity = 1:

       Center              X                  Y                   Z               Mass
    ------------   -----------------  -----------------  -----------------  -----------------
         O            1.490489942674     1.070596016488     0.117866966919    15.994914619570
         O            1.195799942674    -1.161707983512    -0.271289033081    15.994914619570
         N           -1.303305057326    -1.180440983512     0.044848966919    14.003074004430
         C           -0.687183057326     0.142311016488     0.407758966919    12.000000000000
         C           -1.385787057326     1.298136016488    -0.280512033081    12.000000000000
         C            0.820488442674     0.014203216488     0.027720366919    12.000000000000
         H           -0.776586857326     0.237288116488     1.493162366919     1.007825032230
         H           -1.844388057326    -1.137914983512    -0.824376033081     1.007825032230
         H           -1.903593057326    -1.578169983512     0.771872966919     1.007825032230
         H           -2.435685057326     1.370544016488     0.015140966919     1.007825032230
         H           -0.874692057326     2.219590016488    -0.001642033081     1.007825032230
         H           -1.327527057326     1.191216016488    -1.368076033081     1.007825032230
         H           -0.449236057326    -1.775350983512    -0.119479033081     1.007825032230

  Basis Set: AUG-CC-PVTZ
    Blend: AUG-CC-PVTZ
  Basis Set: (AUG-CC-PVTZ AUX)
    Blend: AUG-CC-PVTZ-JKFIT
	 Reference Energy          =    -321.9547838366797805 [Eh]
	 Singles Energy            =      -0.0000000000000000 [Eh]
	 Same-Spin Energy          =      -0.3221595180989746 [Eh]
	 Opposite-Spin Energy      =      -1.0068240560679032 [Eh]
	 Correlation Energy        =      -1.3289835741668776 [Eh]
	 Total Energy              =    -323.2837674108466786 [Eh]

	 ================> DF-SCS-MP2 Energies <==================
	-----------------------------------------------------------
	 SCS Same-Spin Scale       =       0.3333333333333333 [-]
	 SCS Opposite-Spin Scale   =       1.2000000000000000 [-]
	 SCS Same-Spin Energy      =      -0.1073865060329915 [Eh]
	 SCS Opposite-Spin Energy  =      -1.2081888672814838 [Eh]
	 SCS Correlation Energy    =      -1.3155753733144753 [Eh]
	 SCS Total Energy          =    -323.2703592099942398 [Eh]
	-----------------------------------------------------------

  Dipole Moment: [D]
     X:    -9.7174      Y:    -2.8628      Z:     0.7056     Total:    10.1549

*** Psi4 exiting successfully. Buy a developer a beer!
