                               Psi4 1.3.2 release

  ==> Input File <==

--------------------------------------------------------------------------
#psi4
#
memory 32 gb

molecule  {
0 1
  O        1.5890300     1.0650170     0.1165590
  O        1.2943400    -1.1672870    -0.2725970
  N       -1.1994620    -1.1812982     0.0182764
  C       -0.5886430     0.1367320     0.4064510
  C       -1.2872470     1.2925570    -0.2818200
  C        0.9223610     0.0094930     0.0395840
  H       -0.6599688     0.2481725     1.4916274
  H       -1.7458480    -1.1434940    -0.8256840
  H       -1.8050530    -1.5837490     0.7705650
  H       -2.3371450     1.3649650     0.0138330
  H       -0.7761520     2.2140110    -0.0029500
  H       -1.2289870     1.1856370    -1.3693840
  H       -0.3506960    -1.7809300    -0.1207870
units angstrom
no_reorient  #important for SAPT in psi4, default
symmetry c1  #important for SAPT in psi4, default
}

set PROPERTIES_ORIGIN ["COM"]
properties('MP2/aug-cc-pvtz', properties = ['dipole'])
--------------------------------------------------------------------------

    Molecular point group: c1
  Charge       = 0
  Multiplicity = 1
  Basis Set: AUG-CC-PVTZ
    Blend: AUG-CC-PVTZ
  Basis Set: (AUG-CC-PVTZ AUX)
    Blend: AUG-CC-PVTZ-JKFIT

    Orbital Energies [Eh]
    ---------------------

    Doubly Occupied:

       1A    -20.489097     2A    -20.472707     3A    -15.710479
       4A    -11.327524     5A    -11.311215     6A    -11.251317
       7A     -1.367706     8A     -1.321673     9A     -1.254497
      10A     -1.060270    11A     -0.910813    12A     -0.800835
      13A     -0.786118    14A     -0.723072    15A     -0.678880
      16A     -0.627906    17A     -0.583414    18A     -0.571517
      19A     -0.560013    20A     -0.553791    21A     -0.512074
      22A     -0.406924    23A     -0.384354    24A     -0.377048

  @DF-RHF Final Energy:  -321.95406102283994

   => Energetics <=

    Nuclear Repulsion Energy =            249.9301526542934084
    One-Electron Energy =                -935.6819332816081669
    Two-Electron Energy =                 363.7977196044747643
    Total Energy =                       -321.9540610228399373
  Basis Set: (AUG-CC-PVTZ AUX)
    Blend: AUG-CC-PVTZ-RI
    Molecular point group: c1

    Geometry (in Angstrom), charge = 0, multiplicity = 1:

       Center              X                  Y                   Z               Mass
    ------------   -----------------  -----------------  -----------------  -----------------
         O            1.489002337779     1.069550087576     0.120067491887    15.994914619570
         O            1.194312337779    -1.162753912424    -0.269088508113    15.994914619570
         N           -1.299489662221    -1.176765112424     0.021784891887    14.003074004430
         C           -0.688670662221     0.141265087576     0.409959491887    12.000000000000
         C           -1.387274662221     1.297090087576    -0.278311508113    12.000000000000
         C            0.822333337779     0.014026087576     0.043092491887    12.000000000000
         H           -0.759996462221     0.252705587576     1.495135891887     1.007825032230
         H           -1.845875662221    -1.138960912424    -0.822175508113     1.007825032230
         H           -1.905080662221    -1.579215912424     0.774073491887     1.007825032230
         H           -2.437172662221     1.369498087576     0.017341491887     1.007825032230
         H           -0.876179662221     2.218544087576     0.000558491887     1.007825032230
         H           -1.329014662221     1.190170087576    -1.365875508113     1.007825032230
         H           -0.450723662221    -1.776396912424    -0.117278508113     1.007825032230

  Basis Set: AUG-CC-PVTZ
    Blend: AUG-CC-PVTZ
  Basis Set: (AUG-CC-PVTZ AUX)
    Blend: AUG-CC-PVTZ-JKFIT
	 Reference Energy          =    -321.9540610228399373 [Eh]
	 Singles Energy            =      -0.0000000000000000 [Eh]
	 Same-Spin Energy          =      -0.3220983035381475 [Eh]
	 Opposite-Spin Energy      =      -1.0066981894282110 [Eh]
	 Correlation Energy        =      -1.3287964929663585 [Eh]
	 Total Energy              =    -323.2828575158063131 [Eh]

	 ================> DF-SCS-MP2 Energies <==================
	-----------------------------------------------------------
	 SCS Same-Spin Scale       =       0.3333333333333333 [-]
	 SCS Opposite-Spin Scale   =       1.2000000000000000 [-]
	 SCS Same-Spin Energy      =      -0.1073661011793825 [Eh]
	 SCS Opposite-Spin Energy  =      -1.2080378273138532 [Eh]
	 SCS Correlation Energy    =      -1.3154039284932357 [Eh]
	 SCS Total Energy          =    -323.2694649513331910 [Eh]
	-----------------------------------------------------------

  Dipole Moment: [D]
     X:    -9.7251      Y:    -2.8428      Z:     0.7239     Total:    10.1579

*** Psi4 exiting successfully. Buy a developer a beer!
