                               Psi4 1.3.2 release

  ==> Input File <==

--------------------------------------------------------------------------
#psi4
#
memory 32 gb

molecule  {
0 1
  O        1.5890300     1.0650170     0.1165590
  O        1.2943400    -1.1672870    -0.2725970
  N       -1.2047650    -1.1860200     0.0435410
  C       -0.5886430     0.1367320     0.4064510
  C       -1.2872470     1.2925570    -0.2818200
  C        0.9286806     0.0112595     0.0660100
  H       -0.6495538     0.2300523     1.4939690
  H       -1.7458480    -1.1434940    -0.8256840
  H       -1.8050530    -1.5837490     0.7705650
  H       -2.3371450     1.3649650     0.0138330
  H       -0.7761520     2.2140110    -0.0029500
  H       -1.2289870     1.1856370    -1.3693840
  H       -0.3506960    -1.7809300    -0.1207870
units angstrom
no_reorient  #important for SAPT in psi4, default
symmetry c1  #important for SAPT in psi4, default
}

set PROPERTIES_ORIGIN ["COM"]
properties('MP2/aug-cc-pvtz', properties = ['dipole'])
--------------------------------------------------------------------------

    Molecular point group: c1
  Charge       = 0
  Multiplicity = 1
  Basis Set: AUG-CC-PVTZ
    Blend: AUG-CC-PVTZ
  Basis Set: (AUG-CC-PVTZ AUX)
    Blend: AUG-CC-PVTZ-JKFIT

    Orbital Energies [Eh]
    ---------------------

    Doubly Occupied:

       1A    -20.487808     2A    -20.474700     3A    -15.709672
       4A    -11.327937     5A    -11.310966     6A    -11.252007
       7A     -1.366649     8A     -1.322145     9A     -1.254695
      10A     -1.060050    11A     -0.910926    12A     -0.805578
      13A     -0.779183    14A     -0.725204    15A     -0.675137
      16A     -0.628308    17A     -0.584429    18A     -0.571870
      19A     -0.561288    20A     -0.553299    21A     -0.511950
      22A     -0.406261    23A     -0.385320    24A     -0.377917

  @DF-RHF Final Energy:  -321.95497386706609

   => Energetics <=

    Nuclear Repulsion Energy =            249.7691283761211309
    One-Electron Energy =                -935.3616083966412589
    Two-Electron Energy =                 363.6375061534540691
    Total Energy =                       -321.9549738670660872
  Basis Set: (AUG-CC-PVTZ AUX)
    Blend: AUG-CC-PVTZ-RI
    Molecular point group: c1

    Geometry (in Angstrom), charge = 0, multiplicity = 1:

       Center              X                  Y                   Z               Mass
    ------------   -----------------  -----------------  -----------------  -----------------
         O            1.488866754275     1.070259636742     0.112506890665    15.994914619570
         O            1.194176754275    -1.162044363258    -0.276649109335    15.994914619570
         N           -1.304928245725    -1.180777363258     0.039488890665    14.003074004430
         C           -0.688806245725     0.141974636742     0.402398890665    12.000000000000
         C           -1.387410245725     1.297799636742    -0.285872109335    12.000000000000
         C            0.828517354275     0.016502136742     0.061957890665    12.000000000000
         H           -0.749717045725     0.235294936742     1.489916890665     1.007825032230
         H           -1.846011245725    -1.138251363258    -0.829736109335     1.007825032230
         H           -1.905216245725    -1.578506363258     0.766512890665     1.007825032230
         H           -2.437308245725     1.370207636742     0.009780890665     1.007825032230
         H           -0.876315245725     2.219253636742    -0.007002109335     1.007825032230
         H           -1.329150245725     1.190879636742    -1.373436109335     1.007825032230
         H           -0.450859245725    -1.775687363258    -0.124839109335     1.007825032230

  Basis Set: AUG-CC-PVTZ
    Blend: AUG-CC-PVTZ
  Basis Set: (AUG-CC-PVTZ AUX)
    Blend: AUG-CC-PVTZ-JKFIT
	 Reference Energy          =    -321.9549738670660872 [Eh]
	 Singles Energy            =      -0.0000000000000000 [Eh]
	 Same-Spin Energy          =      -0.3221158312568752 [Eh]
	 Opposite-Spin Energy      =      -1.0066581018204228 [Eh]
	 Correlation Energy        =      -1.3287739330772981 [Eh]
	 Total Energy              =    -323.2837478001433738 [Eh]

	 ================> DF-SCS-MP2 Energies <==================
	-----------------------------------------------------------
	 SCS Same-Spin Scale       =       0.3333333333333333 [-]
	 SCS Opposite-Spin Scale   =       1.2000000000000000 [-]
	 SCS Same-Spin Energy      =      -0.1073719437522917 [Eh]
	 SCS Opposite-Spin Energy  =      -1.2079897221845073 [Eh]
	 SCS Correlation Energy    =      -1.3153616659367990 [Eh]
	 SCS Total Energy          =    -323.2703355330028785 [Eh]
	-----------------------------------------------------------

  Dipole Moment: [D]
     X:    -9.6922      Y:    -2.7724      Z:     0.7300     Total:    10.1073

*** Psi4 exiting successfully. Buy a developer a beer!
