                               Psi4 1.3.2 release

  ==> Input File <==

--------------------------------------------------------------------------
#psi4
#
memory 32 gb

molecule  {
0 1
  O        1.5890300     1.0650170     0.1165590
  O        1.2943400    -1.1672870    -0.2725970
  N       -1.2047650    -1.1860200     0.0435410
  C       -0.5886430     0.1367320     0.4064510
  C       -1.2872470     1.2925570    -0.2818200
  C        0.9756604     0.0938808     0.0457381
  H       -0.6685550     0.2311640     1.4926420
  H       -1.7458480    -1.1434940    -0.8256840
  H       -1.8050530    -1.5837490     0.7705650
  H       -2.3371450     1.3649650     0.0138330
  H       -0.7761520     2.2140110    -0.0029500
  H       -1.2289870     1.1856370    -1.3693840
  H       -0.3506960    -1.7809300    -0.1207870
units angstrom
no_reorient  #important for SAPT in psi4, default
symmetry c1  #important for SAPT in psi4, default
}

set PROPERTIES_ORIGIN ["COM"]
properties('MP2/aug-cc-pvtz', properties = ['dipole'])
--------------------------------------------------------------------------

    Molecular point group: c1
  Charge       = 0
  Multiplicity = 1
  Basis Set: AUG-CC-PVTZ
    Blend: AUG-CC-PVTZ
  Basis Set: (AUG-CC-PVTZ AUX)
    Blend: AUG-CC-PVTZ-JKFIT

    Orbital Energies [Eh]
    ---------------------

    Doubly Occupied:

       1A    -20.496956     2A    -20.469892     3A    -15.703208
       4A    -11.325795     5A    -11.303029     6A    -11.248999
       7A     -1.401110     8A     -1.329321     9A     -1.239957
      10A     -1.054714    11A     -0.898348    12A     -0.797050
      13A     -0.771457    14A     -0.722989    15A     -0.670351
      16A     -0.634831    17A     -0.595582    18A     -0.574672
      19A     -0.561861    20A     -0.556250    21A     -0.524782
      22A     -0.402484    23A     -0.383312    24A     -0.377608

  @DF-RHF Final Energy:  -321.94518960493014

   => Energetics <=

    Nuclear Repulsion Energy =            249.7812084054278898
    One-Electron Energy =                -935.3636784178008838
    Two-Electron Energy =                 363.6372804074429155
    Total Energy =                       -321.9451896049301354
  Basis Set: (AUG-CC-PVTZ AUX)
    Blend: AUG-CC-PVTZ-RI
    Molecular point group: c1

    Geometry (in Angstrom), charge = 0, multiplicity = 1:

       Center              X                  Y                   Z               Mass
    ------------   -----------------  -----------------  -----------------  -----------------
         O            1.482750842840     1.059113068789     0.115253735816    15.994914619570
         O            1.188060842840    -1.173190931211    -0.273902264184    15.994914619570
         N           -1.311044157160    -1.191923931211     0.042235735816    14.003074004430
         C           -0.694922157160     0.130828068789     0.405145735816    12.000000000000
         C           -1.393526157160     1.286653068789    -0.283125264184    12.000000000000
         C            0.869381242840     0.087976868789     0.044432835816    12.000000000000
         H           -0.774834157160     0.225260068789     1.491336735816     1.007825032230
         H           -1.852127157160    -1.149397931211    -0.826989264184     1.007825032230
         H           -1.911332157160    -1.589652931211     0.769259735816     1.007825032230
         H           -2.443424157160     1.359061068789     0.012527735816     1.007825032230
         H           -0.882431157160     2.208107068789    -0.004255264184     1.007825032230
         H           -1.335266157160     1.179733068789    -1.370689264184     1.007825032230
         H           -0.456975157160    -1.786833931211    -0.122092264184     1.007825032230

  Basis Set: AUG-CC-PVTZ
    Blend: AUG-CC-PVTZ
  Basis Set: (AUG-CC-PVTZ AUX)
    Blend: AUG-CC-PVTZ-JKFIT
	 Reference Energy          =    -321.9451896049301354 [Eh]
	 Singles Energy            =      -0.0000000000000000 [Eh]
	 Same-Spin Energy          =      -0.3209939189869391 [Eh]
	 Opposite-Spin Energy      =      -1.0045691366315057 [Eh]
	 Correlation Energy        =      -1.3255630556184448 [Eh]
	 Total Energy              =    -323.2707526605485668 [Eh]

	 ================> DF-SCS-MP2 Energies <==================
	-----------------------------------------------------------
	 SCS Same-Spin Scale       =       0.3333333333333333 [-]
	 SCS Opposite-Spin Scale   =       1.2000000000000000 [-]
	 SCS Same-Spin Energy      =      -0.1069979729956464 [Eh]
	 SCS Opposite-Spin Energy  =      -1.2054829639578069 [Eh]
	 SCS Correlation Energy    =      -1.3124809369534531 [Eh]
	 SCS Total Energy          =    -323.2576705418836127 [Eh]
	-----------------------------------------------------------

  Dipole Moment: [D]
     X:    -9.2653      Y:    -2.0246      Z:     0.8099     Total:     9.5184

*** Psi4 exiting successfully. Buy a developer a beer!
