                               Psi4 1.3.2 release

  ==> Input File <==

--------------------------------------------------------------------------
#psi4
#
memory 32 gb

molecule  {
0 1
  O        1.5345385     1.0960238     0.1354653
  O        1.2943400    -1.1672870    -0.2725970
  N       -1.2047650    -1.1860200     0.0435410
  C       -0.5762741     0.2161922     0.4207436
  C       -1.2872470     1.2925570    -0.2818200
  C        0.9223610     0.0094930     0.0395840
  H       -0.6685550     0.2311640     1.4926420
  H       -1.7458480    -1.1434940    -0.8256840
  H       -1.8050530    -1.5837490     0.7705650
  H       -2.3371450     1.3649650     0.0138330
  H       -0.7761520     2.2140110    -0.0029500
  H       -1.2289870     1.1856370    -1.3693840
  H       -0.3506960    -1.7809300    -0.1207870
units angstrom
no_reorient  #important for SAPT in psi4, default
symmetry c1  #important for SAPT in psi4, default
}

set PROPERTIES_ORIGIN ["COM"]
properties('MP2/aug-cc-pvtz', properties = ['dipole'])
--------------------------------------------------------------------------

    Molecular point group: c1
  Charge       = 0
  Multiplicity = 1
  Basis Set: AUG-CC-PVTZ
    Blend: AUG-CC-PVTZ
  Basis Set: (AUG-CC-PVTZ AUX)
    Blend: AUG-CC-PVTZ-JKFIT

    Orbital Energies [Eh]
    ---------------------

    Doubly Occupied:

       1A    -20.494749     2A    -20.475772     3A    -15.696812
       4A    -11.331431     5A    -11.313529     6A    -11.249670
       7A     -1.364016     8A     -1.304687     9A     -1.261442
      10A     -1.070678    11A     -0.905388    12A     -0.793464
      13A     -0.766536    14A     -0.716337    15A     -0.670338
      16A     -0.636747    17A     -0.592443    18A     -0.579782
      19A     -0.558918    20A     -0.550014    21A     -0.519817
      22A     -0.412167    23A     -0.384158    24A     -0.381773

  @DF-RHF Final Energy:  -321.94999427404878

   => Energetics <=

    Nuclear Repulsion Energy =            249.8189914320108755
    One-Electron Energy =                -935.4766338050994818
    Two-Electron Energy =                 363.7076480990398295
    Total Energy =                       -321.9499942740487768
  Basis Set: (AUG-CC-PVTZ AUX)
    Blend: AUG-CC-PVTZ-RI
    Molecular point group: c1

    Geometry (in Angstrom), charge = 0, multiplicity = 1:

       Center              X                  Y                   Z               Mass
    ------------   -----------------  -----------------  -----------------  -----------------
         O            1.443562974708     1.085214407736     0.129667311681    15.994914619570
         O            1.203364474708    -1.178096392264    -0.278394988319    15.994914619570
         N           -1.295740525292    -1.196829392264     0.037743011681    14.003074004430
         C           -0.667249625292     0.205382807736     0.414945611681    12.000000000000
         C           -1.378222525292     1.281747607736    -0.287617988319    12.000000000000
         C            0.831385474708    -0.001316392264     0.033786011681    12.000000000000
         H           -0.759530525292     0.220354607736     1.486844011681     1.007825032230
         H           -1.836823525292    -1.154303392264    -0.831481988319     1.007825032230
         H           -1.896028525292    -1.594558392264     0.764767011681     1.007825032230
         H           -2.428120525292     1.354155607736     0.008035011681     1.007825032230
         H           -0.867127525292     2.203201607736    -0.008747988319     1.007825032230
         H           -1.319962525292     1.174827607736    -1.375181988319     1.007825032230
         H           -0.441671525292    -1.791739392264    -0.126584988319     1.007825032230

  Basis Set: AUG-CC-PVTZ
    Blend: AUG-CC-PVTZ
  Basis Set: (AUG-CC-PVTZ AUX)
    Blend: AUG-CC-PVTZ-JKFIT
	 Reference Energy          =    -321.9499942740487768 [Eh]
	 Singles Energy            =      -0.0000000000000000 [Eh]
	 Same-Spin Energy          =      -0.3222479090468808 [Eh]
	 Opposite-Spin Energy      =      -1.0073345884293115 [Eh]
	 Correlation Energy        =      -1.3295824974761923 [Eh]
	 Total Energy              =    -323.2795767715249440 [Eh]

	 ================> DF-SCS-MP2 Energies <==================
	-----------------------------------------------------------
	 SCS Same-Spin Scale       =       0.3333333333333333 [-]
	 SCS Opposite-Spin Scale   =       1.2000000000000000 [-]
	 SCS Same-Spin Energy      =      -0.1074159696822936 [Eh]
	 SCS Opposite-Spin Energy  =      -1.2088015061151738 [Eh]
	 SCS Correlation Energy    =      -1.3162174757974674 [Eh]
	 SCS Total Energy          =    -323.2662117498462635 [Eh]
	-----------------------------------------------------------

  Dipole Moment: [D]
     X:    -9.4283      Y:    -2.6593      Z:     0.6872     Total:     9.8203

*** Psi4 exiting successfully. Buy a developer a beer!
