                               Psi4 1.3.2 release

  ==> Input File <==

--------------------------------------------------------------------------
#psi4
#
memory 32 gb

molecule  {
0 1
  O        1.5800710     1.0703881     0.1197261
  O        1.2943400    -1.1672870    -0.2725970
  N       -1.2047650    -1.1860200     0.0435410
  C       -0.5868683     0.1500055     0.4089040
  C       -1.2872470     1.2925570    -0.2818200
  C        0.9223610     0.0094930     0.0395840
  H       -0.6685550     0.2311640     1.4926420
  H       -1.7458480    -1.1434940    -0.8256840
  H       -1.8050530    -1.5837490     0.7705650
  H       -2.3371450     1.3649650     0.0138330
  H       -0.7761520     2.2140110    -0.0029500
  H       -1.2289870     1.1856370    -1.3693840
  H       -0.3506960    -1.7809300    -0.1207870
units angstrom
no_reorient  #important for SAPT in psi4, default
symmetry c1  #important for SAPT in psi4, default
}

set PROPERTIES_ORIGIN ["COM"]
properties('MP2/aug-cc-pvtz', properties = ['dipole'])
--------------------------------------------------------------------------

    Molecular point group: c1
  Charge       = 0
  Multiplicity = 1
  Basis Set: AUG-CC-PVTZ
    Blend: AUG-CC-PVTZ
  Basis Set: (AUG-CC-PVTZ AUX)
    Blend: AUG-CC-PVTZ-JKFIT

    Orbital Energies [Eh]
    ---------------------

    Doubly Occupied:

       1A    -20.490467     2A    -20.473490     3A    -15.707855
       4A    -11.328546     5A    -11.311532     6A    -11.251291
       7A     -1.366551     8A     -1.318970     9A     -1.255934
      10A     -1.061935    11A     -0.909320    12A     -0.804535
      13A     -0.777462    14A     -0.722947    15A     -0.675290
      16A     -0.630152    17A     -0.584396    18A     -0.573025
      19A     -0.560881    20A     -0.553511    21A     -0.513875
      22A     -0.408051    23A     -0.384905    24A     -0.378070

  @DF-RHF Final Energy:  -321.95523437243696

   => Energetics <=

    Nuclear Repulsion Energy =            249.8069868087611098
    One-Electron Energy =                -935.4384608029660058
    Two-Electron Energy =                 363.6762396217679907
    Total Energy =                       -321.9552343724369621
  Basis Set: (AUG-CC-PVTZ AUX)
    Blend: AUG-CC-PVTZ-RI
    Molecular point group: c1

    Geometry (in Angstrom), charge = 0, multiplicity = 1:

       Center              X                  Y                   Z               Mass
    ------------   -----------------  -----------------  -----------------  -----------------
         O            1.482344506460     1.073102712555     0.118350712774    15.994914619570
         O            1.196613506460    -1.164572387445    -0.273972387226    15.994914619570
         N           -1.302491493540    -1.183305387445     0.042165612774    14.003074004430
         C           -0.684594793540     0.152720112555     0.407528612774    12.000000000000
         C           -1.384973493540     1.295271612555    -0.283195387226    12.000000000000
         C            0.824634506460     0.012207612555     0.038208612774    12.000000000000
         H           -0.766281493540     0.233878612555     1.491266612774     1.007825032230
         H           -1.843574493540    -1.140779387445    -0.827059387226     1.007825032230
         H           -1.902779493540    -1.581034387445     0.769189612774     1.007825032230
         H           -2.434871493540     1.367679612555     0.012457612774     1.007825032230
         H           -0.873878493540     2.216725612555    -0.004325387226     1.007825032230
         H           -1.326713493540     1.188351612555    -1.370759387226     1.007825032230
         H           -0.448422493540    -1.778215387445    -0.122162387226     1.007825032230

  Basis Set: AUG-CC-PVTZ
    Blend: AUG-CC-PVTZ
  Basis Set: (AUG-CC-PVTZ AUX)
    Blend: AUG-CC-PVTZ-JKFIT
	 Reference Energy          =    -321.9552343724369621 [Eh]
	 Singles Energy            =      -0.0000000000000000 [Eh]
	 Same-Spin Energy          =      -0.3221069633376504 [Eh]
	 Opposite-Spin Energy      =      -1.0067675299607122 [Eh]
	 Correlation Energy        =      -1.3288744932983625 [Eh]
	 Total Energy              =    -323.2841088657353339 [Eh]

	 ================> DF-SCS-MP2 Energies <==================
	-----------------------------------------------------------
	 SCS Same-Spin Scale       =       0.3333333333333333 [-]
	 SCS Opposite-Spin Scale   =       1.2000000000000000 [-]
	 SCS Same-Spin Energy      =      -0.1073689877792168 [Eh]
	 SCS Opposite-Spin Energy  =      -1.2081210359528545 [Eh]
	 SCS Correlation Energy    =      -1.3154900237320712 [Eh]
	 SCS Total Energy          =    -323.2707243961690438 [Eh]
	-----------------------------------------------------------

  Dipole Moment: [D]
     X:    -9.6665      Y:    -2.8100      Z:     0.7091     Total:    10.0915

*** Psi4 exiting successfully. Buy a developer a beer!
