                               Psi4 1.3.2 release

  ==> Input File <==

--------------------------------------------------------------------------
#psi4
#
memory 32 gb

molecule  {
0 1
  O        1.5890300     1.0650170     0.1165590
  O        1.2943400    -1.1672870    -0.2725970
  N       -1.1882995    -1.1706516    -0.0318904
  C       -0.5886430     0.1367320     0.4064510
  C       -1.2872470     1.2925570    -0.2818200
  C        0.9223610     0.0094930     0.0395840
  H       -0.6427338     0.2820826     1.4886070
  H       -1.7458480    -1.1434940    -0.8256840
  H       -1.8050530    -1.5837490     0.7705650
  H       -2.3371450     1.3649650     0.0138330
  H       -0.7761520     2.2140110    -0.0029500
  H       -1.2289870     1.1856370    -1.3693840
  H       -0.3506960    -1.7809300    -0.1207870
units angstrom
no_reorient  #important for SAPT in psi4, default
symmetry c1  #important for SAPT in psi4, default
}

set PROPERTIES_ORIGIN ["COM"]
properties('MP2/aug-cc-pvtz', properties = ['dipole'])
--------------------------------------------------------------------------

    Molecular point group: c1
  Charge       = 0
  Multiplicity = 1
  Basis Set: AUG-CC-PVTZ
    Blend: AUG-CC-PVTZ
  Basis Set: (AUG-CC-PVTZ AUX)
    Blend: AUG-CC-PVTZ-JKFIT

    Orbital Energies [Eh]
    ---------------------

    Doubly Occupied:

       1A    -20.488253     2A    -20.472000     3A    -15.711941
       4A    -11.326579     5A    -11.311321     6A    -11.250609
       7A     -1.368267     8A     -1.322280     9A     -1.253939
      10A     -1.060810    11A     -0.913158    12A     -0.798926
      13A     -0.788523    14A     -0.719892    15A     -0.683811
      16A     -0.625423    17A     -0.583700    18A     -0.571280
      19A     -0.557444    20A     -0.553864    21A     -0.511147
      22A     -0.406313    23A     -0.383326    24A     -0.376509

  @DF-RHF Final Energy:  -321.94577815534001

   => Energetics <=

    Nuclear Repulsion Energy =            250.1698594191934433
    One-Electron Energy =                -936.1526465459727433
    Two-Electron Energy =                 364.0370089714392634
    Total Energy =                       -321.9457781553400082
  Basis Set: (AUG-CC-PVTZ AUX)
    Blend: AUG-CC-PVTZ-RI
    Molecular point group: c1

    Geometry (in Angstrom), charge = 0, multiplicity = 1:

       Center              X                  Y                   Z               Mass
    ------------   -----------------  -----------------  -----------------  -----------------
         O            1.487051931199     1.067492082489     0.127990589488    15.994914619570
         O            1.192361931199    -1.164811917511    -0.261165410512    15.994914619570
         N           -1.290277568801    -1.168176517511    -0.020458810512    14.003074004430
         C           -0.690621068801     0.139207082489     0.417882589488    12.000000000000
         C           -1.389225068801     1.295032082489    -0.270388410512    12.000000000000
         C            0.820382931199     0.011968082489     0.051015589488    12.000000000000
         H           -0.744711868801     0.284557682489     1.500038589488     1.007825032230
         H           -1.847826068801    -1.141018917511    -0.814252410512     1.007825032230
         H           -1.907031068801    -1.581273917511     0.781996589488     1.007825032230
         H           -2.439123068801     1.367440082489     0.025264589488     1.007825032230
         H           -0.878130068801     2.216486082489     0.008481589488     1.007825032230
         H           -1.330965068801     1.188112082489    -1.357952410512     1.007825032230
         H           -0.452674068801    -1.778454917511    -0.109355410512     1.007825032230

  Basis Set: AUG-CC-PVTZ
    Blend: AUG-CC-PVTZ
  Basis Set: (AUG-CC-PVTZ AUX)
    Blend: AUG-CC-PVTZ-JKFIT
	 Reference Energy          =    -321.9457781553400082 [Eh]
	 Singles Energy            =      -0.0000000000000000 [Eh]
	 Same-Spin Energy          =      -0.3221984379520056 [Eh]
	 Opposite-Spin Energy      =      -1.0070025646134593 [Eh]
	 Correlation Energy        =      -1.3292010025654650 [Eh]
	 Total Energy              =    -323.2749791579054772 [Eh]

	 ================> DF-SCS-MP2 Energies <==================
	-----------------------------------------------------------
	 SCS Same-Spin Scale       =       0.3333333333333333 [-]
	 SCS Opposite-Spin Scale   =       1.2000000000000000 [-]
	 SCS Same-Spin Energy      =      -0.1073994793173352 [Eh]
	 SCS Opposite-Spin Energy  =      -1.2084030775361512 [Eh]
	 SCS Correlation Energy    =      -1.3158025568534863 [Eh]
	 SCS Total Energy          =    -323.2615807121935063 [Eh]
	-----------------------------------------------------------

  Dipole Moment: [D]
     X:    -9.7455      Y:    -2.8574      Z:     0.7425     Total:    10.1828

*** Psi4 exiting successfully. Buy a developer a beer!
