                               Psi4 1.4a3.dev225

  ==> Input File <==

--------------------------------------------------------------------------
#psi4
#
memory 32 gb

molecule  {
0 1
  O        1.5890300     1.0650170     0.1165590
  O        1.2943400    -1.1672870    -0.2725970
  N       -1.2047650    -1.1860200     0.0435410
  C       -0.5886430     0.1367320     0.4064510
  C       -1.3102908     1.3306825    -0.3045230
  C        0.9223610     0.0094930     0.0395840
  H       -0.6685550     0.2311640     1.4926420
  H       -1.7458480    -1.1434940    -0.8256840
  H       -1.8050530    -1.5837490     0.7705650
  H       -2.3371450     1.3649650     0.0138330
  H       -0.7761520     2.2140110    -0.0029500
  H       -1.2289870     1.1856370    -1.3693840
  H       -0.3506960    -1.7809300    -0.1207870
units angstrom
no_reorient  #important for SAPT in psi4, default
symmetry c1  #important for SAPT in psi4, default
}

set PROPERTIES_ORIGIN ["COM"]
properties('MP2/aug-cc-pvtz', properties = ['dipole'])
--------------------------------------------------------------------------

    Molecular point group: c1
  Charge       = 0
  Multiplicity = 1
  Basis Set: AUG-CC-PVTZ
    Blend: AUG-CC-PVTZ
  Basis Set: (AUG-CC-PVTZ AUX)
    Blend: AUG-CC-PVTZ-JKFIT

    Orbital Energies [Eh]
    ---------------------

    Doubly Occupied:

       1A    -20.489313     2A    -20.472755     3A    -15.709652
       4A    -11.327749     5A    -11.312478     6A    -11.251061
       7A     -1.366787     8A     -1.320886     9A     -1.254403
      10A     -1.052556    11A     -0.913762    12A     -0.805905
      13A     -0.779133    14A     -0.723548    15A     -0.673642
      16A     -0.629117    17A     -0.580155    18A     -0.576717
      19A     -0.563582    20A     -0.555031    21A     -0.508171
      22A     -0.407284    23A     -0.384609    24A     -0.377142

  @DF-RHF Final Energy:  -321.95340548257792

   => Energetics <=

    Nuclear Repulsion Energy =            249.0417951075002350
    One-Electron Energy =                -933.9195267690296305
    Two-Electron Energy =                 362.9243261789515032
    Total Energy =                       -321.9534054825779208
  Basis Set: (AUG-CC-PVTZ AUX)
    Blend: AUG-CC-PVTZ-RI
    Molecular point group: c1

    Geometry (in Angstrom), charge = 0, multiplicity = 1:

       Center              X                  Y                   Z               Mass
    ------------   -----------------  -----------------  -----------------  -----------------
         O            1.493038796617     1.065347342490     0.119142497499    15.994914619570
         O            1.198348796617    -1.166956657510    -0.270013502501    15.994914619570
         N           -1.300756203383    -1.185689657510     0.046124497499    14.003074004430
         C           -0.684634203383     0.137062342490     0.409034497499    12.000000000000
         C           -1.406282003383     1.331012842490    -0.301939502501    12.000000000000
         C            0.826369796617     0.009823342490     0.042167497499    12.000000000000
         H           -0.764546203383     0.231494342490     1.495225497499     1.007825032230
         H           -1.841839203383    -1.143163657510    -0.823100502501     1.007825032230
         H           -1.901044203383    -1.583418657510     0.773148497499     1.007825032230
         H           -2.433136203383     1.365295342490     0.016416497499     1.007825032230
         H           -0.872143203383     2.214341342490    -0.000366502501     1.007825032230
         H           -1.324978203383     1.185967342490    -1.366800502501     1.007825032230
         H           -0.446687203383    -1.780599657510    -0.118203502501     1.007825032230

  Basis Set: AUG-CC-PVTZ
    Blend: AUG-CC-PVTZ
  Basis Set: (AUG-CC-PVTZ AUX)
    Blend: AUG-CC-PVTZ-JKFIT
	 Reference Energy          =    -321.9534054825779208 [Eh]
	 Singles Energy            =      -0.0000000000000000 [Eh]
	 Same-Spin Energy          =      -0.3218265348703132 [Eh]
	 Opposite-Spin Energy      =      -1.0065230859873988 [Eh]
	 Correlation Energy        =      -1.3283496208577121 [Eh]
	 Total Energy              =    -323.2817551034356143 [Eh]

	 ================> DF-SCS-MP2 Energies <==================
	-----------------------------------------------------------
	 SCS Same-Spin Scale       =       0.3333333333333333 [-]
	 SCS Opposite-Spin Scale   =       1.2000000000000000 [-]
	 SCS Same-Spin Energy      =      -0.1072755116234377 [Eh]
	 SCS Opposite-Spin Energy  =      -1.2078277031848785 [Eh]
	 SCS Correlation Energy    =      -1.3151032148083162 [Eh]
	 SCS Total Energy          =    -323.2685086973862099 [Eh]
	-----------------------------------------------------------

  Dipole Moment: [D]
     X:    -9.7264      Y:    -2.8483      Z:     0.7091     Total:    10.1596

*** Psi4 exiting successfully. Buy a developer a beer!
