                               Psi4 1.3.2 release

  ==> Input File <==

--------------------------------------------------------------------------
#psi4
#
memory 32 gb

molecule  {
0 1
  O        1.5890300     1.0650170     0.1165590
  O        1.2943400    -1.1672870    -0.2725970
  N       -1.2021369    -1.1837094     0.0308944
  C       -0.5886430     0.1367320     0.4064510
  C       -1.2872470     1.2925570    -0.2818200
  C        0.9223610     0.0094930     0.0395840
  H       -0.6642648     0.2396722     1.4921760
  H       -1.7458480    -1.1434940    -0.8256840
  H       -1.8050530    -1.5837490     0.7705650
  H       -2.3371450     1.3649650     0.0138330
  H       -0.7761520     2.2140110    -0.0029500
  H       -1.2289870     1.1856370    -1.3693840
  H       -0.3506960    -1.7809300    -0.1207870
units angstrom
no_reorient  #important for SAPT in psi4, default
symmetry c1  #important for SAPT in psi4, default
}

set PROPERTIES_ORIGIN ["COM"]
properties('MP2/aug-cc-pvtz', properties = ['dipole'])
--------------------------------------------------------------------------

    Molecular point group: c1
  Charge       = 0
  Multiplicity = 1
  Basis Set: AUG-CC-PVTZ
    Blend: AUG-CC-PVTZ
  Basis Set: (AUG-CC-PVTZ AUX)
    Blend: AUG-CC-PVTZ-JKFIT

    Orbital Energies [Eh]
    ---------------------

    Doubly Occupied:

       1A    -20.489354     2A    -20.472912     3A    -15.710109
       4A    -11.327791     5A    -11.311244     6A    -11.251500
       7A     -1.367621     8A     -1.321608     9A     -1.254676
      10A     -1.060232    11A     -0.910463    12A     -0.803799
      13A     -0.782857    14A     -0.724033    15A     -0.677319
      16A     -0.628442    17A     -0.583324    18A     -0.571587
      19A     -0.560687    20A     -0.553677    21A     -0.512285
      22A     -0.407106    23A     -0.384632    24A     -0.377211

  @DF-RHF Final Energy:  -321.95486971446354

   => Energetics <=

    Nuclear Repulsion Energy =            249.8725585107831080
    One-Electron Energy =                -935.5659200745079715
    Two-Electron Energy =                 363.7384918492613792
    Total Energy =                       -321.9548697144635412
  Basis Set: (AUG-CC-PVTZ AUX)
    Blend: AUG-CC-PVTZ-RI
    Molecular point group: c1

    Geometry (in Angstrom), charge = 0, multiplicity = 1:

       Center              X                  Y                   Z               Mass
    ------------   -----------------  -----------------  -----------------  -----------------
         O            1.489471596941     1.070025462430     0.118077056160    15.994914619570
         O            1.194781596941    -1.162278537570    -0.271078943840    15.994914619570
         N           -1.301695303059    -1.178700937570     0.032412456160    14.003074004430
         C           -0.688201403059     0.141740462430     0.407969056160    12.000000000000
         C           -1.386805403059     1.297565462430    -0.280301943840    12.000000000000
         C            0.822802596941     0.014501462430     0.041102056160    12.000000000000
         H           -0.763823203059     0.244680662430     1.493694056160     1.007825032230
         H           -1.845406403059    -1.138485537570    -0.824165943840     1.007825032230
         H           -1.904611403059    -1.578740537570     0.772083056160     1.007825032230
         H           -2.436703403059     1.369973462430     0.015351056160     1.007825032230
         H           -0.875710403059     2.219019462430    -0.001431943840     1.007825032230
         H           -1.328545403059     1.190645462430    -1.367865943840     1.007825032230
         H           -0.450254403059    -1.775921537570    -0.119268943840     1.007825032230

  Basis Set: AUG-CC-PVTZ
    Blend: AUG-CC-PVTZ
  Basis Set: (AUG-CC-PVTZ AUX)
    Blend: AUG-CC-PVTZ-JKFIT
	 Reference Energy          =    -321.9548697144635412 [Eh]
	 Singles Energy            =      -0.0000000000000000 [Eh]
	 Same-Spin Energy          =      -0.3221055853086586 [Eh]
	 Opposite-Spin Energy      =      -1.0066961673564117 [Eh]
	 Correlation Energy        =      -1.3288017526650702 [Eh]
	 Total Energy              =    -323.2836714671286131 [Eh]

	 ================> DF-SCS-MP2 Energies <==================
	-----------------------------------------------------------
	 SCS Same-Spin Scale       =       0.3333333333333333 [-]
	 SCS Opposite-Spin Scale   =       1.2000000000000000 [-]
	 SCS Same-Spin Energy      =      -0.1073685284362195 [Eh]
	 SCS Opposite-Spin Energy  =      -1.2080354008276939 [Eh]
	 SCS Correlation Energy    =      -1.3154039292639135 [Eh]
	 SCS Total Energy          =    -323.2702736437274780 [Eh]
	-----------------------------------------------------------

  Dipole Moment: [D]
     X:    -9.7176      Y:    -2.8382      Z:     0.7188     Total:    10.1491

*** Psi4 exiting successfully. Buy a developer a beer!
