                               Psi4 1.3.2 release

  ==> Input File <==

--------------------------------------------------------------------------
#psi4
#
memory 32 gb

molecule  {
0 1
  O        1.5890300     1.0650170     0.1165590
  O        1.2943400    -1.1672870    -0.2725970
  N       -1.2047650    -1.1860200     0.0435410
  C       -0.6705928    -0.0392061     0.3581807
  C       -1.2872470     1.2925570    -0.2818200
  C        0.9223610     0.0094930     0.0395840
  H       -0.6685550     0.2311640     1.4926420
  H       -1.7458480    -1.1434940    -0.8256840
  H       -1.8050530    -1.5837490     0.7705650
  H       -2.3371450     1.3649650     0.0138330
  H       -0.7761520     2.2140110    -0.0029500
  H       -1.2289870     1.1856370    -1.3693840
  H       -0.3506960    -1.7809300    -0.1207870
units angstrom
no_reorient  #important for SAPT in psi4, default
symmetry c1  #important for SAPT in psi4, default
}

set PROPERTIES_ORIGIN ["COM"]
properties('MP2/aug-cc-pvtz', properties = ['dipole'])
--------------------------------------------------------------------------

    Molecular point group: c1
  Charge       = 0
  Multiplicity = 1
  Basis Set: AUG-CC-PVTZ
    Blend: AUG-CC-PVTZ
  Basis Set: (AUG-CC-PVTZ AUX)
    Blend: AUG-CC-PVTZ-JKFIT

    Orbital Energies [Eh]
    ---------------------

    Doubly Occupied:

       1A    -20.489159     2A    -20.476426     3A    -15.724685
       4A    -11.330938     5A    -11.301389     6A    -11.251873
       7A     -1.409435     8A     -1.343649     9A     -1.255101
      10A     -1.035583    11A     -0.920848    12A     -0.837249
      13A     -0.813279    14A     -0.753216    15A     -0.668053
      16A     -0.611978    17A     -0.578799    18A     -0.573188
      19A     -0.546363    20A     -0.541632    21A     -0.487294
      22A     -0.403549    23A     -0.379073    24A     -0.377331

  @DF-RHF Final Energy:  -321.90754614610773

   => Energetics <=

    Nuclear Repulsion Energy =            250.5838217336876710
    One-Electron Energy =                -936.7625543189818700
    Two-Electron Energy =                 364.2711864391865220
    Total Energy =                       -321.9075461461077339
  Basis Set: (AUG-CC-PVTZ AUX)
    Blend: AUG-CC-PVTZ-RI
    Molecular point group: c1

    Geometry (in Angstrom), charge = 0, multiplicity = 1:

       Center              X                  Y                   Z               Mass
    ------------   -----------------  -----------------  -----------------  -----------------
         O            1.500976926079     1.094194396610     0.122587928141    15.994914619570
         O            1.206286926079    -1.138109603390    -0.266568071859    15.994914619570
         N           -1.292818073921    -1.156842603390     0.049569928141    14.003074004430
         C           -0.758645873921    -0.010028703390     0.364209628141    12.000000000000
         C           -1.375300073921     1.321734396610    -0.275791071859    12.000000000000
         C            0.834307926079     0.038670396610     0.045612928141    12.000000000000
         H           -0.756608073921     0.260341396610     1.498670928141     1.007825032230
         H           -1.833901073921    -1.114316603390    -0.819655071859     1.007825032230
         H           -1.893106073921    -1.554571603390     0.776593928141     1.007825032230
         H           -2.425198073921     1.394142396610     0.019861928141     1.007825032230
         H           -0.864205073921     2.243188396610     0.003078928141     1.007825032230
         H           -1.317040073921     1.214814396610    -1.363355071859     1.007825032230
         H           -0.438749073921    -1.751752603390    -0.114758071859     1.007825032230

  Basis Set: AUG-CC-PVTZ
    Blend: AUG-CC-PVTZ
  Basis Set: (AUG-CC-PVTZ AUX)
    Blend: AUG-CC-PVTZ-JKFIT
	 Reference Energy          =    -321.9075461461077339 [Eh]
	 Singles Energy            =      -0.0000000000000000 [Eh]
	 Same-Spin Energy          =      -0.3247048821059432 [Eh]
	 Opposite-Spin Energy      =      -1.0093053454573142 [Eh]
	 Correlation Energy        =      -1.3340102275632575 [Eh]
	 Total Energy              =    -323.2415563736710169 [Eh]

	 ================> DF-SCS-MP2 Energies <==================
	-----------------------------------------------------------
	 SCS Same-Spin Scale       =       0.3333333333333333 [-]
	 SCS Opposite-Spin Scale   =       1.2000000000000000 [-]
	 SCS Same-Spin Energy      =      -0.1082349607019811 [Eh]
	 SCS Opposite-Spin Energy  =      -1.2111664145487770 [Eh]
	 SCS Correlation Energy    =      -1.3194013752507581 [Eh]
	 SCS Total Energy          =    -323.2269475213585110 [Eh]
	-----------------------------------------------------------

  Dipole Moment: [D]
     X:    -9.6745      Y:    -3.1820      Z:     0.6217     Total:    10.2033

*** Psi4 exiting successfully. Buy a developer a beer!
