                               Psi4 1.3.2 release

  ==> Input File <==

--------------------------------------------------------------------------
#psi4
#
memory 32 gb

molecule  {
0 1
  O        1.5890300     1.0650170     0.1165590
  O        1.2943400    -1.1672870    -0.2725970
  N       -1.2047650    -1.1860200     0.0435410
  C       -0.6210674     0.1672975     0.3415541
  C       -1.2872470     1.2925570    -0.2818200
  C        0.9223610     0.0094930     0.0395840
  H       -0.6685550     0.2311640     1.4926420
  H       -1.7330976    -1.0915153    -0.8294223
  H       -1.8050530    -1.5837490     0.7705650
  H       -2.3371450     1.3649650     0.0138330
  H       -0.7761520     2.2140110    -0.0029500
  H       -1.2289870     1.1856370    -1.3693840
  H       -0.3506960    -1.7809300    -0.1207870
units angstrom
no_reorient  #important for SAPT in psi4, default
symmetry c1  #important for SAPT in psi4, default
}

set PROPERTIES_ORIGIN ["COM"]
properties('MP2/aug-cc-pvtz', properties = ['dipole'])
--------------------------------------------------------------------------

    Molecular point group: c1
  Charge       = 0
  Multiplicity = 1
  Basis Set: AUG-CC-PVTZ
    Blend: AUG-CC-PVTZ
  Basis Set: (AUG-CC-PVTZ AUX)
    Blend: AUG-CC-PVTZ-JKFIT

    Orbital Energies [Eh]
    ---------------------

    Doubly Occupied:

       1A    -20.490728     2A    -20.473304     3A    -15.709957
       4A    -11.329821     5A    -11.313123     6A    -11.249758
       7A     -1.367439     8A     -1.322310     9A     -1.255304
      10A     -1.073672    11A     -0.903276    12A     -0.805981
      13A     -0.785668    14A     -0.721511    15A     -0.668893
      16A     -0.633333    17A     -0.593109    18A     -0.573197
      19A     -0.565794    20A     -0.547646    21A     -0.508174
      22A     -0.406916    23A     -0.383086    24A     -0.377895

  @DF-RHF Final Energy:  -321.94672414719992

   => Energetics <=

    Nuclear Repulsion Energy =            250.1360923358225250
    One-Electron Energy =                -936.0458434426356007
    Two-Electron Energy =                 363.9630269596131029
    Total Energy =                       -321.9467241471999159
  Basis Set: (AUG-CC-PVTZ AUX)
    Blend: AUG-CC-PVTZ-RI
    Molecular point group: c1

    Geometry (in Angstrom), charge = 0, multiplicity = 1:

       Center              X                  Y                   Z               Mass
    ------------   -----------------  -----------------  -----------------  -----------------
         O            1.494158612758     1.065777837318     0.124870825976    15.994914619570
         O            1.199468612758    -1.166526162682    -0.264285174024    15.994914619570
         N           -1.299636387242    -1.185259162682     0.051852825976    14.003074004430
         C           -0.715938787242     0.168058337318     0.349865925976    12.000000000000
         C           -1.382118387242     1.293317837318    -0.273508174024    12.000000000000
         C            0.827489612758     0.010253837318     0.047895825976    12.000000000000
         H           -0.763426387242     0.231924837318     1.500953825976     1.007825032230
         H           -1.827968987242    -1.090754462682    -0.821110474024     1.007825032230
         H           -1.899924387242    -1.582988162682     0.778876825976     1.007825032230
         H           -2.432016387242     1.365725837318     0.022144825976     1.007825032230
         H           -0.871023387242     2.214771837318     0.005361825976     1.007825032230
         H           -1.323858387242     1.186397837318    -1.361072174024     1.007825032230
         H           -0.445567387242    -1.780169162682    -0.112475174024     1.007825032230

  Basis Set: AUG-CC-PVTZ
    Blend: AUG-CC-PVTZ
  Basis Set: (AUG-CC-PVTZ AUX)
    Blend: AUG-CC-PVTZ-JKFIT
	 Reference Energy          =    -321.9467241471999159 [Eh]
	 Singles Energy            =      -0.0000000000000000 [Eh]
	 Same-Spin Energy          =      -0.3229717429581896 [Eh]
	 Opposite-Spin Energy      =      -1.0077627355989272 [Eh]
	 Correlation Energy        =      -1.3307344785571167 [Eh]
	 Total Energy              =    -323.2774586257570490 [Eh]

	 ================> DF-SCS-MP2 Energies <==================
	-----------------------------------------------------------
	 SCS Same-Spin Scale       =       0.3333333333333333 [-]
	 SCS Opposite-Spin Scale   =       1.2000000000000000 [-]
	 SCS Same-Spin Energy      =      -0.1076572476527299 [Eh]
	 SCS Opposite-Spin Energy  =      -1.2093152827187126 [Eh]
	 SCS Correlation Energy    =      -1.3169725303714426 [Eh]
	 SCS Total Energy          =    -323.2636966775713745 [Eh]
	-----------------------------------------------------------

  Dipole Moment: [D]
     X:    -9.6936      Y:    -2.7321      Z:     0.6272     Total:    10.0908

*** Psi4 exiting successfully. Buy a developer a beer!
