                               Psi4 1.4a3.dev225

  ==> Input File <==

--------------------------------------------------------------------------
#psi4
#
memory 32 gb

molecule  {
0 1
  O        1.5890300     1.0650170     0.1165590
  O        1.2943400    -1.1672870    -0.2725970
  N       -1.2047650    -1.1860200     0.0435410
  C       -0.5886430     0.1367320     0.4064510
  C       -1.2872470     1.2925570    -0.2818200
  C        0.9223610     0.0094930     0.0395840
  H       -0.6700170     0.2328916     1.5125135
  H       -1.7458480    -1.1434940    -0.8256840
  H       -1.8050530    -1.5837490     0.7705650
  H       -2.3371450     1.3649650     0.0138330
  H       -0.7761520     2.2140110    -0.0029500
  H       -1.2289870     1.1856370    -1.3693840
  H       -0.3506960    -1.7809300    -0.1207870
units angstrom
no_reorient  #important for SAPT in psi4, default
symmetry c1  #important for SAPT in psi4, default
}

set PROPERTIES_ORIGIN ["COM"]
properties('MP2/aug-cc-pvtz', properties = ['dipole'])
--------------------------------------------------------------------------

    Molecular point group: c1
  Charge       = 0
  Multiplicity = 1
  Basis Set: AUG-CC-PVTZ
    Blend: AUG-CC-PVTZ
  Basis Set: (AUG-CC-PVTZ AUX)
    Blend: AUG-CC-PVTZ-JKFIT

    Orbital Energies [Eh]
    ---------------------

    Doubly Occupied:

       1A    -20.489691     2A    -20.473136     3A    -15.709870
       4A    -11.328186     5A    -11.313564     6A    -11.251836
       7A     -1.367550     8A     -1.321604     9A     -1.254894
      10A     -1.059467    11A     -0.909171    12A     -0.806009
      13A     -0.779624    14A     -0.725088    15A     -0.673715
      16A     -0.628456    17A     -0.583260    18A     -0.571657
      19A     -0.561366    20A     -0.552712    21A     -0.511665
      22A     -0.407347    23A     -0.384978    24A     -0.377403

  @DF-RHF Final Energy:  -321.95457468300214

   => Energetics <=

    Nuclear Repulsion Energy =            249.7137845761494930
    One-Electron Energy =                -935.2522204438214430
    Two-Electron Energy =                 363.5838611846698427
    Total Energy =                       -321.9545746830021358
  Basis Set: (AUG-CC-PVTZ AUX)
    Blend: AUG-CC-PVTZ-RI
    Molecular point group: c1

    Geometry (in Angstrom), charge = 0, multiplicity = 1:

       Center              X                  Y                   Z               Mass
    ------------   -----------------  -----------------  -----------------  -----------------
         O            1.489949977632     1.070465554321     0.115858155895    15.994914619570
         O            1.195259977632    -1.161838445679    -0.273297844105    15.994914619570
         N           -1.303845022368    -1.180571445679     0.042840155895    14.003074004430
         C           -0.687723022368     0.142180554321     0.405750155895    12.000000000000
         C           -1.386327022368     1.298005554321    -0.282520844105    12.000000000000
         C            0.823280977632     0.014941554321     0.038883155895    12.000000000000
         H           -0.769097022368     0.238340154321     1.511812655895     1.007825032230
         H           -1.844928022368    -1.138045445679    -0.826384844105     1.007825032230
         H           -1.904133022368    -1.578300445679     0.769864155895     1.007825032230
         H           -2.436225022368     1.370413554321     0.013132155895     1.007825032230
         H           -0.875232022368     2.219459554321    -0.003650844105     1.007825032230
         H           -1.328067022368     1.191085554321    -1.370084844105     1.007825032230
         H           -0.449776022368    -1.775481445679    -0.121487844105     1.007825032230

  Basis Set: AUG-CC-PVTZ
    Blend: AUG-CC-PVTZ
  Basis Set: (AUG-CC-PVTZ AUX)
    Blend: AUG-CC-PVTZ-JKFIT
	 Reference Energy          =    -321.9545746830021358 [Eh]
	 Singles Energy            =      -0.0000000000000000 [Eh]
	 Same-Spin Energy          =      -0.3221531017933417 [Eh]
	 Opposite-Spin Energy      =      -1.0068743967023586 [Eh]
	 Correlation Energy        =      -1.3290274984957002 [Eh]
	 Total Energy              =    -323.2836021814978267 [Eh]

	 ================> DF-SCS-MP2 Energies <==================
	-----------------------------------------------------------
	 SCS Same-Spin Scale       =       0.3333333333333333 [-]
	 SCS Opposite-Spin Scale   =       1.2000000000000000 [-]
	 SCS Same-Spin Energy      =      -0.1073843672644472 [Eh]
	 SCS Opposite-Spin Energy  =      -1.2082492760428303 [Eh]
	 SCS Correlation Energy    =      -1.3156336433072775 [Eh]
	 SCS Total Energy          =    -323.2702083263093868 [Eh]
	-----------------------------------------------------------

  Dipole Moment: [D]
     X:    -9.7076      Y:    -2.8315      Z:     0.7085     Total:    10.1369

*** Psi4 exiting successfully. Buy a developer a beer!
