                               Psi4 1.3.2 release

  ==> Input File <==

--------------------------------------------------------------------------
#psi4
#
memory 32 gb

molecule  {
0 1
  O        1.5890300     1.0650170     0.1165590
  O        1.3149769    -1.1597037    -0.2758021
  N       -1.2047650    -1.1860200     0.0435410
  C       -0.5850962     0.1633746     0.4108082
  C       -1.2872470     1.2925570    -0.2818200
  C        0.9223610     0.0094930     0.0395840
  H       -0.6685550     0.2311640     1.4926420
  H       -1.7458480    -1.1434940    -0.8256840
  H       -1.8050530    -1.5837490     0.7705650
  H       -2.3371450     1.3649650     0.0138330
  H       -0.7761520     2.2140110    -0.0029500
  H       -1.2289870     1.1856370    -1.3693840
  H       -0.3506960    -1.7809300    -0.1207870
units angstrom
no_reorient  #important for SAPT in psi4, default
symmetry c1  #important for SAPT in psi4, default
}

set PROPERTIES_ORIGIN ["COM"]
properties('MP2/aug-cc-pvtz', properties = ['dipole'])
--------------------------------------------------------------------------

    Molecular point group: c1
  Charge       = 0
  Multiplicity = 1
  Basis Set: AUG-CC-PVTZ
    Blend: AUG-CC-PVTZ
  Basis Set: (AUG-CC-PVTZ AUX)
    Blend: AUG-CC-PVTZ-JKFIT

    Orbital Energies [Eh]
    ---------------------

    Doubly Occupied:

       1A    -20.488975     2A    -20.471548     3A    -15.708315
       4A    -11.327483     5A    -11.314400     6A    -11.252278
       7A     -1.364839     8A     -1.317849     9A     -1.252901
      10A     -1.065503    11A     -0.910109    12A     -0.804151
      13A     -0.776791    14A     -0.721422    15A     -0.675349
      16A     -0.631652    17A     -0.585733    18A     -0.573376
      19A     -0.561004    20A     -0.554014    21A     -0.514424
      22A     -0.406354    23A     -0.384384    24A     -0.375670

  @DF-RHF Final Energy:  -321.95406073077248

   => Energetics <=

    Nuclear Repulsion Energy =            249.5296858997755578
    One-Electron Energy =                -934.8904438816366564
    Two-Electron Energy =                 363.4066972510885876
    Total Energy =                       -321.9540607307724827
  Basis Set: (AUG-CC-PVTZ AUX)
    Blend: AUG-CC-PVTZ-RI
    Molecular point group: c1

    Geometry (in Angstrom), charge = 0, multiplicity = 1:

       Center              X                  Y                   Z               Mass
    ------------   -----------------  -----------------  -----------------  -----------------
         O            1.485748627298     1.065532642818     0.116071590949    15.994914619570
         O            1.211695527298    -1.159188057182    -0.276289509051    15.994914619570
         N           -1.308046372702    -1.185504357182     0.043053590949    14.003074004430
         C           -0.688377572702     0.163890242818     0.410320790949    12.000000000000
         C           -1.390528372702     1.293072642818    -0.282307409051    12.000000000000
         C            0.819079627298     0.010008642818     0.039096590949    12.000000000000
         H           -0.771836372702     0.231679642818     1.492154590949     1.007825032230
         H           -1.849129372702    -1.142978357182    -0.826171409051     1.007825032230
         H           -1.908334372702    -1.583233357182     0.770077590949     1.007825032230
         H           -2.440426372702     1.365480642818     0.013345590949     1.007825032230
         H           -0.879433372702     2.214526642818    -0.003437409051     1.007825032230
         H           -1.332268372702     1.186152642818    -1.369871409051     1.007825032230
         H           -0.453977372702    -1.780414357182    -0.121274409051     1.007825032230

  Basis Set: AUG-CC-PVTZ
    Blend: AUG-CC-PVTZ
  Basis Set: (AUG-CC-PVTZ AUX)
    Blend: AUG-CC-PVTZ-JKFIT
	 Reference Energy          =    -321.9540607307724827 [Eh]
	 Singles Energy            =      -0.0000000000000000 [Eh]
	 Same-Spin Energy          =      -0.3220201432468784 [Eh]
	 Opposite-Spin Energy      =      -1.0068111753438997 [Eh]
	 Correlation Energy        =      -1.3288313185907783 [Eh]
	 Total Energy              =    -323.2828920493632836 [Eh]

	 ================> DF-SCS-MP2 Energies <==================
	-----------------------------------------------------------
	 SCS Same-Spin Scale       =       0.3333333333333333 [-]
	 SCS Opposite-Spin Scale   =       1.2000000000000000 [-]
	 SCS Same-Spin Energy      =      -0.1073400477489595 [Eh]
	 SCS Opposite-Spin Energy  =      -1.2081734104126796 [Eh]
	 SCS Correlation Energy    =      -1.3155134581616390 [Eh]
	 SCS Total Energy          =    -323.2695741889341434 [Eh]
	-----------------------------------------------------------

  Dipole Moment: [D]
     X:    -9.7765      Y:    -2.7800      Z:     0.7294     Total:    10.1902

*** Psi4 exiting successfully. Buy a developer a beer!
