                               Psi4 1.4a3.dev225

  ==> Input File <==

--------------------------------------------------------------------------
#psi4
#
memory 32 gb

molecule  {
0 1
  O        1.5890300     1.0650170     0.1165590
  O        1.2943400    -1.1672870    -0.2725970
  N       -1.2047650    -1.1860200     0.0435410
  C       -0.5886430     0.1367320     0.4064510
  C       -1.2872470     1.2925570    -0.2818200
  C        0.9282049    -0.0089947     0.0346795
  H       -0.6685550     0.2311640     1.4926420
  H       -1.7458480    -1.1434940    -0.8256840
  H       -1.8050530    -1.5837490     0.7705650
  H       -2.3371450     1.3649650     0.0138330
  H       -0.7761520     2.2140110    -0.0029500
  H       -1.2289870     1.1856370    -1.3693840
  H       -0.3506960    -1.7809300    -0.1207870
units angstrom
no_reorient  #important for SAPT in psi4, default
symmetry c1  #important for SAPT in psi4, default
}

set PROPERTIES_ORIGIN ["COM"]
properties('MP2/aug-cc-pvtz', properties = ['dipole'])
--------------------------------------------------------------------------

    Molecular point group: c1
  Charge       = 0
  Multiplicity = 1
  Basis Set: AUG-CC-PVTZ
    Blend: AUG-CC-PVTZ
  Basis Set: (AUG-CC-PVTZ AUX)
    Blend: AUG-CC-PVTZ-JKFIT

    Orbital Energies [Eh]
    ---------------------

    Doubly Occupied:

       1A    -20.494313     2A    -20.469032     3A    -15.709938
       4A    -11.328093     5A    -11.310383     6A    -11.250870
       7A     -1.371969     8A     -1.321578     9A     -1.255238
      10A     -1.058503    11A     -0.909074    12A     -0.807129
      13A     -0.780216    14A     -0.723005    15A     -0.676124
      16A     -0.629494    17A     -0.581956    18A     -0.572705
      19A     -0.561151    20A     -0.553516    21A     -0.515205
      22A     -0.409231    23A     -0.382068    24A     -0.376675

  @DF-RHF Final Energy:  -321.95485804692390

   => Energetics <=

    Nuclear Repulsion Energy =            249.8263514319096714
    One-Electron Energy =                -935.4674872982066063
    Two-Electron Energy =                 363.6862778193730605
    Total Energy =                       -321.9548580469239027
  Basis Set: (AUG-CC-PVTZ AUX)
    Blend: AUG-CC-PVTZ-RI
    Molecular point group: c1

    Geometry (in Angstrom), charge = 0, multiplicity = 1:

       Center              X                  Y                   Z               Mass
    ------------   -----------------  -----------------  -----------------  -----------------
         O            1.489145911300     1.072976495902     0.116743984661    15.994914619570
         O            1.194455911300    -1.159327504098    -0.272412015339    15.994914619570
         N           -1.304649088700    -1.178060504098     0.043725984661    14.003074004430
         C           -0.688527088700     0.144691495902     0.406635984661    12.000000000000
         C           -1.387131088700     1.300516495902    -0.281635015339    12.000000000000
         C            0.828320811300    -0.001035204098     0.034864484661    12.000000000000
         H           -0.768439088700     0.239123495902     1.492826984661     1.007825032230
         H           -1.845732088700    -1.135534504098    -0.825499015339     1.007825032230
         H           -1.904937088700    -1.575789504098     0.770749984661     1.007825032230
         H           -2.437029088700     1.372924495902     0.014017984661     1.007825032230
         H           -0.876036088700     2.221970495902    -0.002765015339     1.007825032230
         H           -1.328871088700     1.193596495902    -1.369199015339     1.007825032230
         H           -0.450580088700    -1.772970504098    -0.120602015339     1.007825032230

  Basis Set: AUG-CC-PVTZ
    Blend: AUG-CC-PVTZ
  Basis Set: (AUG-CC-PVTZ AUX)
    Blend: AUG-CC-PVTZ-JKFIT
	 Reference Energy          =    -321.9548580469239027 [Eh]
	 Singles Energy            =      -0.0000000000000000 [Eh]
	 Same-Spin Energy          =      -0.3220237571358331 [Eh]
	 Opposite-Spin Energy      =      -1.0064310859860730 [Eh]
	 Correlation Energy        =      -1.3284548431219061 [Eh]
	 Total Energy              =    -323.2833128900458064 [Eh]

	 ================> DF-SCS-MP2 Energies <==================
	-----------------------------------------------------------
	 SCS Same-Spin Scale       =       0.3333333333333333 [-]
	 SCS Opposite-Spin Scale   =       1.2000000000000000 [-]
	 SCS Same-Spin Energy      =      -0.1073412523786110 [Eh]
	 SCS Opposite-Spin Energy  =      -1.2077173031832875 [Eh]
	 SCS Correlation Energy    =      -1.3150585555618985 [Eh]
	 SCS Total Energy          =    -323.2699166024858073 [Eh]
	-----------------------------------------------------------

  Dipole Moment: [D]
     X:    -9.6939      Y:    -3.0051      Z:     0.6771     Total:    10.1716

*** Psi4 exiting successfully. Buy a developer a beer!
