                               Psi4 1.4a3.dev225

  ==> Input File <==

--------------------------------------------------------------------------
#psi4
#
memory 32 gb

molecule  {
0 1
  O        1.5890300     1.0650170     0.1165590
  O        1.2943400    -1.1672870    -0.2725970
  N       -1.2047650    -1.1860200     0.0435410
  C       -0.5886430     0.1367320     0.4064510
  C       -1.2872470     1.2925570    -0.2818200
  C        0.9117011    -0.0073846     0.0383532
  H       -0.6685550     0.2311640     1.4926420
  H       -1.7458480    -1.1434940    -0.8256840
  H       -1.8050530    -1.5837490     0.7705650
  H       -2.3371450     1.3649650     0.0138330
  H       -0.7761520     2.2140110    -0.0029500
  H       -1.2289870     1.1856370    -1.3693840
  H       -0.3506960    -1.7809300    -0.1207870
units angstrom
no_reorient  #important for SAPT in psi4, default
symmetry c1  #important for SAPT in psi4, default
}

set PROPERTIES_ORIGIN ["COM"]
properties('MP2/aug-cc-pvtz', properties = ['dipole'])
--------------------------------------------------------------------------

    Molecular point group: c1
  Charge       = 0
  Multiplicity = 1
  Basis Set: AUG-CC-PVTZ
    Blend: AUG-CC-PVTZ
  Basis Set: (AUG-CC-PVTZ AUX)
    Blend: AUG-CC-PVTZ-JKFIT

    Orbital Energies [Eh]
    ---------------------

    Doubly Occupied:

       1A    -20.493695     2A    -20.468430     3A    -15.710927
       4A    -11.328175     5A    -11.312717     6A    -11.252168
       7A     -1.369966     8A     -1.320782     9A     -1.249846
      10A     -1.061189    11A     -0.912622    12A     -0.808645
      13A     -0.781121    14A     -0.725616    15A     -0.677257
      16A     -0.629867    17A     -0.581429    18A     -0.571915
      19A     -0.560902    20A     -0.553679    21A     -0.512339
      22A     -0.408708    23A     -0.382728    24A     -0.374233

  @DF-RHF Final Energy:  -321.95304646823735

   => Energetics <=

    Nuclear Repulsion Energy =            249.8590920187700704
    One-Electron Energy =                -935.5263601862075120
    Two-Electron Energy =                 363.7142216992000954
    Total Energy =                       -321.9530464682373463
  Basis Set: (AUG-CC-PVTZ AUX)
    Blend: AUG-CC-PVTZ-RI
    Molecular point group: c1

    Geometry (in Angstrom), charge = 0, multiplicity = 1:

       Center              X                  Y                   Z               Mass
    ------------   -----------------  -----------------  -----------------  -----------------
         O            1.491369951313     1.072759520004     0.116248919537    15.994914619570
         O            1.196679951313    -1.159544479996    -0.272907080463    15.994914619570
         N           -1.302425048687    -1.178277479996     0.043230919537    14.003074004430
         C           -0.686303048687     0.144474520004     0.406140919537    12.000000000000
         C           -1.384907048687     1.300299520004    -0.282130080463    12.000000000000
         C            0.814041051313     0.000357920004     0.038043119537    12.000000000000
         H           -0.766215048687     0.238906520004     1.492331919537     1.007825032230
         H           -1.843508048687    -1.135751479996    -0.825994080463     1.007825032230
         H           -1.902713048687    -1.576006479996     0.770254919537     1.007825032230
         H           -2.434805048687     1.372707520004     0.013522919537     1.007825032230
         H           -0.873812048687     2.221753520004    -0.003260080463     1.007825032230
         H           -1.326647048687     1.193379520004    -1.369694080463     1.007825032230
         H           -0.448356048687    -1.773187479996    -0.121097080463     1.007825032230

  Basis Set: AUG-CC-PVTZ
    Blend: AUG-CC-PVTZ
  Basis Set: (AUG-CC-PVTZ AUX)
    Blend: AUG-CC-PVTZ-JKFIT
	 Reference Energy          =    -321.9530464682373463 [Eh]
	 Singles Energy            =      -0.0000000000000000 [Eh]
	 Same-Spin Energy          =      -0.3223478238522198 [Eh]
	 Opposite-Spin Energy      =      -1.0071750540559889 [Eh]
	 Correlation Energy        =      -1.3295228779082087 [Eh]
	 Total Energy              =    -323.2825693461455785 [Eh]

	 ================> DF-SCS-MP2 Energies <==================
	-----------------------------------------------------------
	 SCS Same-Spin Scale       =       0.3333333333333333 [-]
	 SCS Opposite-Spin Scale   =       1.2000000000000000 [-]
	 SCS Same-Spin Energy      =      -0.1074492746174066 [Eh]
	 SCS Opposite-Spin Energy  =      -1.2086100648671867 [Eh]
	 SCS Correlation Energy    =      -1.3160593394845932 [Eh]
	 SCS Total Energy          =    -323.2691058077219282 [Eh]
	-----------------------------------------------------------

  Dipole Moment: [D]
     X:    -9.7892      Y:    -2.9857      Z:     0.6949     Total:    10.2579

*** Psi4 exiting successfully. Buy a developer a beer!
