                               Psi4 1.4a3.dev225

  ==> Input File <==

--------------------------------------------------------------------------
#psi4
#
memory 32 gb

molecule  {
0 1
  O        1.5890300     1.0650170     0.1165590
  O        1.2943400    -1.1672870    -0.2725970
  N       -1.2047650    -1.1860200     0.0435410
  C       -0.5886430     0.1367320     0.4064510
  C       -1.2872470     1.2925570    -0.2818200
  C        0.9490107     0.0516869     0.0426610
  H       -0.6685550     0.2311640     1.4926420
  H       -1.7458480    -1.1434940    -0.8256840
  H       -1.8050530    -1.5837490     0.7705650
  H       -2.3371450     1.3649650     0.0138330
  H       -0.7761520     2.2140110    -0.0029500
  H       -1.2289870     1.1856370    -1.3693840
  H       -0.3506960    -1.7809300    -0.1207870
units angstrom
no_reorient  #important for SAPT in psi4, default
symmetry c1  #important for SAPT in psi4, default
}

set PROPERTIES_ORIGIN ["COM"]
properties('MP2/aug-cc-pvtz', properties = ['dipole'])
--------------------------------------------------------------------------

    Molecular point group: c1
  Charge       = 0
  Multiplicity = 1
  Basis Set: AUG-CC-PVTZ
    Blend: AUG-CC-PVTZ
  Basis Set: (AUG-CC-PVTZ AUX)
    Blend: AUG-CC-PVTZ-JKFIT

    Orbital Energies [Eh]
    ---------------------

    Doubly Occupied:

       1A    -20.484978     2A    -20.479605     3A    -15.706591
       4A    -11.327294     5A    -11.307431     6A    -11.250406
       7A     -1.373225     8A     -1.328384     9A     -1.253654
      10A     -1.057620    11A     -0.904251    12A     -0.801893
      13A     -0.775580    14A     -0.723711    15A     -0.672198
      16A     -0.629413    17A     -0.590123    18A     -0.571345
      19A     -0.561923    20A     -0.553853    21A     -0.516575
      22A     -0.404270    23A     -0.385185    24A     -0.382461

  @DF-RHF Final Energy:  -321.95485197750315

   => Energetics <=

    Nuclear Repulsion Energy =            249.7582807500887441
    One-Electron Energy =                -935.3423291087691496
    Two-Electron Energy =                 363.6291963811772803
    Total Energy =                       -321.9548519775031536
  Basis Set: (AUG-CC-PVTZ AUX)
    Blend: AUG-CC-PVTZ-RI
    Molecular point group: c1

    Geometry (in Angstrom), charge = 0, multiplicity = 1:

       Center              X                  Y                   Z               Mass
    ------------   -----------------  -----------------  -----------------  -----------------
         O            1.486342136914     1.064799087883     0.115668403561    15.994914619570
         O            1.191652136914    -1.167504912117    -0.273487596439    15.994914619570
         N           -1.307452863086    -1.186237912117     0.042650403561    14.003074004430
         C           -0.691330863086     0.136514087883     0.405560403561    12.000000000000
         C           -1.389934863086     1.292339087883    -0.282710596439    12.000000000000
         C            0.846322836914     0.051468987883     0.041770403561    12.000000000000
         H           -0.771242863086     0.230946087883     1.491751403561     1.007825032230
         H           -1.848535863086    -1.143711912117    -0.826574596439     1.007825032230
         H           -1.907740863086    -1.583966912117     0.769674403561     1.007825032230
         H           -2.439832863086     1.364747087883     0.012942403561     1.007825032230
         H           -0.878839863086     2.213793087883    -0.003840596439     1.007825032230
         H           -1.331674863086     1.185419087883    -1.370274596439     1.007825032230
         H           -0.453383863086    -1.781147912117    -0.121677596439     1.007825032230

  Basis Set: AUG-CC-PVTZ
    Blend: AUG-CC-PVTZ
  Basis Set: (AUG-CC-PVTZ AUX)
    Blend: AUG-CC-PVTZ-JKFIT
	 Reference Energy          =    -321.9548519775031536 [Eh]
	 Singles Energy            =      -0.0000000000000000 [Eh]
	 Same-Spin Energy          =      -0.3215615667693930 [Eh]
	 Opposite-Spin Energy      =      -1.0056195138011828 [Eh]
	 Correlation Energy        =      -1.3271810805705757 [Eh]
	 Total Energy              =    -323.2820330580737505 [Eh]

	 ================> DF-SCS-MP2 Energies <==================
	-----------------------------------------------------------
	 SCS Same-Spin Scale       =       0.3333333333333333 [-]
	 SCS Opposite-Spin Scale   =       1.2000000000000000 [-]
	 SCS Same-Spin Energy      =      -0.1071871889231310 [Eh]
	 SCS Opposite-Spin Energy  =      -1.2067434165614193 [Eh]
	 SCS Correlation Energy    =      -1.3139306054845503 [Eh]
	 SCS Total Energy          =    -323.2687825829876829 [Eh]
	-----------------------------------------------------------

  Dipole Moment: [D]
     X:    -9.4969      Y:    -2.4389      Z:     0.7612     Total:     9.8345

*** Psi4 exiting successfully. Buy a developer a beer!
