                               Psi4 1.3.2 release

  ==> Input File <==

--------------------------------------------------------------------------
#psi4
#
memory 32 gb

molecule  {
0 1
  O        1.5890300     1.0650170     0.1165590
  O        1.2943400    -1.1672870    -0.2725970
  N       -1.1337824    -1.2101546     0.0195371
  C       -0.5886430     0.1367320     0.4064510
  C       -1.2872470     1.2925570    -0.2818200
  C        0.9075899    -0.0667487     0.0142816
  H       -0.6685550     0.2311640     1.4926420
  H       -1.7458480    -1.1434940    -0.8256840
  H       -1.8050530    -1.5837490     0.7705650
  H       -2.3371450     1.3649650     0.0138330
  H       -0.7761520     2.2140110    -0.0029500
  H       -1.2289870     1.1856370    -1.3693840
  H       -0.3506960    -1.7809300    -0.1207870
units angstrom
no_reorient  #important for SAPT in psi4, default
symmetry c1  #important for SAPT in psi4, default
}

set PROPERTIES_ORIGIN ["COM"]
properties('MP2/aug-cc-pvtz', properties = ['dipole'])
--------------------------------------------------------------------------

    Molecular point group: c1
  Charge       = 0
  Multiplicity = 1
  Basis Set: AUG-CC-PVTZ
    Blend: AUG-CC-PVTZ
  Basis Set: (AUG-CC-PVTZ AUX)
    Blend: AUG-CC-PVTZ-JKFIT

    Orbital Energies [Eh]
    ---------------------

    Doubly Occupied:

       1A    -20.504598     2A    -20.450736     3A    -15.717045
       4A    -11.324440     5A    -11.312684     6A    -11.252562
       7A     -1.395666     8A     -1.328179     9A     -1.224847
      10A     -1.059166    11A     -0.912609    12A     -0.823841
      13A     -0.783379    14A     -0.714432    15A     -0.682499
      16A     -0.633765    17A     -0.585949    18A     -0.571888
      19A     -0.560762    20A     -0.555051    21A     -0.521797
      22A     -0.406875    23A     -0.367917    24A     -0.362078

  @DF-RHF Final Energy:  -321.93247471565718

   => Energetics <=

    Nuclear Repulsion Energy =            250.5673818834854103
    One-Electron Energy =                -936.8941856749606814
    Two-Electron Energy =                 364.3943290758181206
    Total Energy =                       -321.9324747156571789
  Basis Set: (AUG-CC-PVTZ AUX)
    Blend: AUG-CC-PVTZ-RI
    Molecular point group: c1

    Geometry (in Angstrom), charge = 0, multiplicity = 1:

       Center              X                  Y                   Z               Mass
    ------------   -----------------  -----------------  -----------------  -----------------
         O            1.480761699452     1.084554637046     0.123267492046    15.994914619570
         O            1.186071699452    -1.147749362954    -0.265888507954    15.994914619570
         N           -1.242050700548    -1.190616962954     0.026245592046    14.003074004430
         C           -0.696911300548     0.156269637046     0.413159492046    12.000000000000
         C           -1.395515300548     1.312094637046    -0.275111507954    12.000000000000
         C            0.799321599452    -0.047211062954     0.020990092046    12.000000000000
         H           -0.776823300548     0.250701637046     1.499350492046     1.007825032230
         H           -1.854116300548    -1.123956362954    -0.818975507954     1.007825032230
         H           -1.913321300548    -1.564211362954     0.777273492046     1.007825032230
         H           -2.445413300548     1.384502637046     0.020541492046     1.007825032230
         H           -0.884420300548     2.233548637046     0.003758492046     1.007825032230
         H           -1.337255300548     1.205174637046    -1.362675507954     1.007825032230
         H           -0.458964300548    -1.761392362954    -0.114078507954     1.007825032230

  Basis Set: AUG-CC-PVTZ
    Blend: AUG-CC-PVTZ
  Basis Set: (AUG-CC-PVTZ AUX)
    Blend: AUG-CC-PVTZ-JKFIT
	 Reference Energy          =    -321.9324747156571789 [Eh]
	 Singles Energy            =      -0.0000000000000000 [Eh]
	 Same-Spin Energy          =      -0.3221294538474568 [Eh]
	 Opposite-Spin Energy      =      -1.0071217624189472 [Eh]
	 Correlation Energy        =      -1.3292512162664041 [Eh]
	 Total Energy              =    -323.2617259319235927 [Eh]

	 ================> DF-SCS-MP2 Energies <==================
	-----------------------------------------------------------
	 SCS Same-Spin Scale       =       0.3333333333333333 [-]
	 SCS Opposite-Spin Scale   =       1.2000000000000000 [-]
	 SCS Same-Spin Energy      =      -0.1073764846158189 [Eh]
	 SCS Opposite-Spin Energy  =      -1.2085461149027366 [Eh]
	 SCS Correlation Energy    =      -1.3159225995185555 [Eh]
	 SCS Total Energy          =    -323.2483973151757368 [Eh]
	-----------------------------------------------------------

  Dipole Moment: [D]
     X:   -10.0467      Y:    -3.5598      Z:     0.5975     Total:    10.6755

*** Psi4 exiting successfully. Buy a developer a beer!
