                               Psi4 1.3.2 release

  ==> Input File <==

--------------------------------------------------------------------------
#psi4
#
memory 32 gb

molecule  {
0 1
  O        1.5342213     1.0963323     0.1339820
  O        1.2314529    -1.1875816    -0.2639143
  N       -1.2047650    -1.1860200     0.0435410
  C       -0.5886430     0.1367320     0.4064510
  C       -1.2872470     1.2925570    -0.2818200
  C        0.9223610     0.0094930     0.0395840
  H       -0.6685550     0.2311640     1.4926420
  H       -1.7458480    -1.1434940    -0.8256840
  H       -1.8050530    -1.5837490     0.7705650
  H       -2.3371450     1.3649650     0.0138330
  H       -0.7761520     2.2140110    -0.0029500
  H       -1.2289870     1.1856370    -1.3693840
  H       -0.3506960    -1.7809300    -0.1207870
units angstrom
no_reorient  #important for SAPT in psi4, default
symmetry c1  #important for SAPT in psi4, default
}

set PROPERTIES_ORIGIN ["COM"]
properties('MP2/aug-cc-pvtz', properties = ['dipole'])
--------------------------------------------------------------------------

    Molecular point group: c1
  Charge       = 0
  Multiplicity = 1
  Basis Set: AUG-CC-PVTZ
    Blend: AUG-CC-PVTZ
  Basis Set: (AUG-CC-PVTZ AUX)
    Blend: AUG-CC-PVTZ-JKFIT

    Orbital Energies [Eh]
    ---------------------

    Doubly Occupied:

       1A    -20.496394     2A    -20.479964     3A    -15.702121
       4A    -11.332927     5A    -11.303430     6A    -11.247436
       7A     -1.370558     8A     -1.317092     9A     -1.266516
      10A     -1.054789    11A     -0.905106    12A     -0.801188
      13A     -0.775549    14A     -0.724138    15A     -0.674169
      16A     -0.627712    17A     -0.587182    18A     -0.572033
      19A     -0.558769    20A     -0.551091    21A     -0.513890
      22A     -0.415653    23A     -0.386586    24A     -0.383933

  @DF-RHF Final Energy:  -321.95476626839138

   => Energetics <=

    Nuclear Repulsion Energy =            250.7199410438309144
    One-Electron Energy =                -937.2529613530673487
    Two-Electron Energy =                 364.5782540408450814
    Total Energy =                       -321.9547662683913813
  Basis Set: (AUG-CC-PVTZ AUX)
    Blend: AUG-CC-PVTZ-RI
    Molecular point group: c1

    Geometry (in Angstrom), charge = 0, multiplicity = 1:

       Center              X                  Y                   Z               Mass
    ------------   -----------------  -----------------  -----------------  -----------------
         O            1.456265476086     1.099820847727     0.128816901978    15.994914619570
         O            1.153497076086    -1.184093052273    -0.269079398022    15.994914619570
         N           -1.282720823914    -1.182531452273     0.038375901978    14.003074004430
         C           -0.666598823914     0.140220547727     0.401285901978    12.000000000000
         C           -1.365202823914     1.296045547727    -0.286985098022    12.000000000000
         C            0.844405176086     0.012981547727     0.034418901978    12.000000000000
         H           -0.746510823914     0.234652547727     1.487476901978     1.007825032230
         H           -1.823803823914    -1.140005452273    -0.830849098022     1.007825032230
         H           -1.883008823914    -1.580260452273     0.765399901978     1.007825032230
         H           -2.415100823914     1.368453547727     0.008667901978     1.007825032230
         H           -0.854107823914     2.217499547727    -0.008115098022     1.007825032230
         H           -1.306942823914     1.189125547727    -1.374549098022     1.007825032230
         H           -0.428651823914    -1.777441452273    -0.125952098022     1.007825032230

  Basis Set: AUG-CC-PVTZ
    Blend: AUG-CC-PVTZ
  Basis Set: (AUG-CC-PVTZ AUX)
    Blend: AUG-CC-PVTZ-JKFIT
	 Reference Energy          =    -321.9547662683913813 [Eh]
	 Singles Energy            =      -0.0000000000000000 [Eh]
	 Same-Spin Energy          =      -0.3225124882763489 [Eh]
	 Opposite-Spin Energy      =      -1.0070175280348632 [Eh]
	 Correlation Energy        =      -1.3295300163112120 [Eh]
	 Total Energy              =    -323.2842962847025774 [Eh]

	 ================> DF-SCS-MP2 Energies <==================
	-----------------------------------------------------------
	 SCS Same-Spin Scale       =       0.3333333333333333 [-]
	 SCS Opposite-Spin Scale   =       1.2000000000000000 [-]
	 SCS Same-Spin Energy      =      -0.1075041627587830 [Eh]
	 SCS Opposite-Spin Energy  =      -1.2084210336418357 [Eh]
	 SCS Correlation Energy    =      -1.3159251964006187 [Eh]
	 SCS Total Energy          =    -323.2706914647919803 [Eh]
	-----------------------------------------------------------

  Dipole Moment: [D]
     X:    -9.2352      Y:    -2.8487      Z:     0.6419     Total:     9.6859

*** Psi4 exiting successfully. Buy a developer a beer!
