                               Psi4 1.3.2 release

  ==> Input File <==

--------------------------------------------------------------------------
#psi4
#
memory 32 gb

molecule  {
0 1
  O        1.5890300     1.0650170     0.1165590
  O        1.2943400    -1.1672870    -0.2725970
  N       -1.1519054    -1.2210889     0.0901590
  C       -0.5886430     0.1367320     0.4064510
  C       -1.2365968     1.3418987    -0.2457952
  C        0.9223610     0.0094930     0.0395840
  H       -0.6685550     0.2311640     1.4926420
  H       -1.7458480    -1.1434940    -0.8256840
  H       -1.8050530    -1.5837490     0.7705650
  H       -2.3371450     1.3649650     0.0138330
  H       -0.7761520     2.2140110    -0.0029500
  H       -1.2289870     1.1856370    -1.3693840
  H       -0.3506960    -1.7809300    -0.1207870
units angstrom
no_reorient  #important for SAPT in psi4, default
symmetry c1  #important for SAPT in psi4, default
}

set PROPERTIES_ORIGIN ["COM"]
properties('MP2/aug-cc-pvtz', properties = ['dipole'])
--------------------------------------------------------------------------

    Molecular point group: c1
  Charge       = 0
  Multiplicity = 1
  Basis Set: AUG-CC-PVTZ
    Blend: AUG-CC-PVTZ
  Basis Set: (AUG-CC-PVTZ AUX)
    Blend: AUG-CC-PVTZ-JKFIT

    Orbital Energies [Eh]
    ---------------------

    Doubly Occupied:

       1A    -20.486338     2A    -20.471295     3A    -15.716257
       4A    -11.325991     5A    -11.311301     6A    -11.256022
       7A     -1.368651     8A     -1.321919     9A     -1.252921
      10A     -1.062502    11A     -0.909424    12A     -0.824303
      13A     -0.772852    14A     -0.722915    15A     -0.670985
      16A     -0.623980    17A     -0.604103    18A     -0.573672
      19A     -0.565281    20A     -0.539066    21A     -0.507946
      22A     -0.405052    23A     -0.383304    24A     -0.375433

  @DF-RHF Final Energy:  -321.93883760713521

   => Energetics <=

    Nuclear Repulsion Energy =            250.0447062615889706
    One-Electron Energy =                -935.8640630621193850
    Two-Electron Energy =                 363.8805191933951733
    Total Energy =                       -321.9388376071352127
  Basis Set: (AUG-CC-PVTZ AUX)
    Blend: AUG-CC-PVTZ-RI
    Molecular point group: c1

    Geometry (in Angstrom), charge = 0, multiplicity = 1:

       Center              X                  Y                   Z               Mass
    ------------   -----------------  -----------------  -----------------  -----------------
         O            1.474795481142     1.069350568718     0.103897530676    15.994914619570
         O            1.180105481142    -1.162953431282    -0.285258469324    15.994914619570
         N           -1.266139918858    -1.216755331282     0.077497530676    14.003074004430
         C           -0.702877518858     0.141065568718     0.393789530676    12.000000000000
         C           -1.350831318858     1.346232268718    -0.258456669324    12.000000000000
         C            0.808126481142     0.013826568718     0.026922530676    12.000000000000
         H           -0.782789518858     0.235497568718     1.479980530676     1.007825032230
         H           -1.860082518858    -1.139160431282    -0.838345469324     1.007825032230
         H           -1.919287518858    -1.579415431282     0.757903530676     1.007825032230
         H           -2.451379518858     1.369298568718     0.001171530676     1.007825032230
         H           -0.890386518858     2.218344568718    -0.015611469324     1.007825032230
         H           -1.343221518858     1.189970568718    -1.382045469324     1.007825032230
         H           -0.464930518858    -1.776596431282    -0.133448469324     1.007825032230

  Basis Set: AUG-CC-PVTZ
    Blend: AUG-CC-PVTZ
  Basis Set: (AUG-CC-PVTZ AUX)
    Blend: AUG-CC-PVTZ-JKFIT
	 Reference Energy          =    -321.9388376071352127 [Eh]
	 Singles Energy            =      -0.0000000000000000 [Eh]
	 Same-Spin Energy          =      -0.3219859016382404 [Eh]
	 Opposite-Spin Energy      =      -1.0070316804106552 [Eh]
	 Correlation Energy        =      -1.3290175820488956 [Eh]
	 Total Energy              =    -323.2678551891841039 [Eh]

	 ================> DF-SCS-MP2 Energies <==================
	-----------------------------------------------------------
	 SCS Same-Spin Scale       =       0.3333333333333333 [-]
	 SCS Opposite-Spin Scale   =       1.2000000000000000 [-]
	 SCS Same-Spin Energy      =      -0.1073286338794135 [Eh]
	 SCS Opposite-Spin Energy  =      -1.2084380164927861 [Eh]
	 SCS Correlation Energy    =      -1.3157666503721996 [Eh]
	 SCS Total Energy          =    -323.2546042575074239 [Eh]
	-----------------------------------------------------------

  Dipole Moment: [D]
     X:    -9.8477      Y:    -2.8530      Z:     0.7145     Total:    10.2775

*** Psi4 exiting successfully. Buy a developer a beer!
