                               Psi4 1.3.2 release

  ==> Input File <==

--------------------------------------------------------------------------
#psi4
#
memory 32 gb

molecule  {
0 1
  O        1.5528962     1.0860151     0.1291899
  O        1.2943400    -1.1672870    -0.2725970
  N       -1.2047650    -1.1860200     0.0435410
  C       -0.5808554     0.1897577     0.4160936
  C       -1.2872470     1.2925570    -0.2818200
  C        0.9223610     0.0094930     0.0395840
  H       -0.6685550     0.2311640     1.4926420
  H       -1.7458480    -1.1434940    -0.8256840
  H       -1.8050530    -1.5837490     0.7705650
  H       -2.3371450     1.3649650     0.0138330
  H       -0.7761520     2.2140110    -0.0029500
  H       -1.2289870     1.1856370    -1.3693840
  H       -0.3506960    -1.7809300    -0.1207870
units angstrom
no_reorient  #important for SAPT in psi4, default
symmetry c1  #important for SAPT in psi4, default
}

set PROPERTIES_ORIGIN ["COM"]
properties('MP2/aug-cc-pvtz', properties = ['dipole'])
--------------------------------------------------------------------------

    Molecular point group: c1
  Charge       = 0
  Multiplicity = 1
  Basis Set: AUG-CC-PVTZ
    Blend: AUG-CC-PVTZ
  Basis Set: (AUG-CC-PVTZ AUX)
    Blend: AUG-CC-PVTZ-JKFIT

    Orbital Energies [Eh]
    ---------------------

    Doubly Occupied:

       1A    -20.493016     2A    -20.474757     3A    -15.701566
       4A    -11.330173     5A    -11.312567     6A    -11.250243
       7A     -1.364591     8A     -1.310577     9A     -1.259215
      10A     -1.067138    11A     -0.906856    12A     -0.797922
      13A     -0.770999    14A     -0.718254    15A     -0.672876
      16A     -0.634003    17A     -0.588804    18A     -0.577266
      19A     -0.559332    20A     -0.552212    21A     -0.517624
      22A     -0.410445    23A     -0.384579    24A     -0.380242

  @DF-RHF Final Energy:  -321.95316873765739

   => Energetics <=

    Nuclear Repulsion Energy =            249.8029895045842750
    One-Electron Energy =                -935.4418079301907483
    Two-Electron Energy =                 363.6856496879490805
    Total Energy =                       -321.9531687376573927
  Basis Set: (AUG-CC-PVTZ AUX)
    Blend: AUG-CC-PVTZ-RI
    Molecular point group: c1

    Geometry (in Angstrom), charge = 0, multiplicity = 1:

       Center              X                  Y                   Z               Mass
    ------------   -----------------  -----------------  -----------------  -----------------
         O            1.459240602098     1.080565783486     0.125145741650    15.994914619570
         O            1.200684402098    -1.172736316514    -0.276641158350    15.994914619570
         N           -1.298420597902    -1.191469316514     0.039496841650    14.003074004430
         C           -0.674510997902     0.184308383486     0.412049441650    12.000000000000
         C           -1.380902597902     1.287107683486    -0.285864158350    12.000000000000
         C            0.828705402098     0.004043683486     0.035539841650    12.000000000000
         H           -0.762210597902     0.225714683486     1.488597841650     1.007825032230
         H           -1.839503597902    -1.148943316514    -0.829728158350     1.007825032230
         H           -1.898708597902    -1.589198316514     0.766520841650     1.007825032230
         H           -2.430800597902     1.359515683486     0.009788841650     1.007825032230
         H           -0.869807597902     2.208561683486    -0.006994158350     1.007825032230
         H           -1.322642597902     1.180187683486    -1.373428158350     1.007825032230
         H           -0.444351597902    -1.786379316514    -0.124831158350     1.007825032230

  Basis Set: AUG-CC-PVTZ
    Blend: AUG-CC-PVTZ
  Basis Set: (AUG-CC-PVTZ AUX)
    Blend: AUG-CC-PVTZ-JKFIT
	 Reference Energy          =    -321.9531687376573927 [Eh]
	 Singles Energy            =      -0.0000000000000000 [Eh]
	 Same-Spin Energy          =      -0.3221454442998110 [Eh]
	 Opposite-Spin Energy      =      -1.0070430332714440 [Eh]
	 Correlation Energy        =      -1.3291884775712548 [Eh]
	 Total Energy              =    -323.2823572152286715 [Eh]

	 ================> DF-SCS-MP2 Energies <==================
	-----------------------------------------------------------
	 SCS Same-Spin Scale       =       0.3333333333333333 [-]
	 SCS Opposite-Spin Scale   =       1.2000000000000000 [-]
	 SCS Same-Spin Energy      =      -0.1073818147666036 [Eh]
	 SCS Opposite-Spin Energy  =      -1.2084516399257328 [Eh]
	 SCS Correlation Energy    =      -1.3158334546923365 [Eh]
	 SCS Total Energy          =    -323.2690021923497170 [Eh]
	-----------------------------------------------------------

  Dipole Moment: [D]
     X:    -9.5290      Y:    -2.7270      Z:     0.6958     Total:     9.9359

*** Psi4 exiting successfully. Buy a developer a beer!
