                               Psi4 1.3.2 release

  ==> Input File <==

--------------------------------------------------------------------------
#psi4
#
memory 32 gb

molecule  {
0 1
  O        1.5890300     1.0650170     0.1165590
  O        1.2943400    -1.1672870    -0.2725970
  N       -1.2047650    -1.1860200     0.0435410
  C       -0.5834008     0.1312829     0.4171752
  C       -1.2872470     1.2925570    -0.2818200
  C        0.9223610     0.0094930     0.0395840
  H       -0.6685550     0.2311640     1.4926420
  H       -1.7478298    -1.1521723    -0.8248289
  H       -1.8050530    -1.5837490     0.7705650
  H       -2.3371450     1.3649650     0.0138330
  H       -0.7761520     2.2140110    -0.0029500
  H       -1.2289870     1.1856370    -1.3693840
  H       -0.3506960    -1.7809300    -0.1207870
units angstrom
no_reorient  #important for SAPT in psi4, default
symmetry c1  #important for SAPT in psi4, default
}

set PROPERTIES_ORIGIN ["COM"]
properties('MP2/aug-cc-pvtz', properties = ['dipole'])
--------------------------------------------------------------------------

    Molecular point group: c1
  Charge       = 0
  Multiplicity = 1
  Basis Set: AUG-CC-PVTZ
    Blend: AUG-CC-PVTZ
  Basis Set: (AUG-CC-PVTZ AUX)
    Blend: AUG-CC-PVTZ-JKFIT

    Orbital Energies [Eh]
    ---------------------

    Doubly Occupied:

       1A    -20.489471     2A    -20.473132     3A    -15.709724
       4A    -11.327876     5A    -11.311080     6A    -11.252015
       7A     -1.367603     8A     -1.321507     9A     -1.254824
      10A     -1.058324    11A     -0.911240    12A     -0.807030
      13A     -0.778552    14A     -0.725495    15A     -0.677267
      16A     -0.628343    17A     -0.582297    18A     -0.571452
      19A     -0.560330    20A     -0.554170    21A     -0.512363
      22A     -0.407346    23A     -0.385190    24A     -0.377323

  @DF-RHF Final Energy:  -321.95506103215121

   => Energetics <=

    Nuclear Repulsion Energy =            249.7617114359052266
    One-Electron Energy =                -935.3456356753727050
    Two-Electron Energy =                 363.6288632073162717
    Total Energy =                       -321.9550610321512067
  Basis Set: (AUG-CC-PVTZ AUX)
    Blend: AUG-CC-PVTZ-RI
    Molecular point group: c1

    Geometry (in Angstrom), charge = 0, multiplicity = 1:

       Center              X                  Y                   Z               Mass
    ------------   -----------------  -----------------  -----------------  -----------------
         O            1.489249425595     1.071317643088     0.114628194621    15.994914619570
         O            1.194559425595    -1.160986356912    -0.274527805379    15.994914619570
         N           -1.304545574405    -1.179719356912     0.041610194621    14.003074004430
         C           -0.683181374405     0.137583543088     0.415244394621    12.000000000000
         C           -1.387027574405     1.298857643088    -0.283750805379    12.000000000000
         C            0.822580425595     0.015793643088     0.037653194621    12.000000000000
         H           -0.768335574405     0.237464643088     1.490711194621     1.007825032230
         H           -1.847610374405    -1.145871656912    -0.826759705379     1.007825032230
         H           -1.904833574405    -1.577448356912     0.768634194621     1.007825032230
         H           -2.436925574405     1.371265643088     0.011902194621     1.007825032230
         H           -0.875932574405     2.220311643088    -0.004880805379     1.007825032230
         H           -1.328767574405     1.191937643088    -1.371314805379     1.007825032230
         H           -0.450476574405    -1.774629356912    -0.122717805379     1.007825032230

  Basis Set: AUG-CC-PVTZ
    Blend: AUG-CC-PVTZ
  Basis Set: (AUG-CC-PVTZ AUX)
    Blend: AUG-CC-PVTZ-JKFIT
	 Reference Energy          =    -321.9550610321512067 [Eh]
	 Singles Energy            =      -0.0000000000000000 [Eh]
	 Same-Spin Energy          =      -0.3220347707432190 [Eh]
	 Opposite-Spin Energy      =      -1.0066446254152424 [Eh]
	 Correlation Energy        =      -1.3286793961584613 [Eh]
	 Total Energy              =    -323.2837404283096703 [Eh]

	 ================> DF-SCS-MP2 Energies <==================
	-----------------------------------------------------------
	 SCS Same-Spin Scale       =       0.3333333333333333 [-]
	 SCS Opposite-Spin Scale   =       1.2000000000000000 [-]
	 SCS Same-Spin Energy      =      -0.1073449235810730 [Eh]
	 SCS Opposite-Spin Energy  =      -1.2079735504982907 [Eh]
	 SCS Correlation Energy    =      -1.3153184740793638 [Eh]
	 SCS Total Energy          =    -323.2703795062305971 [Eh]
	-----------------------------------------------------------

  Dipole Moment: [D]
     X:    -9.7100      Y:    -2.8496      Z:     0.7267     Total:    10.1456

*** Psi4 exiting successfully. Buy a developer a beer!
