                               Psi4 1.3.2 release

  ==> Input File <==

--------------------------------------------------------------------------
#psi4
#
memory 32 gb

molecule  {
0 1
  O        1.6243515     1.0427329     0.1038344
  O        1.2943400    -1.1672870    -0.2725970
  N       -1.2047650    -1.1860200     0.0435410
  C       -0.5945897     0.0835513     0.3963614
  C       -1.2872470     1.2925570    -0.2818200
  C        0.9223610     0.0094930     0.0395840
  H       -0.6685550     0.2311640     1.4926420
  H       -1.7458480    -1.1434940    -0.8256840
  H       -1.8050530    -1.5837490     0.7705650
  H       -2.3371450     1.3649650     0.0138330
  H       -0.7761520     2.2140110    -0.0029500
  H       -1.2289870     1.1856370    -1.3693840
  H       -0.3506960    -1.7809300    -0.1207870
units angstrom
no_reorient  #important for SAPT in psi4, default
symmetry c1  #important for SAPT in psi4, default
}

set PROPERTIES_ORIGIN ["COM"]
properties('MP2/aug-cc-pvtz', properties = ['dipole'])
--------------------------------------------------------------------------

    Molecular point group: c1
  Charge       = 0
  Multiplicity = 1
  Basis Set: AUG-CC-PVTZ
    Blend: AUG-CC-PVTZ
  Basis Set: (AUG-CC-PVTZ AUX)
    Blend: AUG-CC-PVTZ-JKFIT

    Orbital Energies [Eh]
    ---------------------

    Doubly Occupied:

       1A    -20.486329     2A    -20.471925     3A    -15.716254
       4A    -11.326469     5A    -11.310903     6A    -11.253456
       7A     -1.373799     8A     -1.330666     9A     -1.250799
      10A     -1.053627    11A     -0.914225    12A     -0.815388
      13A     -0.787834    14A     -0.735378    15A     -0.675271
      16A     -0.624415    17A     -0.579649    18A     -0.569678
      19A     -0.559398    20A     -0.552726    21A     -0.506104
      22A     -0.404512    23A     -0.384496    24A     -0.374834

  @DF-RHF Final Energy:  -321.95062512070007

   => Energetics <=

    Nuclear Repulsion Energy =            249.8916576423598030
    One-Electron Energy =                -935.5682931683795687
    Two-Electron Energy =                 363.7260104053196414
    Total Energy =                       -321.9506251207000673
  Basis Set: (AUG-CC-PVTZ AUX)
    Blend: AUG-CC-PVTZ-RI
    Molecular point group: c1

    Geometry (in Angstrom), charge = 0, multiplicity = 1:

       Center              X                  Y                   Z               Mass
    ------------   -----------------  -----------------  -----------------  -----------------
         O            1.519711788425     1.059370311937     0.107003741976    15.994914619570
         O            1.189700288425    -1.150649588063    -0.269427658024    15.994914619570
         N           -1.309404711575    -1.169382588063     0.046710341976    14.003074004430
         C           -0.699229411575     0.100188711937     0.399530741976    12.000000000000
         C           -1.391886711575     1.309194411937    -0.278650658024    12.000000000000
         C            0.817721288425     0.026130411937     0.042753341976    12.000000000000
         H           -0.773194711575     0.247801411937     1.495811341976     1.007825032230
         H           -1.850487711575    -1.126856588063    -0.822514658024     1.007825032230
         H           -1.909692711575    -1.567111588063     0.773734341976     1.007825032230
         H           -2.441784711575     1.381602411937     0.017002341976     1.007825032230
         H           -0.880791711575     2.230648411937     0.000219341976     1.007825032230
         H           -1.333626711575     1.202274411937    -1.366214658024     1.007825032230
         H           -0.455335711575    -1.764292588063    -0.117617658024     1.007825032230

  Basis Set: AUG-CC-PVTZ
    Blend: AUG-CC-PVTZ
  Basis Set: (AUG-CC-PVTZ AUX)
    Blend: AUG-CC-PVTZ-JKFIT
	 Reference Energy          =    -321.9506251207000673 [Eh]
	 Singles Energy            =      -0.0000000000000000 [Eh]
	 Same-Spin Energy          =      -0.3223681405703226 [Eh]
	 Opposite-Spin Energy      =      -1.0068243823806040 [Eh]
	 Correlation Energy        =      -1.3291925229509265 [Eh]
	 Total Energy              =    -323.2798176436509721 [Eh]

	 ================> DF-SCS-MP2 Energies <==================
	-----------------------------------------------------------
	 SCS Same-Spin Scale       =       0.3333333333333333 [-]
	 SCS Opposite-Spin Scale   =       1.2000000000000000 [-]
	 SCS Same-Spin Energy      =      -0.1074560468567742 [Eh]
	 SCS Opposite-Spin Energy  =      -1.2081892588567247 [Eh]
	 SCS Correlation Energy    =      -1.3156453057134989 [Eh]
	 SCS Total Energy          =    -323.2662704264135414 [Eh]
	-----------------------------------------------------------

  Dipole Moment: [D]
     X:    -9.8651      Y:    -2.9046      Z:     0.7319     Total:    10.3098

*** Psi4 exiting successfully. Buy a developer a beer!
