                               Psi4 1.3.2 release

  ==> Input File <==

--------------------------------------------------------------------------
#psi4
#
memory 32 gb

molecule  {
0 1
  O        1.5890300     1.0650170     0.1165590
  O        1.2943400    -1.1672870    -0.2725970
  N       -1.2098803    -1.1903389     0.0689161
  C       -0.5886430     0.1367320     0.4064510
  C       -1.2872470     1.2925570    -0.2818200
  C        0.9223610     0.0094930     0.0395840
  H       -0.6771169     0.2141267     1.4933257
  H       -1.7458480    -1.1434940    -0.8256840
  H       -1.8050530    -1.5837490     0.7705650
  H       -2.3371450     1.3649650     0.0138330
  H       -0.7761520     2.2140110    -0.0029500
  H       -1.2289870     1.1856370    -1.3693840
  H       -0.3506960    -1.7809300    -0.1207870
units angstrom
no_reorient  #important for SAPT in psi4, default
symmetry c1  #important for SAPT in psi4, default
}

set PROPERTIES_ORIGIN ["COM"]
properties('MP2/aug-cc-pvtz', properties = ['dipole'])
--------------------------------------------------------------------------

    Molecular point group: c1
  Charge       = 0
  Multiplicity = 1
  Basis Set: AUG-CC-PVTZ
    Blend: AUG-CC-PVTZ
  Basis Set: (AUG-CC-PVTZ AUX)
    Blend: AUG-CC-PVTZ-JKFIT

    Orbital Energies [Eh]
    ---------------------

    Doubly Occupied:

       1A    -20.490234     2A    -20.473593     3A    -15.708981
       4A    -11.328663     5A    -11.311469     6A    -11.252063
       7A     -1.367501     8A     -1.321657     9A     -1.255309
      10A     -1.060373    11A     -0.910055    12A     -0.812341
      13A     -0.773008    14A     -0.726963    15A     -0.672197
      16A     -0.629807    17A     -0.582999    18A     -0.571818
      19A     -0.562697    20A     -0.553177    21A     -0.512857
      22A     -0.407726    23A     -0.385519    24A     -0.377772

  @DF-RHF Final Energy:  -321.95410276789562

   => Energetics <=

    Nuclear Repulsion Energy =            249.7060682863167926
    One-Electron Energy =                -935.2227841166218241
    Two-Electron Energy =                 363.5626130624093548
    Total Energy =                       -321.9541027678956198
  Basis Set: (AUG-CC-PVTZ AUX)
    Blend: AUG-CC-PVTZ-RI
    Molecular point group: c1

    Geometry (in Angstrom), charge = 0, multiplicity = 1:

       Center              X                  Y                   Z               Mass
    ------------   -----------------  -----------------  -----------------  -----------------
         O            1.490834732662     1.071357094827     0.112084992307    15.994914619570
         O            1.196144732662    -1.160946905173    -0.277071007693    15.994914619570
         N           -1.308075567338    -1.183998805173     0.064442092307    14.003074004430
         C           -0.686838267338     0.143072094827     0.401976992307    12.000000000000
         C           -1.385442267338     1.298897094827    -0.286294007693    12.000000000000
         C            0.824165732662     0.015833094827     0.035109992307    12.000000000000
         H           -0.775312167338     0.220466794827     1.488851692307     1.007825032230
         H           -1.844043267338    -1.137153905173    -0.830158007693     1.007825032230
         H           -1.903248267338    -1.577408905173     0.766090992307     1.007825032230
         H           -2.435340267338     1.371305094827     0.009358992307     1.007825032230
         H           -0.874347267338     2.220351094827    -0.007424007693     1.007825032230
         H           -1.327182267338     1.191977094827    -1.373858007693     1.007825032230
         H           -0.448891267338    -1.774589905173    -0.125261007693     1.007825032230

  Basis Set: AUG-CC-PVTZ
    Blend: AUG-CC-PVTZ
  Basis Set: (AUG-CC-PVTZ AUX)
    Blend: AUG-CC-PVTZ-JKFIT
	 Reference Energy          =    -321.9541027678956198 [Eh]
	 Singles Energy            =      -0.0000000000000000 [Eh]
	 Same-Spin Energy          =      -0.3222062019224953 [Eh]
	 Opposite-Spin Energy      =      -1.0068697422843582 [Eh]
	 Correlation Energy        =      -1.3290759442068536 [Eh]
	 Total Energy              =    -323.2831787121024831 [Eh]

	 ================> DF-SCS-MP2 Energies <==================
	-----------------------------------------------------------
	 SCS Same-Spin Scale       =       0.3333333333333333 [-]
	 SCS Opposite-Spin Scale   =       1.2000000000000000 [-]
	 SCS Same-Spin Energy      =      -0.1074020673074984 [Eh]
	 SCS Opposite-Spin Energy  =      -1.2082436907412297 [Eh]
	 SCS Correlation Energy    =      -1.3156457580487282 [Eh]
	 SCS Total Energy          =    -323.2697485259443511 [Eh]
	-----------------------------------------------------------

  Dipole Moment: [D]
     X:    -9.6891      Y:    -2.8215      Z:     0.7026     Total:    10.1160

*** Psi4 exiting successfully. Buy a developer a beer!
