                               Psi4 1.4a3.dev225

  ==> Input File <==

--------------------------------------------------------------------------
#psi4
#
memory 32 gb

molecule  {
0 1
  O        1.5890300     1.0650170     0.1165590
  O        1.2943400    -1.1672870    -0.2725970
  N       -1.2047650    -1.1860200     0.0435410
  C       -0.5886430     0.1367320     0.4064510
  C       -1.2872470     1.2925570    -0.2818200
  C        0.8957113    -0.0327009     0.0365070
  H       -0.6685550     0.2311640     1.4926420
  H       -1.7458480    -1.1434940    -0.8256840
  H       -1.8050530    -1.5837490     0.7705650
  H       -2.3371450     1.3649650     0.0138330
  H       -0.7761520     2.2140110    -0.0029500
  H       -1.2289870     1.1856370    -1.3693840
  H       -0.3506960    -1.7809300    -0.1207870
units angstrom
no_reorient  #important for SAPT in psi4, default
symmetry c1  #important for SAPT in psi4, default
}

set PROPERTIES_ORIGIN ["COM"]
properties('MP2/aug-cc-pvtz', properties = ['dipole'])
--------------------------------------------------------------------------

    Molecular point group: c1
  Charge       = 0
  Multiplicity = 1
  Basis Set: AUG-CC-PVTZ
    Blend: AUG-CC-PVTZ
  Basis Set: (AUG-CC-PVTZ AUX)
    Blend: AUG-CC-PVTZ-JKFIT

    Orbital Energies [Eh]
    ---------------------

    Doubly Occupied:

       1A    -20.499829     2A    -20.461444     3A    -15.712642
       4A    -11.328126     5A    -11.314737     6A    -11.252868
       7A     -1.376312     8A     -1.322653     9A     -1.237652
      10A     -1.062507    11A     -0.916248    12A     -0.811525
      13A     -0.783407    14A     -0.726556    15A     -0.679742
      16A     -0.632075    17A     -0.581170    18A     -0.571587
      19A     -0.560391    20A     -0.553551    21A     -0.513571
      22A     -0.410144    23A     -0.378014    24A     -0.368572

  @DF-RHF Final Energy:  -321.94776451203319

   => Energetics <=

    Nuclear Repulsion Energy =            249.9430431389504861
    One-Electron Energy =                -935.6709718782454956
    Two-Electron Energy =                 363.7801642272618778
    Total Energy =                       -321.9477645120331886
  Basis Set: (AUG-CC-PVTZ AUX)
    Blend: AUG-CC-PVTZ-RI
    Molecular point group: c1

    Geometry (in Angstrom), charge = 0, multiplicity = 1:

       Center              X                  Y                   Z               Mass
    ------------   -----------------  -----------------  -----------------  -----------------
         O            1.493524725063     1.076171126070     0.116497712098    15.994914619570
         O            1.198834725063    -1.156132873930    -0.272658287902    15.994914619570
         N           -1.300270274937    -1.174865873930     0.043479712098    14.003074004430
         C           -0.684148274937     0.147886126070     0.406389712098    12.000000000000
         C           -1.382752274937     1.303711126070    -0.281881287902    12.000000000000
         C            0.800206025063    -0.021546773930     0.036445712098    12.000000000000
         H           -0.764060274937     0.242318126070     1.492580712098     1.007825032230
         H           -1.841353274937    -1.132339873930    -0.825745287902     1.007825032230
         H           -1.900558274937    -1.572594873930     0.770503712098     1.007825032230
         H           -2.432650274937     1.376119126070     0.013771712098     1.007825032230
         H           -0.871657274937     2.225165126070    -0.003011287902     1.007825032230
         H           -1.324492274937     1.196791126070    -1.369445287902     1.007825032230
         H           -0.446201274937    -1.769775873930    -0.120848287902     1.007825032230

  Basis Set: AUG-CC-PVTZ
    Blend: AUG-CC-PVTZ
  Basis Set: (AUG-CC-PVTZ AUX)
    Blend: AUG-CC-PVTZ-JKFIT
	 Reference Energy          =    -321.9477645120331886 [Eh]
	 Singles Energy            =      -0.0000000000000000 [Eh]
	 Same-Spin Energy          =      -0.3226748244030376 [Eh]
	 Opposite-Spin Energy      =      -1.0078583837108244 [Eh]
	 Correlation Energy        =      -1.3305332081138621 [Eh]
	 Total Energy              =    -323.2782977201470658 [Eh]

	 ================> DF-SCS-MP2 Energies <==================
	-----------------------------------------------------------
	 SCS Same-Spin Scale       =       0.3333333333333333 [-]
	 SCS Opposite-Spin Scale   =       1.2000000000000000 [-]
	 SCS Same-Spin Energy      =      -0.1075582748010125 [Eh]
	 SCS Opposite-Spin Energy  =      -1.2094300604529893 [Eh]
	 SCS Correlation Energy    =      -1.3169883352540017 [Eh]
	 SCS Total Energy          =    -323.2647528472871841 [Eh]
	-----------------------------------------------------------

  Dipole Moment: [D]
     X:    -9.9051      Y:    -3.2101      Z:     0.6672     Total:    10.4336

*** Psi4 exiting successfully. Buy a developer a beer!
