                               Psi4 1.3.2 release

  ==> Input File <==

--------------------------------------------------------------------------
#psi4
#
memory 32 gb

molecule  {
0 1
  O        1.5890300     1.0650170     0.1165590
  O        1.2943400    -1.1672870    -0.2725970
  N       -1.2047650    -1.1860200     0.0435410
  C       -0.5886430     0.1367320     0.4064510
  C       -1.2872470     1.2925570    -0.2818200
  C        0.8690616    -0.0748948     0.0334299
  H       -0.6685550     0.2311640     1.4926420
  H       -1.7458480    -1.1434940    -0.8256840
  H       -1.8050530    -1.5837490     0.7705650
  H       -2.3371450     1.3649650     0.0138330
  H       -0.7761520     2.2140110    -0.0029500
  H       -1.2289870     1.1856370    -1.3693840
  H       -0.3506960    -1.7809300    -0.1207870
units angstrom
no_reorient  #important for SAPT in psi4, default
symmetry c1  #important for SAPT in psi4, default
}

set PROPERTIES_ORIGIN ["COM"]
properties('MP2/aug-cc-pvtz', properties = ['dipole'])
--------------------------------------------------------------------------

    Molecular point group: c1
  Charge       = 0
  Multiplicity = 1
  Basis Set: AUG-CC-PVTZ
    Blend: AUG-CC-PVTZ
  Basis Set: (AUG-CC-PVTZ AUX)
    Blend: AUG-CC-PVTZ-JKFIT

    Orbital Energies [Eh]
    ---------------------

    Doubly Occupied:

       1A    -20.510068     2A    -20.450009     3A    -15.715313
       4A    -11.327556     5A    -11.317874     6A    -11.253982
       7A     -1.391750     8A     -1.329298     9A     -1.211945
      10A     -1.064341    11A     -0.922334    12A     -0.816300
      13A     -0.787097    14A     -0.728155    15A     -0.684024
      16A     -0.637284    17A     -0.585380    18A     -0.570509
      19A     -0.561856    20A     -0.551781    21A     -0.518647
      22A     -0.409028    23A     -0.367894    24A     -0.357509

  @DF-RHF Final Energy:  -321.93381847216187

   => Energetics <=

    Nuclear Repulsion Energy =            250.1289012873391471
    One-Electron Energy =                -935.9855736822869403
    Two-Electron Energy =                 363.9228539227858619
    Total Energy =                       -321.9338184721618745
  Basis Set: (AUG-CC-PVTZ AUX)
    Blend: AUG-CC-PVTZ-RI
    Molecular point group: c1

    Geometry (in Angstrom), charge = 0, multiplicity = 1:

       Center              X                  Y                   Z               Mass
    ------------   -----------------  -----------------  -----------------  -----------------
         O            1.497116019137     1.081857145163     0.116912379843    15.994914619570
         O            1.202426019137    -1.150446854837    -0.272243620157    15.994914619570
         N           -1.296678980863    -1.169179854837     0.043894379843    14.003074004430
         C           -0.680556980863     0.153572145163     0.406804379843    12.000000000000
         C           -1.379160980863     1.309397145163    -0.281466620157    12.000000000000
         C            0.777147619137    -0.058054654837     0.033783279843    12.000000000000
         H           -0.760468980863     0.248004145163     1.492995379843     1.007825032230
         H           -1.837761980863    -1.126653854837    -0.825330620157     1.007825032230
         H           -1.896966980863    -1.566908854837     0.770918379843     1.007825032230
         H           -2.429058980863     1.381805145163     0.014186379843     1.007825032230
         H           -0.868065980863     2.230851145163    -0.002596620157     1.007825032230
         H           -1.320900980863     1.202477145163    -1.369030620157     1.007825032230
         H           -0.442609980863    -1.764089854837    -0.120433620157     1.007825032230

  Basis Set: AUG-CC-PVTZ
    Blend: AUG-CC-PVTZ
  Basis Set: (AUG-CC-PVTZ AUX)
    Blend: AUG-CC-PVTZ-JKFIT
	 Reference Energy          =    -321.9338184721618745 [Eh]
	 Singles Energy            =      -0.0000000000000000 [Eh]
	 Same-Spin Energy          =      -0.3232047061658612 [Eh]
	 Opposite-Spin Energy      =      -1.0090178688743241 [Eh]
	 Correlation Energy        =      -1.3322225750401853 [Eh]
	 Total Energy              =    -323.2660410472020658 [Eh]

	 ================> DF-SCS-MP2 Energies <==================
	-----------------------------------------------------------
	 SCS Same-Spin Scale       =       0.3333333333333333 [-]
	 SCS Opposite-Spin Scale   =       1.2000000000000000 [-]
	 SCS Same-Spin Energy      =      -0.1077349020552871 [Eh]
	 SCS Opposite-Spin Energy  =      -1.2108214426491888 [Eh]
	 SCS Correlation Energy    =      -1.3185563447044759 [Eh]
	 SCS Total Energy          =    -323.2523748168663360 [Eh]
	-----------------------------------------------------------

  Dipole Moment: [D]
     X:   -10.0896      Y:    -3.5753      Z:     0.6217     Total:    10.7223

*** Psi4 exiting successfully. Buy a developer a beer!
