                               Psi4 1.3.2 release

  ==> Input File <==

--------------------------------------------------------------------------
#psi4
#
memory 32 gb

molecule  {
0 1
  O        1.5890300     1.0650170     0.1165590
  O        1.2943400    -1.1672870    -0.2725970
  N       -1.2047650    -1.1860200     0.0435410
  C       -0.6407793     0.0876071     0.3722987
  C       -1.2872470     1.2925570    -0.2818200
  C        0.9223610     0.0094930     0.0395840
  H       -0.6685550     0.2311640     1.4926420
  H       -1.7458480    -1.1434940    -0.8256840
  H       -1.8050530    -1.5837490     0.7705650
  H       -2.3371450     1.3649650     0.0138330
  H       -0.8133225     2.2426808    -0.0353969
  H       -1.2289870     1.1856370    -1.3693840
  H       -0.3506960    -1.7809300    -0.1207870
units angstrom
no_reorient  #important for SAPT in psi4, default
symmetry c1  #important for SAPT in psi4, default
}

set PROPERTIES_ORIGIN ["COM"]
properties('MP2/aug-cc-pvtz', properties = ['dipole'])
--------------------------------------------------------------------------

    Molecular point group: c1
  Charge       = 0
  Multiplicity = 1
  Basis Set: AUG-CC-PVTZ
    Blend: AUG-CC-PVTZ
  Basis Set: (AUG-CC-PVTZ AUX)
    Blend: AUG-CC-PVTZ-JKFIT

    Orbital Energies [Eh]
    ---------------------

    Doubly Occupied:

       1A    -20.489741     2A    -20.473623     3A    -15.717784
       4A    -11.329357     5A    -11.307186     6A    -11.250246
       7A     -1.375852     8A     -1.333243     9A     -1.254372
      10A     -1.055331    11A     -0.910116    12A     -0.816704
      13A     -0.792767    14A     -0.731354    15A     -0.673210
      16A     -0.623756    17A     -0.584120    18A     -0.569052
      19A     -0.560219    20A     -0.547414    21A     -0.506840
      22A     -0.405065    23A     -0.381039    24A     -0.377524

  @DF-RHF Final Energy:  -321.94717739158887

   => Energetics <=

    Nuclear Repulsion Energy =            249.9154251214411886
    One-Electron Energy =                -935.5933786756685322
    Two-Electron Energy =                 363.7307761626384490
    Total Energy =                       -321.9471773915888662
  Basis Set: (AUG-CC-PVTZ AUX)
    Blend: AUG-CC-PVTZ-RI
    Molecular point group: c1

    Geometry (in Angstrom), charge = 0, multiplicity = 1:

       Center              X                  Y                   Z               Mass
    ------------   -----------------  -----------------  -----------------  -----------------
         O            1.497379969425     1.076780663105     0.121052624759    15.994914619570
         O            1.202689969425    -1.155523336895    -0.268103375241    15.994914619570
         N           -1.296415030575    -1.174256336895     0.048034624759    14.003074004430
         C           -0.732429330575     0.099370763105     0.376792324759    12.000000000000
         C           -1.378897030575     1.304320663105    -0.277326375241    12.000000000000
         C            0.830710969425     0.021256663105     0.044077624759    12.000000000000
         H           -0.760205030575     0.242927663105     1.497135624759     1.007825032230
         H           -1.837498030575    -1.131730336895    -0.821190375241     1.007825032230
         H           -1.896703030575    -1.571985336895     0.775058624759     1.007825032230
         H           -2.428795030575     1.376728663105     0.018326624759     1.007825032230
         H           -0.904972530575     2.254444463105    -0.030903275241     1.007825032230
         H           -1.320637030575     1.197400663105    -1.364890375241     1.007825032230
         H           -0.442346030575    -1.769166336895    -0.116293375241     1.007825032230

  Basis Set: AUG-CC-PVTZ
    Blend: AUG-CC-PVTZ
  Basis Set: (AUG-CC-PVTZ AUX)
    Blend: AUG-CC-PVTZ-JKFIT
	 Reference Energy          =    -321.9471773915888662 [Eh]
	 Singles Energy            =      -0.0000000000000000 [Eh]
	 Same-Spin Energy          =      -0.3229049671923537 [Eh]
	 Opposite-Spin Energy      =      -1.0072474484822826 [Eh]
	 Correlation Energy        =      -1.3301524156746365 [Eh]
	 Total Energy              =    -323.2773298072635271 [Eh]

	 ================> DF-SCS-MP2 Energies <==================
	-----------------------------------------------------------
	 SCS Same-Spin Scale       =       0.3333333333333333 [-]
	 SCS Opposite-Spin Scale   =       1.2000000000000000 [-]
	 SCS Same-Spin Energy      =      -0.1076349890641179 [Eh]
	 SCS Opposite-Spin Energy  =      -1.2086969381787391 [Eh]
	 SCS Correlation Energy    =      -1.3163319272428571 [Eh]
	 SCS Total Energy          =    -323.2635093188317228 [Eh]
	-----------------------------------------------------------

  Dipole Moment: [D]
     X:    -9.7189      Y:    -2.9727      Z:     0.6423     Total:    10.1837

*** Psi4 exiting successfully. Buy a developer a beer!
