                               Psi4 1.3.2 release

  ==> Input File <==

--------------------------------------------------------------------------
#psi4
#
memory 32 gb

molecule  {
0 1
  O        1.5890300     1.0650170     0.1165590
  O        1.2943400    -1.1672870    -0.2725970
  N       -1.2047650    -1.1860200     0.0435410
  C       -0.5886430     0.1367320     0.4064510
  C       -1.2872470     1.2925570    -0.2818200
  C        1.0192140     0.0013372     0.0160684
  H       -0.6685550     0.2311640     1.4926420
  H       -1.7458480    -1.1434940    -0.8256840
  H       -1.8050530    -1.5837490     0.7705650
  H       -2.3371450     1.3649650     0.0138330
  H       -0.7761520     2.2140110    -0.0029500
  H       -1.2289870     1.1856370    -1.3693840
  H       -0.3506960    -1.7809300    -0.1207870
units angstrom
no_reorient  #important for SAPT in psi4, default
symmetry c1  #important for SAPT in psi4, default
}

set PROPERTIES_ORIGIN ["COM"]
properties('MP2/aug-cc-pvtz', properties = ['dipole'])
--------------------------------------------------------------------------

    Molecular point group: c1
  Charge       = 0
  Multiplicity = 1
  Basis Set: AUG-CC-PVTZ
    Blend: AUG-CC-PVTZ
  Basis Set: (AUG-CC-PVTZ AUX)
    Blend: AUG-CC-PVTZ-JKFIT

    Orbital Energies [Eh]
    ---------------------

    Doubly Occupied:

       1A    -20.495047     2A    -20.479403     3A    -15.703069
       4A    -11.330105     5A    -11.294055     6A    -11.243400
       7A     -1.383598     8A     -1.322576     9A     -1.287175
      10A     -1.044634    11A     -0.890138    12A     -0.797440
      13A     -0.773624    14A     -0.711488    15A     -0.669182
      16A     -0.626395    17A     -0.596900    18A     -0.575548
      19A     -0.558224    20A     -0.552372    21A     -0.524335
      22A     -0.418866    23A     -0.393449    24A     -0.369804

  @DF-RHF Final Energy:  -321.95596937377769

   => Energetics <=

    Nuclear Repulsion Energy =            249.6248828481339501
    One-Electron Energy =                -935.0800511824601244
    Two-Electron Energy =                 363.4991989605484264
    Total Energy =                       -321.9559693737776911
  Basis Set: (AUG-CC-PVTZ AUX)
    Blend: AUG-CC-PVTZ-RI
    Molecular point group: c1

    Geometry (in Angstrom), charge = 0, multiplicity = 1:

       Center              X                  Y                   Z               Mass
    ------------   -----------------  -----------------  -----------------  -----------------
         O            1.476881591570     1.071584176617     0.119252002881    15.994914619570
         O            1.182191591570    -1.160719823383    -0.269903997119    15.994914619570
         N           -1.316913408430    -1.179452823383     0.046234002881    14.003074004430
         C           -0.700791408430     0.143299176617     0.409144002881    12.000000000000
         C           -1.399395408430     1.299124176617    -0.279126997119    12.000000000000
         C            0.907065591570     0.007904376617     0.018761402881    12.000000000000
         H           -0.780703408430     0.237731176617     1.495335002881     1.007825032230
         H           -1.857996408430    -1.136926823383    -0.822990997119     1.007825032230
         H           -1.917201408430    -1.577181823383     0.773258002881     1.007825032230
         H           -2.449293408430     1.371532176617     0.016526002881     1.007825032230
         H           -0.888300408430     2.220578176617    -0.000256997119     1.007825032230
         H           -1.341135408430     1.192204176617    -1.366690997119     1.007825032230
         H           -0.462844408430    -1.774362823383    -0.118093997119     1.007825032230

  Basis Set: AUG-CC-PVTZ
    Blend: AUG-CC-PVTZ
  Basis Set: (AUG-CC-PVTZ AUX)
    Blend: AUG-CC-PVTZ-JKFIT
	 Reference Energy          =    -321.9559693737776911 [Eh]
	 Singles Energy            =      -0.0000000000000000 [Eh]
	 Same-Spin Energy          =      -0.3208187040100676 [Eh]
	 Opposite-Spin Energy      =      -1.0034673739531792 [Eh]
	 Correlation Energy        =      -1.3242860779632468 [Eh]
	 Total Energy              =    -323.2802554517409135 [Eh]

	 ================> DF-SCS-MP2 Energies <==================
	-----------------------------------------------------------
	 SCS Same-Spin Scale       =       0.3333333333333333 [-]
	 SCS Opposite-Spin Scale   =       1.2000000000000000 [-]
	 SCS Same-Spin Energy      =      -0.1069395680033559 [Eh]
	 SCS Opposite-Spin Energy  =      -1.2041608487438149 [Eh]
	 SCS Correlation Energy    =      -1.3111004167471707 [Eh]
	 SCS Total Energy          =    -323.2670697905248858 [Eh]
	-----------------------------------------------------------

  Dipole Moment: [D]
     X:    -9.0351      Y:    -2.9277      Z:     0.5951     Total:     9.5162

*** Psi4 exiting successfully. Buy a developer a beer!
