                               Psi4 1.4a3.dev225

  ==> Input File <==

--------------------------------------------------------------------------
#psi4
#
memory 32 gb

molecule  {
0 1
  O        1.5890300     1.0650170     0.1165590
  O        1.2943400    -1.1672870    -0.2725970
  N       -1.2047650    -1.1860200     0.0435410
  C       -0.5886430     0.1367320     0.4064510
  C       -1.2872470     1.2925570    -0.2818200
  C        0.9330209     0.0263706     0.0408148
  H       -0.6685550     0.2311640     1.4926420
  H       -1.7458480    -1.1434940    -0.8256840
  H       -1.8050530    -1.5837490     0.7705650
  H       -2.3371450     1.3649650     0.0138330
  H       -0.7761520     2.2140110    -0.0029500
  H       -1.2289870     1.1856370    -1.3693840
  H       -0.3506960    -1.7809300    -0.1207870
units angstrom
no_reorient  #important for SAPT in psi4, default
symmetry c1  #important for SAPT in psi4, default
}

set PROPERTIES_ORIGIN ["COM"]
properties('MP2/aug-cc-pvtz', properties = ['dipole'])
--------------------------------------------------------------------------

    Molecular point group: c1
  Charge       = 0
  Multiplicity = 1
  Basis Set: AUG-CC-PVTZ
    Blend: AUG-CC-PVTZ
  Basis Set: (AUG-CC-PVTZ AUX)
    Blend: AUG-CC-PVTZ-JKFIT

    Orbital Energies [Eh]
    ---------------------

    Doubly Occupied:

       1A    -20.485590     2A    -20.477851     3A    -15.708507
       4A    -11.327848     5A    -11.309808     6A    -11.251187
       7A     -1.367336     8A     -1.324087     9A     -1.256622
      10A     -1.059227    11A     -0.907823    12A     -0.804792
      13A     -0.777990    14A     -0.724450    15A     -0.674175
      16A     -0.628583    17A     -0.585840    18A     -0.571326
      19A     -0.561692    20A     -0.553480    21A     -0.513486
      22A     -0.405876    23A     -0.386035    24A     -0.379934

  @DF-RHF Final Energy:  -321.95603462449310

   => Energetics <=

    Nuclear Repulsion Energy =            249.7839706334138725
    One-Electron Energy =                -935.3929271997347996
    Two-Electron Energy =                 363.6529219418277989
    Total Energy =                       -321.9560346244930997
  Basis Set: (AUG-CC-PVTZ AUX)
    Blend: AUG-CC-PVTZ-RI
    Molecular point group: c1

    Geometry (in Angstrom), charge = 0, multiplicity = 1:

       Center              X                  Y                   Z               Mass
    ------------   -----------------  -----------------  -----------------  -----------------
         O            1.488496910664     1.068210693949     0.115917196122    15.994914619570
         O            1.193806910664    -1.164093306051    -0.273238803878    15.994914619570
         N           -1.305298089336    -1.182826306051     0.042899196122    14.003074004430
         C           -0.689176089336     0.139925693949     0.405809196122    12.000000000000
         C           -1.387780089336     1.295750693949    -0.282461803878    12.000000000000
         C            0.832487810664     0.029564293949     0.040172996122    12.000000000000
         H           -0.769088089336     0.234357693949     1.492000196122     1.007825032230
         H           -1.846381089336    -1.140300306051    -0.826325803878     1.007825032230
         H           -1.905586089336    -1.580555306051     0.769923196122     1.007825032230
         H           -2.437678089336     1.368158693949     0.013191196122     1.007825032230
         H           -0.876685089336     2.217204693949    -0.003591803878     1.007825032230
         H           -1.329520089336     1.188830693949    -1.370025803878     1.007825032230
         H           -0.451229089336    -1.777736306051    -0.121428803878     1.007825032230

  Basis Set: AUG-CC-PVTZ
    Blend: AUG-CC-PVTZ
  Basis Set: (AUG-CC-PVTZ AUX)
    Blend: AUG-CC-PVTZ-JKFIT
	 Reference Energy          =    -321.9560346244930997 [Eh]
	 Singles Energy            =      -0.0000000000000000 [Eh]
	 Same-Spin Energy          =      -0.3219014776565775 [Eh]
	 Opposite-Spin Energy      =      -1.0062774249490196 [Eh]
	 Correlation Energy        =      -1.3281789026055972 [Eh]
	 Total Energy              =    -323.2842135270987001 [Eh]

	 ================> DF-SCS-MP2 Energies <==================
	-----------------------------------------------------------
	 SCS Same-Spin Scale       =       0.3333333333333333 [-]
	 SCS Opposite-Spin Scale   =       1.2000000000000000 [-]
	 SCS Same-Spin Energy      =      -0.1073004925521925 [Eh]
	 SCS Opposite-Spin Energy  =      -1.2075329099388235 [Eh]
	 SCS Correlation Energy    =      -1.3148334024910160 [Eh]
	 SCS Total Energy          =    -323.2708680269840897 [Eh]
	-----------------------------------------------------------

  Dipole Moment: [D]
     X:    -9.6264      Y:    -2.6777      Z:     0.7325     Total:    10.0186

*** Psi4 exiting successfully. Buy a developer a beer!
