                               Psi4 1.3.2 release

  ==> Input File <==

--------------------------------------------------------------------------
#psi4
#
memory 32 gb

molecule  {
0 1
  O        1.5890300     1.0650170     0.1165590
  O        1.2943400    -1.1672870    -0.2725970
  N       -1.2047650    -1.1860200     0.0435410
  C       -0.5886430     0.1367320     0.4064510
  C       -1.2872470     1.2925570    -0.2818200
  C        0.9223610     0.0094930     0.0395840
  H       -0.6539353     0.2138879     1.2939266
  H       -1.7458480    -1.1434940    -0.8256840
  H       -1.8050530    -1.5837490     0.7705650
  H       -2.3371450     1.3649650     0.0138330
  H       -0.7761520     2.2140110    -0.0029500
  H       -1.2289870     1.1856370    -1.3693840
  H       -0.3506960    -1.7809300    -0.1207870
units angstrom
no_reorient  #important for SAPT in psi4, default
symmetry c1  #important for SAPT in psi4, default
}

set PROPERTIES_ORIGIN ["COM"]
properties('MP2/aug-cc-pvtz', properties = ['dipole'])
--------------------------------------------------------------------------

    Molecular point group: c1
  Charge       = 0
  Multiplicity = 1
  Basis Set: AUG-CC-PVTZ
    Blend: AUG-CC-PVTZ
  Basis Set: (AUG-CC-PVTZ AUX)
    Blend: AUG-CC-PVTZ-JKFIT

    Orbital Energies [Eh]
    ---------------------

    Doubly Occupied:

       1A    -20.489319     2A    -20.473325     3A    -15.708949
       4A    -11.327383     5A    -11.287886     6A    -11.250660
       7A     -1.368317     8A     -1.321964     9A     -1.254966
      10A     -1.073362    11A     -0.925657    12A     -0.815464
      13A     -0.779450    14A     -0.725157    15A     -0.698105
      16A     -0.632395    17A     -0.583363    18A     -0.572254
      19A     -0.563412    20A     -0.558645    21A     -0.517893
      22A     -0.407150    23A     -0.384699    24A     -0.377380

  @DF-RHF Final Energy:  -321.92158460785254

   => Energetics <=

    Nuclear Repulsion Energy =            250.9804668675804464
    One-Electron Energy =                -937.6097893106401671
    Two-Electron Energy =                 364.7077378352071264
    Total Energy =                       -321.9215846078525374
  Basis Set: (AUG-CC-PVTZ AUX)
    Blend: AUG-CC-PVTZ-RI
    Molecular point group: c1

    Geometry (in Angstrom), charge = 0, multiplicity = 1:

       Center              X                  Y                   Z               Mass
    ------------   -----------------  -----------------  -----------------  -----------------
         O            1.489767967948     1.070680634657     0.118332081699    15.994914619570
         O            1.195077967948    -1.161623365343    -0.270823918301    15.994914619570
         N           -1.304027032052    -1.180356365343     0.045314081699    14.003074004430
         C           -0.687905032052     0.142395634657     0.408224081699    12.000000000000
         C           -1.386509032052     1.298220634657    -0.280046918301    12.000000000000
         C            0.823098967948     0.015156634657     0.041357081699    12.000000000000
         H           -0.753197332052     0.219551534657     1.295699681699     1.007825032230
         H           -1.845110032052    -1.137830365343    -0.823910918301     1.007825032230
         H           -1.904315032052    -1.578085365343     0.772338081699     1.007825032230
         H           -2.436407032052     1.370628634657     0.015606081699     1.007825032230
         H           -0.875414032052     2.219674634657    -0.001176918301     1.007825032230
         H           -1.328249032052     1.191300634657    -1.367610918301     1.007825032230
         H           -0.449958032052    -1.775266365343    -0.119013918301     1.007825032230

  Basis Set: AUG-CC-PVTZ
    Blend: AUG-CC-PVTZ
  Basis Set: (AUG-CC-PVTZ AUX)
    Blend: AUG-CC-PVTZ-JKFIT
	 Reference Energy          =    -321.9215846078525374 [Eh]
	 Singles Energy            =      -0.0000000000000000 [Eh]
	 Same-Spin Energy          =      -0.3220021423311927 [Eh]
	 Opposite-Spin Energy      =      -1.0060090461927835 [Eh]
	 Correlation Energy        =      -1.3280111885239763 [Eh]
	 Total Energy              =    -323.2495957963765250 [Eh]

	 ================> DF-SCS-MP2 Energies <==================
	-----------------------------------------------------------
	 SCS Same-Spin Scale       =       0.3333333333333333 [-]
	 SCS Opposite-Spin Scale   =       1.2000000000000000 [-]
	 SCS Same-Spin Energy      =      -0.1073340474437309 [Eh]
	 SCS Opposite-Spin Energy  =      -1.2072108554313401 [Eh]
	 SCS Correlation Energy    =      -1.3145449028750711 [Eh]
	 SCS Total Energy          =    -323.2361295107276078 [Eh]
	-----------------------------------------------------------

  Dipole Moment: [D]
     X:    -9.7197      Y:    -2.8513      Z:     0.7310     Total:    10.1557

*** Psi4 exiting successfully. Buy a developer a beer!
