                               Psi4 1.4a3.dev225

  ==> Input File <==

--------------------------------------------------------------------------
#psi4
#
memory 32 gb

molecule  {
0 1
  O        1.5890300     1.0650170     0.1165590
  O        1.2943400    -1.1672870    -0.2725970
  N       -1.2047650    -1.1860200     0.0435410
  C       -0.5886430     0.1367320     0.4064510
  C       -1.2872470     1.2925570    -0.2818200
  C        0.9223610     0.0094930     0.0395840
  H       -0.6722099     0.2354830     1.5423208
  H       -1.7458480    -1.1434940    -0.8256840
  H       -1.8050530    -1.5837490     0.7705650
  H       -2.3371450     1.3649650     0.0138330
  H       -0.7761520     2.2140110    -0.0029500
  H       -1.2289870     1.1856370    -1.3693840
  H       -0.3506960    -1.7809300    -0.1207870
units angstrom
no_reorient  #important for SAPT in psi4, default
symmetry c1  #important for SAPT in psi4, default
}

set PROPERTIES_ORIGIN ["COM"]
properties('MP2/aug-cc-pvtz', properties = ['dipole'])
--------------------------------------------------------------------------

    Molecular point group: c1
  Charge       = 0
  Multiplicity = 1
  Basis Set: AUG-CC-PVTZ
    Blend: AUG-CC-PVTZ
  Basis Set: (AUG-CC-PVTZ AUX)
    Blend: AUG-CC-PVTZ-JKFIT

    Orbital Energies [Eh]
    ---------------------

    Doubly Occupied:

       1A    -20.489798     2A    -20.473162     3A    -15.710087
       4A    -11.328377     5A    -11.316906     6A    -11.252078
       7A     -1.367561     8A     -1.321656     9A     -1.254941
      10A     -1.058454    11A     -0.907756    12A     -0.805009
      13A     -0.779725    14A     -0.725222    15A     -0.670965
      16A     -0.627681    17A     -0.583329    18A     -0.571668
      19A     -0.561413    20A     -0.551436    21A     -0.510293
      22A     -0.407428    23A     -0.385078    24A     -0.377433

  @DF-RHF Final Energy:  -321.95289944107276

   => Energetics <=

    Nuclear Repulsion Energy =            249.5644268946754778
    One-Electron Energy =                -934.9597415018621405
    Two-Electron Energy =                 363.4424151661139604
    Total Energy =                       -321.9528994410727591
  Basis Set: (AUG-CC-PVTZ AUX)
    Blend: AUG-CC-PVTZ-RI
    Molecular point group: c1

    Geometry (in Angstrom), charge = 0, multiplicity = 1:

       Center              X                  Y                   Z               Mass
    ------------   -----------------  -----------------  -----------------  -----------------
         O            1.489974796466     1.070436225339     0.115520802428    15.994914619570
         O            1.195284796466    -1.161867774661    -0.273635197572    15.994914619570
         N           -1.303820203534    -1.180600774661     0.042502802428    14.003074004430
         C           -0.687698203534     0.142151225339     0.405412802428    12.000000000000
         C           -1.386302203534     1.297976225339    -0.282858197572    12.000000000000
         C            0.823305796466     0.014912225339     0.038545802428    12.000000000000
         H           -0.771265103534     0.240902225339     1.541282602428     1.007825032230
         H           -1.844903203534    -1.138074774661    -0.826722197572     1.007825032230
         H           -1.904108203534    -1.578329774661     0.769526802428     1.007825032230
         H           -2.436200203534     1.370384225339     0.012794802428     1.007825032230
         H           -0.875207203534     2.219430225339    -0.003988197572     1.007825032230
         H           -1.328042203534     1.191056225339    -1.370422197572     1.007825032230
         H           -0.449751203534    -1.775510774661    -0.121825197572     1.007825032230

  Basis Set: AUG-CC-PVTZ
    Blend: AUG-CC-PVTZ
  Basis Set: (AUG-CC-PVTZ AUX)
    Blend: AUG-CC-PVTZ-JKFIT
	 Reference Energy          =    -321.9528994410727591 [Eh]
	 Singles Energy            =      -0.0000000000000000 [Eh]
	 Same-Spin Energy          =      -0.3221970627693794 [Eh]
	 Opposite-Spin Energy      =      -1.0071197463622075 [Eh]
	 Correlation Energy        =      -1.3293168091315870 [Eh]
	 Total Energy              =    -323.2822162502043284 [Eh]

	 ================> DF-SCS-MP2 Energies <==================
	-----------------------------------------------------------
	 SCS Same-Spin Scale       =       0.3333333333333333 [-]
	 SCS Opposite-Spin Scale   =       1.2000000000000000 [-]
	 SCS Same-Spin Energy      =      -0.1073990209231265 [Eh]
	 SCS Opposite-Spin Energy  =      -1.2085436956346489 [Eh]
	 SCS Correlation Energy    =      -1.3159427165577753 [Eh]
	 SCS Total Energy          =    -323.2688421576305586 [Eh]
	-----------------------------------------------------------

  Dipole Moment: [D]
     X:    -9.7051      Y:    -2.8292      Z:     0.6996     Total:    10.1333

*** Psi4 exiting successfully. Buy a developer a beer!
