                               Psi4 1.4a3.dev225

  ==> Input File <==

--------------------------------------------------------------------------
#psi4
#
memory 32 gb

molecule  {
0 1
  O        1.5890300     1.0650170     0.1165590
  O        1.2943400    -1.1672870    -0.2725970
  N       -1.2047650    -1.1860200     0.0435410
  C       -0.5886430     0.1367320     0.4064510
  C       -1.2872470     1.2925570    -0.2818200
  C        0.9417316     0.0078618     0.0348809
  H       -0.6685550     0.2311640     1.4926420
  H       -1.7458480    -1.1434940    -0.8256840
  H       -1.8050530    -1.5837490     0.7705650
  H       -2.3371450     1.3649650     0.0138330
  H       -0.7761520     2.2140110    -0.0029500
  H       -1.2289870     1.1856370    -1.3693840
  H       -0.3506960    -1.7809300    -0.1207870
units angstrom
no_reorient  #important for SAPT in psi4, default
symmetry c1  #important for SAPT in psi4, default
}

set PROPERTIES_ORIGIN ["COM"]
properties('MP2/aug-cc-pvtz', properties = ['dipole'])
--------------------------------------------------------------------------

    Molecular point group: c1
  Charge       = 0
  Multiplicity = 1
  Basis Set: AUG-CC-PVTZ
    Blend: AUG-CC-PVTZ
  Basis Set: (AUG-CC-PVTZ AUX)
    Blend: AUG-CC-PVTZ-JKFIT

    Orbital Energies [Eh]
    ---------------------

    Doubly Occupied:

       1A    -20.490368     2A    -20.473995     3A    -15.708514
       4A    -11.328060     5A    -11.308406     6A    -11.250136
       7A     -1.369965     8A     -1.322456     9A     -1.261299
      10A     -1.057070    11A     -0.906072    12A     -0.804902
      13A     -0.778453    14A     -0.721913    15A     -0.674326
      16A     -0.628536    17A     -0.584633    18A     -0.572465
      19A     -0.561202    20A     -0.553267    21A     -0.515772
      22A     -0.408580    23A     -0.383398    24A     -0.380332

  @DF-RHF Final Energy:  -321.95684551530621

   => Energetics <=

    Nuclear Repulsion Energy =            249.7786752706105631
    One-Electron Energy =                -935.3828051831491166
    Two-Electron Energy =                 363.6472843972323972
    Total Energy =                       -321.9568455153062132
  Basis Set: (AUG-CC-PVTZ AUX)
    Blend: AUG-CC-PVTZ-RI
    Molecular point group: c1

    Geometry (in Angstrom), charge = 0, multiplicity = 1:

       Center              X                  Y                   Z               Mass
    ------------   -----------------  -----------------  -----------------  -----------------
         O            1.487323063105     1.070704926295     0.116716844145    15.994914619570
         O            1.192633063105    -1.161599073705    -0.272439155855    15.994914619570
         N           -1.306471936895    -1.180332073705     0.043698844145    14.003074004430
         C           -0.690349936895     0.142419926295     0.406608844145    12.000000000000
         C           -1.388953936895     1.298244926295    -0.281662155855    12.000000000000
         C            0.840024663105     0.013549726295     0.035038744145    12.000000000000
         H           -0.770261936895     0.236851926295     1.492799844145     1.007825032230
         H           -1.847554936895    -1.137806073705    -0.825526155855     1.007825032230
         H           -1.906759936895    -1.578061073705     0.770722844145     1.007825032230
         H           -2.438851936895     1.370652926295     0.013990844145     1.007825032230
         H           -0.877858936895     2.219698926295    -0.002792155855     1.007825032230
         H           -1.330693936895     1.191324926295    -1.369226155855     1.007825032230
         H           -0.452402936895    -1.775242073705    -0.120629155855     1.007825032230

  Basis Set: AUG-CC-PVTZ
    Blend: AUG-CC-PVTZ
  Basis Set: (AUG-CC-PVTZ AUX)
    Blend: AUG-CC-PVTZ-JKFIT
	 Reference Energy          =    -321.9568455153062132 [Eh]
	 Singles Energy            =      -0.0000000000000000 [Eh]
	 Same-Spin Energy          =      -0.3217697121351545 [Eh]
	 Opposite-Spin Energy      =      -1.0058957703790472 [Eh]
	 Correlation Energy        =      -1.3276654825142016 [Eh]
	 Total Energy              =    -323.2845109978204050 [Eh]

	 ================> DF-SCS-MP2 Energies <==================
	-----------------------------------------------------------
	 SCS Same-Spin Scale       =       0.3333333333333333 [-]
	 SCS Opposite-Spin Scale   =       1.2000000000000000 [-]
	 SCS Same-Spin Energy      =      -0.1072565707117182 [Eh]
	 SCS Opposite-Spin Energy  =      -1.2070749244548566 [Eh]
	 SCS Correlation Energy    =      -1.3143314951665748 [Eh]
	 SCS Total Energy          =    -323.2711770104727975 [Eh]
	-----------------------------------------------------------

  Dipole Moment: [D]
     X:    -9.5914      Y:    -2.8518      Z:     0.6925     Total:    10.0304

*** Psi4 exiting successfully. Buy a developer a beer!
