                               Psi4 1.3.2 release

  ==> Input File <==

--------------------------------------------------------------------------
#psi4
#
memory 32 gb

molecule  {
0 1
  O        1.5890300     1.0650170     0.1165590
  O        1.2943400    -1.1672870    -0.2725970
  N       -1.2047650    -1.1860200     0.0435410
  C       -0.5886430     0.1367320     0.4064510
  C       -1.2872470     1.2925570    -0.2818200
  C        0.9515807    -0.0829454     0.0150616
  H       -0.6685550     0.2311640     1.4926420
  H       -1.7458480    -1.1434940    -0.8256840
  H       -1.8050530    -1.5837490     0.7705650
  H       -2.3371450     1.3649650     0.0138330
  H       -0.7761520     2.2140110    -0.0029500
  H       -1.2289870     1.1856370    -1.3693840
  H       -0.3506960    -1.7809300    -0.1207870
units angstrom
no_reorient  #important for SAPT in psi4, default
symmetry c1  #important for SAPT in psi4, default
}

set PROPERTIES_ORIGIN ["COM"]
properties('MP2/aug-cc-pvtz', properties = ['dipole'])
--------------------------------------------------------------------------

    Molecular point group: c1
  Charge       = 0
  Multiplicity = 1
  Basis Set: AUG-CC-PVTZ
    Blend: AUG-CC-PVTZ
  Basis Set: (AUG-CC-PVTZ AUX)
    Blend: AUG-CC-PVTZ-JKFIT

    Orbital Energies [Eh]
    ---------------------

    Doubly Occupied:

       1A    -20.513571     2A    -20.452685     3A    -15.710736
       4A    -11.326938     5A    -11.306031     6A    -11.247346
       7A     -1.411753     8A     -1.328545     9A     -1.233538
      10A     -1.051515    11A     -0.904431    12A     -0.809116
      13A     -0.782834    14A     -0.718627    15A     -0.678545
      16A     -0.634474    17A     -0.585562    18A     -0.575431
      19A     -0.564120    20A     -0.553629    21A     -0.529873
      22A     -0.409611    23A     -0.368843    24A     -0.366674

  @DF-RHF Final Energy:  -321.94060169537306

   => Energetics <=

    Nuclear Repulsion Energy =            249.9785014805324295
    One-Electron Energy =                -935.7093505381445766
    Two-Electron Energy =                 363.7902473622391426
    Total Energy =                       -321.9406016953730614
  Basis Set: (AUG-CC-PVTZ AUX)
    Blend: AUG-CC-PVTZ-RI
    Molecular point group: c1

    Geometry (in Angstrom), charge = 0, multiplicity = 1:

       Center              X                  Y                   Z               Mass
    ------------   -----------------  -----------------  -----------------  -----------------
         O            1.485995805595     1.082942038129     0.119387678512    15.994914619570
         O            1.191305805595    -1.149361961871    -0.269768321488    15.994914619570
         N           -1.307799194405    -1.168094961871     0.046369678512    14.003074004430
         C           -0.691677194405     0.154657038129     0.409279678512    12.000000000000
         C           -1.390281194405     1.310482038129    -0.278991321488    12.000000000000
         C            0.848546505595    -0.065020361871     0.017890278512    12.000000000000
         H           -0.771589194405     0.249089038129     1.495470678512     1.007825032230
         H           -1.848882194405    -1.125568961871    -0.822855321488     1.007825032230
         H           -1.908087194405    -1.565823961871     0.773393678512     1.007825032230
         H           -2.440179194405     1.382890038129     0.016661678512     1.007825032230
         H           -0.879186194405     2.231936038129    -0.000121321488     1.007825032230
         H           -1.332021194405     1.203562038129    -1.366555321488     1.007825032230
         H           -0.453730194405    -1.763004961871    -0.117958321488     1.007825032230

  Basis Set: AUG-CC-PVTZ
    Blend: AUG-CC-PVTZ
  Basis Set: (AUG-CC-PVTZ AUX)
    Blend: AUG-CC-PVTZ-JKFIT
	 Reference Energy          =    -321.9406016953730614 [Eh]
	 Singles Energy            =      -0.0000000000000000 [Eh]
	 Same-Spin Energy          =      -0.3215496508650081 [Eh]
	 Opposite-Spin Energy      =      -1.0052456296871770 [Eh]
	 Correlation Energy        =      -1.3267952805521852 [Eh]
	 Total Energy              =    -323.2673969759252373 [Eh]

	 ================> DF-SCS-MP2 Energies <==================
	-----------------------------------------------------------
	 SCS Same-Spin Scale       =       0.3333333333333333 [-]
	 SCS Opposite-Spin Scale   =       1.2000000000000000 [-]
	 SCS Same-Spin Energy      =      -0.1071832169550027 [Eh]
	 SCS Opposite-Spin Energy  =      -1.2062947556246124 [Eh]
	 SCS Correlation Energy    =      -1.3134779725796151 [Eh]
	 SCS Total Energy          =    -323.2540796679526807 [Eh]
	-----------------------------------------------------------

  Dipole Moment: [D]
     X:    -9.6227      Y:    -3.7139      Z:     0.5266     Total:    10.3280

*** Psi4 exiting successfully. Buy a developer a beer!
