                               Psi4 1.3.2 release

  ==> Input File <==

--------------------------------------------------------------------------
#psi4
#
memory 32 gb

molecule  {
0 1
  O        1.6580350    -0.9827140     0.3821500
  O       -0.8249020    -1.8470020    -0.1920140
  N       -1.7073370     0.2644950     0.0041840
  N        1.2225400     1.0581630    -0.4400630
  C       -0.6757910    -0.6248990    -0.0657590
  C       -1.6242400     1.6701930     0.3734340
  C       -3.0587270    -0.2617480    -0.1203800
  C        0.7172609    -0.0767870    -0.1285100
  C        2.8466160    -0.3331830     0.2236370
  C        2.5869190     0.9090560    -0.2781450
  H       -2.0624300     2.2861190    -0.4188050
  H       -0.5911340     1.9718700     0.5118620
  H       -2.1906170     1.8355680     1.2974120
  H       -3.5636440    -0.2611770     0.8526080
  H       -3.0040100    -1.2812060    -0.4966650
  H       -3.6263720     0.3669880    -0.8129620
  H        3.7338670    -0.8757360     0.5106220
  H        3.2804870     1.6963590    -0.5371020
units angstrom
no_reorient  #important for SAPT in psi4, default
symmetry c1  #important for SAPT in psi4, default
}

set PROPERTIES_ORIGIN ["COM"]
properties('MP2/aug-cc-pvtz', properties = ['dipole'])
--------------------------------------------------------------------------

    Molecular point group: c1
  Charge       = 0
  Multiplicity = 1
  Basis Set: AUG-CC-PVTZ
    Blend: AUG-CC-PVTZ
  Basis Set: (AUG-CC-PVTZ AUX)
    Blend: AUG-CC-PVTZ-JKFIT

    Orbital Energies [Eh]
    ---------------------

    Doubly Occupied:

       1A    -20.645689     2A    -20.528189     3A    -15.602372
       4A    -15.591735     5A    -11.374631     6A    -11.354522
       7A    -11.313207     8A    -11.275712     9A    -11.267368
      10A    -11.259730    11A     -1.484395    12A     -1.382318
      13A     -1.265318    14A     -1.248806    15A     -1.054941
      16A     -0.977858    17A     -0.959456    18A     -0.863350
      19A     -0.844023    20A     -0.776438    21A     -0.727356
      22A     -0.677446    23A     -0.666375    24A     -0.660515
      25A     -0.649572    26A     -0.623377    27A     -0.587617
      28A     -0.581455    29A     -0.569047    30A     -0.562532
      31A     -0.542064    32A     -0.534220    33A     -0.483868
      34A     -0.470687    35A     -0.440582    36A     -0.380910
      37A     -0.352599

  @DF-RHF Final Energy:  -490.63374855007686

   => Energetics <=

    Nuclear Repulsion Energy =            528.2021510357272973
    One-Electron Energy =               -1716.5112412251037313
    Two-Electron Energy =                 697.6753416392996314
    Total Energy =                       -490.6337485500769162
  Basis Set: (AUG-CC-PVTZ AUX)
    Blend: AUG-CC-PVTZ-RI
    Molecular point group: c1

    Geometry (in Angstrom), charge = 0, multiplicity = 1:

       Center              X                  Y                   Z               Mass
    ------------   -----------------  -----------------  -----------------  -----------------
         O            1.601236923317    -0.942984103534     0.397122633420    15.994914619570
         O           -0.881700076683    -1.807272103534    -0.177041366580    15.994914619570
         N           -1.764135076683     0.304224896466     0.019156633420    14.003074004430
         N            1.165741923317     1.097892896466    -0.425090366580    14.003074004430
         C           -0.732589076683    -0.585169103534    -0.050786366580    12.000000000000
         C           -1.681038076683     1.709922896466     0.388406633420    12.000000000000
         C           -3.115525076683    -0.222018103534    -0.105407366580    12.000000000000
         C            0.660462823317    -0.037057103534    -0.113537366580    12.000000000000
         C            2.789817923317    -0.293453103534     0.238609633420    12.000000000000
         C            2.530120923317     0.948785896466    -0.263172366580    12.000000000000
         H           -2.119228076683     2.325848896466    -0.403832366580     1.007825032230
         H           -0.647932076683     2.011599896466     0.526834633420     1.007825032230
         H           -2.247415076683     1.875297896466     1.312384633420     1.007825032230
         H           -3.620442076683    -0.221447103534     0.867580633420     1.007825032230
         H           -3.060808076683    -1.241476103534    -0.481692366580     1.007825032230
         H           -3.683170076683     0.406717896466    -0.797989366580     1.007825032230
         H            3.677068923317    -0.836006103534     0.525594633420     1.007825032230
         H            3.223688923317     1.736088896466    -0.522129366580     1.007825032230

  Basis Set: AUG-CC-PVTZ
    Blend: AUG-CC-PVTZ
  Basis Set: (AUG-CC-PVTZ AUX)
    Blend: AUG-CC-PVTZ-JKFIT
	 Reference Energy          =    -490.6337485500768594 [Eh]
	 Singles Energy            =      -0.0000000000000000 [Eh]
	 Same-Spin Energy          =      -0.5060869928759244 [Eh]
	 Opposite-Spin Energy      =      -1.5498620236857490 [Eh]
	 Correlation Energy        =      -2.0559490165616734 [Eh]
	 Total Energy              =    -492.6896975666385288 [Eh]

	 ================> DF-SCS-MP2 Energies <==================
	-----------------------------------------------------------
	 SCS Same-Spin Scale       =       0.3333333333333333 [-]
	 SCS Opposite-Spin Scale   =       1.2000000000000000 [-]
	 SCS Same-Spin Energy      =      -0.1686956642919748 [Eh]
	 SCS Opposite-Spin Energy  =      -1.8598344284228987 [Eh]
	 SCS Correlation Energy    =      -2.0285300927148735 [Eh]
	 SCS Total Energy          =    -492.6622786427917049 [Eh]
	-----------------------------------------------------------

  Dipole Moment: [D]
     X:     0.2645      Y:     2.8574      Z:     0.8487     Total:     2.9925

*** Psi4 exiting successfully. Buy a developer a beer!
