                               Psi4 1.3.2 release

  ==> Input File <==

--------------------------------------------------------------------------
#psi4
#
memory 32 gb

molecule  {
0 1
  O        1.6580350    -0.9827140     0.3821500
  O       -0.8249020    -1.8470020    -0.1920140
  N       -1.7073370     0.2644950     0.0041840
  N        1.2225400     1.0581630    -0.4400630
  C       -0.6757910    -0.6248990    -0.0657590
  C       -1.6242400     1.6701930     0.3734340
  C       -3.0587270    -0.2617480    -0.1203800
  C        0.7172729    -0.0814080    -0.0787240
  C        2.8466160    -0.3331830     0.2236370
  C        2.5869190     0.9090560    -0.2781450
  H       -2.0624300     2.2861190    -0.4188050
  H       -0.5911340     1.9718700     0.5118620
  H       -2.1906170     1.8355680     1.2974120
  H       -3.5636440    -0.2611770     0.8526080
  H       -3.0040100    -1.2812060    -0.4966650
  H       -3.6263720     0.3669880    -0.8129620
  H        3.7338670    -0.8757360     0.5106220
  H        3.2804870     1.6963590    -0.5371020
units angstrom
no_reorient  #important for SAPT in psi4, default
symmetry c1  #important for SAPT in psi4, default
}

set PROPERTIES_ORIGIN ["COM"]
properties('MP2/aug-cc-pvtz', properties = ['dipole'])
--------------------------------------------------------------------------

    Molecular point group: c1
  Charge       = 0
  Multiplicity = 1
  Basis Set: AUG-CC-PVTZ
    Blend: AUG-CC-PVTZ
  Basis Set: (AUG-CC-PVTZ AUX)
    Blend: AUG-CC-PVTZ-JKFIT

    Orbital Energies [Eh]
    ---------------------

    Doubly Occupied:

       1A    -20.649759     2A    -20.528034     3A    -15.602203
       4A    -15.591601     5A    -11.374355     6A    -11.355377
       7A    -11.312760     8A    -11.276400     9A    -11.266933
      10A    -11.259578    11A     -1.491514    12A     -1.382452
      13A     -1.262315    14A     -1.246300    15A     -1.056425
      16A     -0.977613    17A     -0.959350    18A     -0.864841
      19A     -0.844064    20A     -0.778803    21A     -0.727369
      22A     -0.679804    23A     -0.666946    24A     -0.660488
      25A     -0.650938    26A     -0.622892    27A     -0.586896
      28A     -0.584786    29A     -0.568124    30A     -0.562314
      31A     -0.541889    32A     -0.534876    33A     -0.482770
      34A     -0.468186    35A     -0.441356    36A     -0.380742
      37A     -0.351975

  @DF-RHF Final Energy:  -490.63654478812464

   => Energetics <=

    Nuclear Repulsion Energy =            528.3030577593877979
    One-Electron Energy =               -1716.6931440522694174
    Two-Electron Energy =                 697.7535415047570950
    Total Energy =                       -490.6365447881246382
  Basis Set: (AUG-CC-PVTZ AUX)
    Blend: AUG-CC-PVTZ-RI
    Molecular point group: c1

    Geometry (in Angstrom), charge = 0, multiplicity = 1:

       Center              X                  Y                   Z               Mass
    ------------   -----------------  -----------------  -----------------  -----------------
         O            1.601235895176    -0.942588183477     0.392857046759    15.994914619570
         O           -0.881701104824    -1.806876183477    -0.181306953241    15.994914619570
         N           -1.764136104824     0.304620816523     0.014891046759    14.003074004430
         N            1.165740895176     1.098288816523    -0.429355953241    14.003074004430
         C           -0.732590104824    -0.584773183477    -0.055051953241    12.000000000000
         C           -1.681039104824     1.710318816523     0.384141046759    12.000000000000
         C           -3.115526104824    -0.221622183477    -0.109672953241    12.000000000000
         C            0.660473795176    -0.041282183477    -0.068016953241    12.000000000000
         C            2.789816895176    -0.293057183477     0.234344046759    12.000000000000
         C            2.530119895176     0.949181816523    -0.267437953241    12.000000000000
         H           -2.119229104824     2.326244816523    -0.408097953241     1.007825032230
         H           -0.647933104824     2.011995816523     0.522569046759     1.007825032230
         H           -2.247416104824     1.875693816523     1.308119046759     1.007825032230
         H           -3.620443104824    -0.221051183477     0.863315046759     1.007825032230
         H           -3.060809104824    -1.241080183477    -0.485957953241     1.007825032230
         H           -3.683171104824     0.407113816523    -0.802254953241     1.007825032230
         H            3.677067895176    -0.835610183477     0.521329046759     1.007825032230
         H            3.223687895176     1.736484816523    -0.526394953241     1.007825032230

  Basis Set: AUG-CC-PVTZ
    Blend: AUG-CC-PVTZ
  Basis Set: (AUG-CC-PVTZ AUX)
    Blend: AUG-CC-PVTZ-JKFIT
	 Reference Energy          =    -490.6365447881246382 [Eh]
	 Singles Energy            =      -0.0000000000000000 [Eh]
	 Same-Spin Energy          =      -0.5062648030731688 [Eh]
	 Opposite-Spin Energy      =      -1.5498335903312019 [Eh]
	 Correlation Energy        =      -2.0560983934043708 [Eh]
	 Total Energy              =    -492.6926431815290357 [Eh]

	 ================> DF-SCS-MP2 Energies <==================
	-----------------------------------------------------------
	 SCS Same-Spin Scale       =       0.3333333333333333 [-]
	 SCS Opposite-Spin Scale   =       1.2000000000000000 [-]
	 SCS Same-Spin Energy      =      -0.1687549343577229 [Eh]
	 SCS Opposite-Spin Energy  =      -1.8598003083974421 [Eh]
	 SCS Correlation Energy    =      -2.0285552427551652 [Eh]
	 SCS Total Energy          =    -492.6651000308797848 [Eh]
	-----------------------------------------------------------

  Dipole Moment: [D]
     X:     0.3155      Y:     2.8143      Z:     0.9041     Total:     2.9728

*** Psi4 exiting successfully. Buy a developer a beer!
