                               Psi4 1.3.2 release

  ==> Input File <==

--------------------------------------------------------------------------
#psi4
#
memory 32 gb

molecule  {
0 1
  O        1.6580350    -0.9827140     0.3821500
  O       -0.8249020    -1.8470020    -0.1920140
  N       -1.7073370     0.2644950     0.0041840
  N        1.2225400     1.0581630    -0.4400630
  C       -0.6757910    -0.6248990    -0.0657590
  C       -1.6242400     1.6701930     0.3734340
  C       -3.0587270    -0.2617480    -0.1203800
  C        0.7172488    -0.0721659    -0.1782960
  C        2.8466160    -0.3331830     0.2236370
  C        2.5869190     0.9090560    -0.2781450
  H       -2.0624300     2.2861190    -0.4188050
  H       -0.5911340     1.9718700     0.5118620
  H       -2.1906170     1.8355680     1.2974120
  H       -3.5636440    -0.2611770     0.8526080
  H       -3.0040100    -1.2812060    -0.4966650
  H       -3.6263720     0.3669880    -0.8129620
  H        3.7338670    -0.8757360     0.5106220
  H        3.2804870     1.6963590    -0.5371020
units angstrom
no_reorient  #important for SAPT in psi4, default
symmetry c1  #important for SAPT in psi4, default
}

set PROPERTIES_ORIGIN ["COM"]
properties('MP2/aug-cc-pvtz', properties = ['dipole'])
--------------------------------------------------------------------------

    Molecular point group: c1
  Charge       = 0
  Multiplicity = 1
  Basis Set: AUG-CC-PVTZ
    Blend: AUG-CC-PVTZ
  Basis Set: (AUG-CC-PVTZ AUX)
    Blend: AUG-CC-PVTZ-JKFIT

    Orbital Energies [Eh]
    ---------------------

    Doubly Occupied:

       1A    -20.641454     2A    -20.528294     3A    -15.602472
       4A    -15.592262     5A    -11.375023     6A    -11.353811
       7A    -11.313748     8A    -11.275085     9A    -11.267771
      10A    -11.259856    11A     -1.477238    12A     -1.382080
      13A     -1.268736    14A     -1.250442    15A     -1.053351
      16A     -0.978073    17A     -0.959453    18A     -0.861444
      19A     -0.843836    20A     -0.773944    21A     -0.727248
      22A     -0.675417    23A     -0.665818    24A     -0.660464
      25A     -0.647863    26A     -0.623477    27A     -0.588330
      28A     -0.577765    29A     -0.569866    30A     -0.562719
      31A     -0.542224    32A     -0.533252    33A     -0.485247
      34A     -0.472550    35A     -0.439627    36A     -0.381039
      37A     -0.353051

  @DF-RHF Final Energy:  -490.62856751042358

   => Energetics <=

    Nuclear Repulsion Energy =            528.0367838166725960
    One-Electron Energy =               -1716.2020428211360468
    Two-Electron Energy =                 697.5366914940398146
    Total Energy =                       -490.6285675104236361
  Basis Set: (AUG-CC-PVTZ AUX)
    Blend: AUG-CC-PVTZ-RI
    Molecular point group: c1

    Geometry (in Angstrom), charge = 0, multiplicity = 1:

       Center              X                  Y                   Z               Mass
    ------------   -----------------  -----------------  -----------------  -----------------
         O            1.601237960026    -0.943380032159     0.401388220082    15.994914619570
         O           -0.881699039974    -1.807668032159    -0.172775779918    15.994914619570
         N           -1.764134039974     0.303828967841     0.023422220082    14.003074004430
         N            1.165742960026     1.097496967841    -0.420824779918    14.003074004430
         C           -0.732588039974    -0.585565032159    -0.046520779918    12.000000000000
         C           -1.681037039974     1.709526967841     0.392672220082    12.000000000000
         C           -3.115524039974    -0.222414032159    -0.101141779918    12.000000000000
         C            0.660451760026    -0.032831932159    -0.159057779918    12.000000000000
         C            2.789818960026    -0.293849032159     0.242875220082    12.000000000000
         C            2.530121960026     0.948389967841    -0.258906779918    12.000000000000
         H           -2.119227039974     2.325452967841    -0.399566779918     1.007825032230
         H           -0.647931039974     2.011203967841     0.531100220082     1.007825032230
         H           -2.247414039974     1.874901967841     1.316650220082     1.007825032230
         H           -3.620441039974    -0.221843032159     0.871846220082     1.007825032230
         H           -3.060807039974    -1.241872032159    -0.477426779918     1.007825032230
         H           -3.683169039974     0.406321967841    -0.793723779918     1.007825032230
         H            3.677069960026    -0.836402032159     0.529860220082     1.007825032230
         H            3.223689960026     1.735692967841    -0.517863779918     1.007825032230

  Basis Set: AUG-CC-PVTZ
    Blend: AUG-CC-PVTZ
  Basis Set: (AUG-CC-PVTZ AUX)
    Blend: AUG-CC-PVTZ-JKFIT
	 Reference Energy          =    -490.6285675104235793 [Eh]
	 Singles Energy            =      -0.0000000000000000 [Eh]
	 Same-Spin Energy          =      -0.5060487952449022 [Eh]
	 Opposite-Spin Energy      =      -1.5501831792356000 [Eh]
	 Correlation Energy        =      -2.0562319744805020 [Eh]
	 Total Energy              =    -492.6847994849040901 [Eh]

	 ================> DF-SCS-MP2 Energies <==================
	-----------------------------------------------------------
	 SCS Same-Spin Scale       =       0.3333333333333333 [-]
	 SCS Opposite-Spin Scale   =       1.2000000000000000 [-]
	 SCS Same-Spin Energy      =      -0.1686829317483007 [Eh]
	 SCS Opposite-Spin Energy  =      -1.8602198150827198 [Eh]
	 SCS Correlation Energy    =      -2.0289027468310206 [Eh]
	 SCS Total Energy          =    -492.6574702572546016 [Eh]
	-----------------------------------------------------------

  Dipole Moment: [D]
     X:     0.2203      Y:     2.9037      Z:     0.7903     Total:     3.0174

*** Psi4 exiting successfully. Buy a developer a beer!
