                               Psi4 1.3.2 release

  ==> Input File <==

--------------------------------------------------------------------------
#psi4
#
memory 32 gb

molecule  {
0 1
  O        1.6580350    -0.9827140     0.3821500
  O       -0.8249020    -1.8470020    -0.1920140
  N       -1.7073370     0.2644950     0.0041840
  N        1.2225400     1.0581630    -0.4400630
  C       -0.6820427    -0.6075148    -0.0192971
  C       -1.6242400     1.6701930     0.3734340
  C       -3.0587270    -0.2617480    -0.1203800
  C        0.7172850    -0.0860290    -0.0289380
  C        2.8466160    -0.3331830     0.2236370
  C        2.5869190     0.9090560    -0.2781450
  H       -2.0624300     2.2861190    -0.4188050
  H       -0.5911340     1.9718700     0.5118620
  H       -2.1906170     1.8355680     1.2974120
  H       -3.5636440    -0.2611770     0.8526080
  H       -3.0040100    -1.2812060    -0.4966650
  H       -3.6263720     0.3669880    -0.8129620
  H        3.7338670    -0.8757360     0.5106220
  H        3.2804870     1.6963590    -0.5371020
units angstrom
no_reorient  #important for SAPT in psi4, default
symmetry c1  #important for SAPT in psi4, default
}

set PROPERTIES_ORIGIN ["COM"]
properties('MP2/aug-cc-pvtz', properties = ['dipole'])
--------------------------------------------------------------------------

    Molecular point group: c1
  Charge       = 0
  Multiplicity = 1
  Basis Set: AUG-CC-PVTZ
    Blend: AUG-CC-PVTZ
  Basis Set: (AUG-CC-PVTZ AUX)
    Blend: AUG-CC-PVTZ-JKFIT

    Orbital Energies [Eh]
    ---------------------

    Doubly Occupied:

       1A    -20.653124     2A    -20.523216     3A    -15.606620
       4A    -15.591408     5A    -11.373960     6A    -11.357212
       7A    -11.311917     8A    -11.276806     9A    -11.268443
      10A    -11.261626    11A     -1.497913    12A     -1.371029
      13A     -1.261722    14A     -1.243689    15A     -1.057521
      16A     -0.979962    17A     -0.963837    18A     -0.866375
      19A     -0.844201    20A     -0.780886    21A     -0.729153
      22A     -0.680769    23A     -0.668108    24A     -0.661004
      25A     -0.652733    26A     -0.622438    27A     -0.587385
      28A     -0.580774    29A     -0.569548    30A     -0.564054
      31A     -0.541624    32A     -0.531113    33A     -0.481198
      34A     -0.464824    35A     -0.438669    36A     -0.381738
      37A     -0.350513

  @DF-RHF Final Energy:  -490.63380262220107

   => Energetics <=

    Nuclear Repulsion Energy =            528.3259919447800712
    One-Electron Energy =               -1716.7253658448048554
    Two-Electron Energy =                 697.7655712778237103
    Total Energy =                       -490.6338026222010740
  Basis Set: (AUG-CC-PVTZ AUX)
    Blend: AUG-CC-PVTZ-RI
    Molecular point group: c1

    Geometry (in Angstrom), charge = 0, multiplicity = 1:

       Center              X                  Y                   Z               Mass
    ------------   -----------------  -----------------  -----------------  -----------------
         O            1.601770494351    -0.943681714503     0.384610677129    15.994914619570
         O           -0.881166505649    -1.807969714503    -0.189553322871    15.994914619570
         N           -1.763601505649     0.303527285497     0.006644677129    14.003074004430
         N            1.166275494351     1.097195285497    -0.437602322871    14.003074004430
         C           -0.738307205649    -0.568482514503    -0.016836422871    12.000000000000
         C           -1.680504505649     1.709225285497     0.375894677129    12.000000000000
         C           -3.114991505649    -0.222715714503    -0.117919322871    12.000000000000
         C            0.661020494351    -0.046996714503    -0.026477322871    12.000000000000
         C            2.790351494351    -0.294150714503     0.226097677129    12.000000000000
         C            2.530654494351     0.948088285497    -0.275684322871    12.000000000000
         H           -2.118694505649     2.325151285497    -0.416344322871     1.007825032230
         H           -0.647398505649     2.010902285497     0.514322677129     1.007825032230
         H           -2.246881505649     1.874600285497     1.299872677129     1.007825032230
         H           -3.619908505649    -0.222144714503     0.855068677129     1.007825032230
         H           -3.060274505649    -1.242173714503    -0.494204322871     1.007825032230
         H           -3.682636505649     0.406020285497    -0.810501322871     1.007825032230
         H            3.677602494351    -0.836703714503     0.513082677129     1.007825032230
         H            3.224222494351     1.735391285497    -0.534641322871     1.007825032230

  Basis Set: AUG-CC-PVTZ
    Blend: AUG-CC-PVTZ
  Basis Set: (AUG-CC-PVTZ AUX)
    Blend: AUG-CC-PVTZ-JKFIT
	 Reference Energy          =    -490.6338026222010740 [Eh]
	 Singles Energy            =      -0.0000000000000000 [Eh]
	 Same-Spin Energy          =      -0.5070329587173309 [Eh]
	 Opposite-Spin Energy      =      -1.5510787989179184 [Eh]
	 Correlation Energy        =      -2.0581117576352495 [Eh]
	 Total Energy              =    -492.6919143798363052 [Eh]

	 ================> DF-SCS-MP2 Energies <==================
	-----------------------------------------------------------
	 SCS Same-Spin Scale       =       0.3333333333333333 [-]
	 SCS Opposite-Spin Scale   =       1.2000000000000000 [-]
	 SCS Same-Spin Energy      =      -0.1690109862391103 [Eh]
	 SCS Opposite-Spin Energy  =      -1.8612945587015020 [Eh]
	 SCS Correlation Energy    =      -2.0303055449406124 [Eh]
	 SCS Total Energy          =    -492.6641081671417055 [Eh]
	-----------------------------------------------------------

  Dipole Moment: [D]
     X:     0.2430      Y:     2.9296      Z:     1.0104     Total:     3.1085

*** Psi4 exiting successfully. Buy a developer a beer!
