                               Psi4 1.3.2 release

  ==> Input File <==

--------------------------------------------------------------------------
#psi4
#
memory 32 gb

molecule  {
0 1
  O        1.6580350    -0.9827140     0.3821500
  O       -0.8249020    -1.8470020    -0.1920140
  N       -1.7073370     0.2644950     0.0041840
  N        1.2225400     1.0581630    -0.4400630
  C       -0.6757910    -0.6248990    -0.0657590
  C       -1.6242400     1.6701930     0.3734340
  C       -3.0587270    -0.2617480    -0.1203800
  C        0.7172850    -0.0860290    -0.0289380
  C        2.8466160    -0.3331830     0.2236370
  C        2.5869190     0.9090560    -0.2781450
  H       -2.0624300     2.2861190    -0.4188050
  H       -0.5911340     1.9718700     0.5118620
  H       -2.1906170     1.8355680     1.2974120
  H       -3.5636440    -0.2611770     0.8526080
  H       -3.0040100    -1.2812060    -0.4966650
  H       -3.6263720     0.3669880    -0.8129620
  H        3.7414817    -0.9119065     0.4177042
  H        3.2804870     1.6963590    -0.5371020
units angstrom
no_reorient  #important for SAPT in psi4, default
symmetry c1  #important for SAPT in psi4, default
}

set PROPERTIES_ORIGIN ["COM"]
properties('MP2/aug-cc-pvtz', properties = ['dipole'])
--------------------------------------------------------------------------

    Molecular point group: c1
  Charge       = 0
  Multiplicity = 1
  Basis Set: AUG-CC-PVTZ
    Blend: AUG-CC-PVTZ
  Basis Set: (AUG-CC-PVTZ AUX)
    Blend: AUG-CC-PVTZ-JKFIT

    Orbital Energies [Eh]
    ---------------------

    Doubly Occupied:

       1A    -20.653603     2A    -20.527937     3A    -15.602055
       4A    -15.591816     5A    -11.374270     6A    -11.356449
       7A    -11.312614     8A    -11.277200     9A    -11.266448
      10A    -11.259442    11A     -1.498478    12A     -1.382564
      13A     -1.260013    14A     -1.242820    15A     -1.057661
      16A     -0.977348    17A     -0.959121    18A     -0.865955
      19A     -0.843520    20A     -0.780906    21A     -0.727314
      22A     -0.680880    23A     -0.668416    24A     -0.660579
      25A     -0.651534    26A     -0.622033    27A     -0.588310
      28A     -0.585352    29A     -0.567135    30A     -0.562080
      31A     -0.541652    32A     -0.535167    33A     -0.481954
      34A     -0.465140    35A     -0.442038    36A     -0.380552
      37A     -0.351155

  @DF-RHF Final Energy:  -490.63631657088104

   => Energetics <=

    Nuclear Repulsion Energy =            528.3210952693153786
    One-Electron Energy =               -1716.7118010240983494
    Two-Electron Energy =                 697.7543891839020489
    Total Energy =                       -490.6363165708810357
  Basis Set: (AUG-CC-PVTZ AUX)
    Blend: AUG-CC-PVTZ-RI
    Molecular point group: c1

    Geometry (in Angstrom), charge = 0, multiplicity = 1:

       Center              X                  Y                   Z               Mass
    ------------   -----------------  -----------------  -----------------  -----------------
         O            1.601180065069    -0.941931989926     0.389260072378    15.994914619570
         O           -0.881756934931    -1.806219989926    -0.184903927622    15.994914619570
         N           -1.764191934931     0.305277010074     0.011294072378    14.003074004430
         N            1.165685065069     1.098945010074    -0.432952927622    14.003074004430
         C           -0.732645934931    -0.584116989926    -0.058648927622    12.000000000000
         C           -1.681094934931     1.710975010074     0.380544072378    12.000000000000
         C           -3.115581934931    -0.220965989926    -0.113269927622    12.000000000000
         C            0.660430065069    -0.045246989926    -0.021827927622    12.000000000000
         C            2.789761065069    -0.292400989926     0.230747072378    12.000000000000
         C            2.530064065069     0.949838010074    -0.271034927622    12.000000000000
         H           -2.119284934931     2.326901010074    -0.411694927622     1.007825032230
         H           -0.647988934931     2.012652010074     0.518972072378     1.007825032230
         H           -2.247471934931     1.876350010074     1.304522072378     1.007825032230
         H           -3.620498934931    -0.220394989926     0.859718072378     1.007825032230
         H           -3.060864934931    -1.240423989926    -0.489554927622     1.007825032230
         H           -3.683226934931     0.407770010074    -0.805851927622     1.007825032230
         H            3.684626765069    -0.871124489926     0.424814272378     1.007825032230
         H            3.223632065069     1.737141010074    -0.529991927622     1.007825032230

  Basis Set: AUG-CC-PVTZ
    Blend: AUG-CC-PVTZ
  Basis Set: (AUG-CC-PVTZ AUX)
    Blend: AUG-CC-PVTZ-JKFIT
	 Reference Energy          =    -490.6363165708810357 [Eh]
	 Singles Energy            =      -0.0000000000000000 [Eh]
	 Same-Spin Energy          =      -0.5066058802945871 [Eh]
	 Opposite-Spin Energy      =      -1.5501668020284978 [Eh]
	 Correlation Energy        =      -2.0567726823230847 [Eh]
	 Total Energy              =    -492.6930892532041071 [Eh]

	 ================> DF-SCS-MP2 Energies <==================
	-----------------------------------------------------------
	 SCS Same-Spin Scale       =       0.3333333333333333 [-]
	 SCS Opposite-Spin Scale   =       1.2000000000000000 [-]
	 SCS Same-Spin Energy      =      -0.1688686267648624 [Eh]
	 SCS Opposite-Spin Energy  =      -1.8602001624341973 [Eh]
	 SCS Correlation Energy    =      -2.0290687891990595 [Eh]
	 SCS Total Energy          =    -492.6653853600801085 [Eh]
	-----------------------------------------------------------

  Dipole Moment: [D]
     X:     0.3683      Y:     2.7458      Z:     0.8730     Total:     2.9047

*** Psi4 exiting successfully. Buy a developer a beer!
