                               Psi4 1.3.2 release

  ==> Input File <==

--------------------------------------------------------------------------
#psi4
#
memory 32 gb

molecule  {
0 1
  O        1.6580350    -0.9827140     0.3821500
  O       -0.8249020    -1.8470020    -0.1920140
  N       -1.7073370     0.2644950     0.0041840
  N        1.2225400     1.0581630    -0.4400630
  C       -0.6757910    -0.6248990    -0.0657590
  C       -1.6242400     1.6701930     0.3734340
  C       -3.0587270    -0.2617480    -0.1203800
  C        0.7172247    -0.0629239    -0.2778680
  C        2.8466160    -0.3331830     0.2236370
  C        2.5869190     0.9090560    -0.2781450
  H       -2.0624300     2.2861190    -0.4188050
  H       -0.5911340     1.9718700     0.5118620
  H       -2.1906170     1.8355680     1.2974120
  H       -3.5636440    -0.2611770     0.8526080
  H       -3.0040100    -1.2812060    -0.4966650
  H       -3.6263720     0.3669880    -0.8129620
  H        3.7338670    -0.8757360     0.5106220
  H        3.2804870     1.6963590    -0.5371020
units angstrom
no_reorient  #important for SAPT in psi4, default
symmetry c1  #important for SAPT in psi4, default
}

set PROPERTIES_ORIGIN ["COM"]
properties('MP2/aug-cc-pvtz', properties = ['dipole'])
--------------------------------------------------------------------------

    Molecular point group: c1
  Charge       = 0
  Multiplicity = 1
  Basis Set: AUG-CC-PVTZ
    Blend: AUG-CC-PVTZ
  Basis Set: (AUG-CC-PVTZ AUX)
    Blend: AUG-CC-PVTZ-JKFIT

    Orbital Energies [Eh]
    ---------------------

    Doubly Occupied:

       1A    -20.632518     2A    -20.528407     3A    -15.602516
       4A    -15.594603     5A    -11.376204     6A    -11.352871
       7A    -11.315036     8A    -11.274026     9A    -11.268508
      10A    -11.260056    11A     -1.463123    12A     -1.381335
      13A     -1.275503    14A     -1.252130    15A     -1.049992
      16A     -0.978433    17A     -0.959119    18A     -0.856456
      19A     -0.843019    20A     -0.768784    21A     -0.726770
      22A     -0.672391    23A     -0.664852    24A     -0.660181
      25A     -0.643580    26A     -0.622414    27A     -0.589412
      28A     -0.571838    29A     -0.569247    30A     -0.563024
      31A     -0.542461    32A     -0.530533    33A     -0.488383
      34A     -0.474375    35A     -0.437225    36A     -0.381212
      37A     -0.353453

  @DF-RHF Final Energy:  -490.61174541749227

   => Energetics <=

    Nuclear Repulsion Energy =            527.5138597698438616
    One-Electron Energy =               -1715.2032340095338441
    Two-Electron Energy =                 697.0776288221977666
    Total Energy =                       -490.6117454174923296
  Basis Set: (AUG-CC-PVTZ AUX)
    Blend: AUG-CC-PVTZ-RI
    Molecular point group: c1

    Geometry (in Angstrom), charge = 0, multiplicity = 1:

       Center              X                  Y                   Z               Mass
    ------------   -----------------  -----------------  -----------------  -----------------
         O            1.601240024876    -0.944171872273     0.409919393404    15.994914619570
         O           -0.881696975124    -1.808459872273    -0.164244606596    15.994914619570
         N           -1.764131975124     0.303037127727     0.031953393404    14.003074004430
         N            1.165745024876     1.096705127727    -0.412293606596    14.003074004430
         C           -0.732585975124    -0.586356872273    -0.037989606596    12.000000000000
         C           -1.681034975124     1.708735127727     0.401203393404    12.000000000000
         C           -3.115521975124    -0.223205872273    -0.092610606596    12.000000000000
         C            0.660429724876    -0.024381772273    -0.250098606596    12.000000000000
         C            2.789821024876    -0.294640872273     0.251406393404    12.000000000000
         C            2.530124024876     0.947598127727    -0.250375606596    12.000000000000
         H           -2.119224975124     2.324661127727    -0.391035606596     1.007825032230
         H           -0.647928975124     2.010412127727     0.539631393404     1.007825032230
         H           -2.247411975124     1.874110127727     1.325181393404     1.007825032230
         H           -3.620438975124    -0.222634872273     0.880377393404     1.007825032230
         H           -3.060804975124    -1.242663872273    -0.468895606596     1.007825032230
         H           -3.683166975124     0.405530127727    -0.785192606596     1.007825032230
         H            3.677072024876    -0.837193872273     0.538391393404     1.007825032230
         H            3.223692024876     1.734901127727    -0.509332606596     1.007825032230

  Basis Set: AUG-CC-PVTZ
    Blend: AUG-CC-PVTZ
  Basis Set: (AUG-CC-PVTZ AUX)
    Blend: AUG-CC-PVTZ-JKFIT
	 Reference Energy          =    -490.6117454174922727 [Eh]
	 Singles Energy            =      -0.0000000000000000 [Eh]
	 Same-Spin Energy          =      -0.5064009679270594 [Eh]
	 Opposite-Spin Energy      =      -1.5517088426874386 [Eh]
	 Correlation Energy        =      -2.0581098106144982 [Eh]
	 Total Energy              =    -492.6698552281067691 [Eh]

	 ================> DF-SCS-MP2 Energies <==================
	-----------------------------------------------------------
	 SCS Same-Spin Scale       =       0.3333333333333333 [-]
	 SCS Opposite-Spin Scale   =       1.2000000000000000 [-]
	 SCS Same-Spin Energy      =      -0.1688003226423531 [Eh]
	 SCS Opposite-Spin Energy  =      -1.8620506112249262 [Eh]
	 SCS Correlation Energy    =      -2.0308509338672796 [Eh]
	 SCS Total Energy          =    -492.6425963513595434 [Eh]
	-----------------------------------------------------------

  Dipole Moment: [D]
     X:     0.1498      Y:     3.0049      Z:     0.6680     Total:     3.0819

*** Psi4 exiting successfully. Buy a developer a beer!
