                               Psi4 1.3.2 release

  ==> Input File <==

--------------------------------------------------------------------------
#psi4
#
memory 32 gb

molecule  {
0 1
  O        1.6580350    -0.9827140     0.3821500
  O       -0.8249020    -1.8470020    -0.1920140
  N       -1.7073370     0.2644950     0.0041840
  N        1.2225400     1.0581630    -0.4400630
  C       -0.6757910    -0.6248990    -0.0657590
  C       -1.6242400     1.6701930     0.3734340
  C       -3.0587270    -0.2617480    -0.1203800
  C        0.7172850    -0.0860290    -0.0289380
  C        2.8466160    -0.3331830     0.2236370
  C        2.5869190     0.9090560    -0.2781450
  H       -2.0624300     2.2861190    -0.4188050
  H       -0.5911340     1.9718700     0.5118620
  H       -2.1906170     1.8355680     1.2974120
  H       -3.5636440    -0.2611770     0.8526080
  H       -3.0040100    -1.2812060    -0.4966650
  H       -3.6263720     0.3669880    -0.8129620
  H        3.7529037    -0.9661623     0.2783276
  H        3.2804870     1.6963590    -0.5371020
units angstrom
no_reorient  #important for SAPT in psi4, default
symmetry c1  #important for SAPT in psi4, default
}

set PROPERTIES_ORIGIN ["COM"]
properties('MP2/aug-cc-pvtz', properties = ['dipole'])
--------------------------------------------------------------------------

    Molecular point group: c1
  Charge       = 0
  Multiplicity = 1
  Basis Set: AUG-CC-PVTZ
    Blend: AUG-CC-PVTZ
  Basis Set: (AUG-CC-PVTZ AUX)
    Blend: AUG-CC-PVTZ-JKFIT

    Orbital Energies [Eh]
    ---------------------

    Doubly Occupied:

       1A    -20.653399     2A    -20.528302     3A    -15.602383
       4A    -15.591990     5A    -11.374585     6A    -11.357047
       7A    -11.313833     8A    -11.277788     9A    -11.266575
      10A    -11.259637    11A     -1.498448    12A     -1.382871
      13A     -1.260293    14A     -1.243097    15A     -1.057244
      16A     -0.977472    17A     -0.959066    18A     -0.866111
      19A     -0.841557    20A     -0.780547    21A     -0.726740
      22A     -0.679344    23A     -0.668815    24A     -0.660020
      25A     -0.650503    26A     -0.620478    27A     -0.587848
      28A     -0.584684    29A     -0.567277    30A     -0.562237
      31A     -0.541673    32A     -0.535215    33A     -0.482025
      34A     -0.465240    35A     -0.442367    36A     -0.380732
      37A     -0.351154

  @DF-RHF Final Energy:  -490.63318450279053

   => Energetics <=

    Nuclear Repulsion Energy =            528.2286730230847525
    One-Electron Energy =               -1716.5265175642648501
    Two-Electron Energy =                 697.6646600383894565
    Total Energy =                       -490.6331845027905274
  Basis Set: (AUG-CC-PVTZ AUX)
    Blend: AUG-CC-PVTZ-RI
    Molecular point group: c1

    Geometry (in Angstrom), charge = 0, multiplicity = 1:

       Center              X                  Y                   Z               Mass
    ------------   -----------------  -----------------  -----------------  -----------------
         O            1.601097875333    -0.941541579325     0.390262990077    15.994914619570
         O           -0.881839124667    -1.805829579325    -0.183901009923    15.994914619570
         N           -1.764274124667     0.305667420675     0.012296990077    14.003074004430
         N            1.165602875333     1.099335420675    -0.431950009923    14.003074004430
         C           -0.732728124667    -0.583726579325    -0.057646009923    12.000000000000
         C           -1.681177124667     1.711365420675     0.381546990077    12.000000000000
         C           -3.115664124667    -0.220575579325    -0.112267009923    12.000000000000
         C            0.660347875333    -0.044856579325    -0.020825009923    12.000000000000
         C            2.789678875333    -0.292010579325     0.231749990077    12.000000000000
         C            2.529981875333     0.950228420675    -0.270032009923    12.000000000000
         H           -2.119367124667     2.327291420675    -0.410692009923     1.007825032230
         H           -0.648071124667     2.013042420675     0.519974990077     1.007825032230
         H           -2.247554124667     1.876740420675     1.305524990077     1.007825032230
         H           -3.620581124667    -0.220004579325     0.860720990077     1.007825032230
         H           -3.060947124667    -1.240033579325    -0.488552009923     1.007825032230
         H           -3.683309124667     0.408160420675    -0.804849009923     1.007825032230
         H            3.695966575333    -0.924989879325     0.286440590077     1.007825032230
         H            3.223549875333     1.737531420675    -0.528989009923     1.007825032230

  Basis Set: AUG-CC-PVTZ
    Blend: AUG-CC-PVTZ
  Basis Set: (AUG-CC-PVTZ AUX)
    Blend: AUG-CC-PVTZ-JKFIT
	 Reference Energy          =    -490.6331845027905274 [Eh]
	 Singles Energy            =      -0.0000000000000000 [Eh]
	 Same-Spin Energy          =      -0.5067781201212982 [Eh]
	 Opposite-Spin Energy      =      -1.5505971610725346 [Eh]
	 Correlation Energy        =      -2.0573752811938331 [Eh]
	 Total Energy              =    -492.6905597839843836 [Eh]

	 ================> DF-SCS-MP2 Energies <==================
	-----------------------------------------------------------
	 SCS Same-Spin Scale       =       0.3333333333333333 [-]
	 SCS Opposite-Spin Scale   =       1.2000000000000000 [-]
	 SCS Same-Spin Energy      =      -0.1689260400404327 [Eh]
	 SCS Opposite-Spin Energy  =      -1.8607165932870415 [Eh]
	 SCS Correlation Energy    =      -2.0296426333274744 [Eh]
	 SCS Total Energy          =    -492.6628271361179827 [Eh]
	-----------------------------------------------------------

  Dipole Moment: [D]
     X:     0.3327      Y:     2.7200      Z:     0.7430     Total:     2.8392

*** Psi4 exiting successfully. Buy a developer a beer!
