                               Psi4 1.3.2 release

  ==> Input File <==

--------------------------------------------------------------------------
#psi4
#
memory 32 gb

molecule  {
0 1
  O        1.6580350    -0.9827140     0.3821500
  O       -0.8249020    -1.8470020    -0.1920140
  N       -1.7073370     0.2644950     0.0041840
  N        1.2225400     1.0581630    -0.4400630
  C       -0.6945461    -0.5727464     0.0736266
  C       -1.6242400     1.6701930     0.3734340
  C       -3.0587270    -0.2617480    -0.1203800
  C        0.7172850    -0.0860290    -0.0289380
  C        2.8466160    -0.3331830     0.2236370
  C        2.5869190     0.9090560    -0.2781450
  H       -2.0624300     2.2861190    -0.4188050
  H       -0.5911340     1.9718700     0.5118620
  H       -2.1906170     1.8355680     1.2974120
  H       -3.5636440    -0.2611770     0.8526080
  H       -3.0040100    -1.2812060    -0.4966650
  H       -3.6263720     0.3669880    -0.8129620
  H        3.7338670    -0.8757360     0.5106220
  H        3.2804870     1.6963590    -0.5371020
units angstrom
no_reorient  #important for SAPT in psi4, default
symmetry c1  #important for SAPT in psi4, default
}

set PROPERTIES_ORIGIN ["COM"]
properties('MP2/aug-cc-pvtz', properties = ['dipole'])
--------------------------------------------------------------------------

    Molecular point group: c1
  Charge       = 0
  Multiplicity = 1
  Basis Set: AUG-CC-PVTZ
    Blend: AUG-CC-PVTZ
  Basis Set: (AUG-CC-PVTZ AUX)
    Blend: AUG-CC-PVTZ-JKFIT

    Orbital Energies [Eh]
    ---------------------

    Doubly Occupied:

       1A    -20.651859     2A    -20.515087     3A    -15.615961
       4A    -15.590282     5A    -11.374523     6A    -11.359610
       7A    -11.310770     8A    -11.276074     9A    -11.272099
      10A    -11.265931    11A     -1.496637    12A     -1.354569
      13A     -1.259481    14A     -1.243883    15A     -1.056422
      16A     -0.985080    17A     -0.972178    18A     -0.866222
      19A     -0.844209    20A     -0.780568    21A     -0.732871
      22A     -0.679137    23A     -0.669146    24A     -0.662967
      25A     -0.653456    26A     -0.623068    27A     -0.586059
      28A     -0.574773    29A     -0.570590    30A     -0.565981
      31A     -0.541196    32A     -0.522524    33A     -0.479900
      34A     -0.463942    35A     -0.430827    36A     -0.382143
      37A     -0.348443

  @DF-RHF Final Energy:  -490.61784480043491

   => Energetics <=

    Nuclear Repulsion Energy =            528.1312151294713431
    One-Electron Energy =               -1716.3411863396825083
    Two-Electron Energy =                 697.5921264097763697
    Total Energy =                       -490.6178448004349093
  Basis Set: (AUG-CC-PVTZ AUX)
    Blend: AUG-CC-PVTZ-RI
    Molecular point group: c1

    Geometry (in Angstrom), charge = 0, multiplicity = 1:

       Center              X                  Y                   Z               Mass
    ------------   -----------------  -----------------  -----------------  -----------------
         O            1.602841766119    -0.946660616670     0.376649119759    15.994914619570
         O           -0.880095233881    -1.810948616670    -0.197514880241    15.994914619570
         N           -1.762530233881     0.300548383330    -0.001316880241    14.003074004430
         N            1.167346766119     1.094216383330    -0.445563880241    14.003074004430
         C           -0.749739333881    -0.536693016670     0.068125719759    12.000000000000
         C           -1.679433233881     1.706246383330     0.367933119759    12.000000000000
         C           -3.113920233881    -0.225694616670    -0.125880880241    12.000000000000
         C            0.662091766119    -0.049975616670    -0.034438880241    12.000000000000
         C            2.791422766119    -0.297129616670     0.218136119759    12.000000000000
         C            2.531725766119     0.945109383330    -0.283645880241    12.000000000000
         H           -2.117623233881     2.322172383330    -0.424305880241     1.007825032230
         H           -0.646327233881     2.007923383330     0.506361119759     1.007825032230
         H           -2.245810233881     1.871621383330     1.291911119759     1.007825032230
         H           -3.618837233881    -0.225123616670     0.847107119759     1.007825032230
         H           -3.059203233881    -1.245152616670    -0.502165880241     1.007825032230
         H           -3.681565233881     0.403041383330    -0.818462880241     1.007825032230
         H            3.678673766119    -0.839682616670     0.505121119759     1.007825032230
         H            3.225293766119     1.732412383330    -0.542602880241     1.007825032230

  Basis Set: AUG-CC-PVTZ
    Blend: AUG-CC-PVTZ
  Basis Set: (AUG-CC-PVTZ AUX)
    Blend: AUG-CC-PVTZ-JKFIT
	 Reference Energy          =    -490.6178448004349093 [Eh]
	 Singles Energy            =      -0.0000000000000000 [Eh]
	 Same-Spin Energy          =      -0.5082952537783758 [Eh]
	 Opposite-Spin Energy      =      -1.5540257512310920 [Eh]
	 Correlation Energy        =      -2.0623210050094678 [Eh]
	 Total Energy              =    -492.6801658054444033 [Eh]

	 ================> DF-SCS-MP2 Energies <==================
	-----------------------------------------------------------
	 SCS Same-Spin Scale       =       0.3333333333333333 [-]
	 SCS Opposite-Spin Scale   =       1.2000000000000000 [-]
	 SCS Same-Spin Energy      =      -0.1694317512594586 [Eh]
	 SCS Opposite-Spin Energy  =      -1.8648309014773103 [Eh]
	 SCS Correlation Energy    =      -2.0342626527367691 [Eh]
	 SCS Total Energy          =    -492.6521074531716522 [Eh]
	-----------------------------------------------------------

  Dipole Moment: [D]
     X:    -0.0152      Y:     3.2044      Z:     1.0982     Total:     3.3874

*** Psi4 exiting successfully. Buy a developer a beer!
