                               Psi4 1.3.2 release

  ==> Input File <==

--------------------------------------------------------------------------
#psi4
#
memory 32 gb

molecule  {
0 1
  O        1.6580350    -0.9827140     0.3821500
  O       -0.8249020    -1.8470020    -0.1920140
  N       -1.7073370     0.2644950     0.0041840
  N        1.2225400     1.0581630    -0.4400630
  C       -0.6757910    -0.6248990    -0.0657590
  C       -1.6242400     1.6701930     0.3734340
  C       -3.0587270    -0.2617480    -0.1203800
  C        0.7172850    -0.0860290    -0.0289380
  C        2.8466160    -0.3331830     0.2236370
  C        2.5869190     0.9090560    -0.2781450
  H       -2.0624300     2.2861190    -0.4188050
  H       -0.5911340     1.9718700     0.5118620
  H       -2.1906170     1.8355680     1.2974120
  H       -3.5636440    -0.2611770     0.8526080
  H       -3.0040100    -1.2812060    -0.4966650
  H       -3.6263720     0.3669880    -0.8129620
  H        3.7338670    -0.8757360     0.5106220
  H        3.2804870     1.6963590    -0.5371020
units angstrom
no_reorient  #important for SAPT in psi4, default
symmetry c1  #important for SAPT in psi4, default
}

set PROPERTIES_ORIGIN ["COM"]
properties('MP2/aug-cc-pvtz', properties = ['dipole'])
--------------------------------------------------------------------------

    Molecular point group: c1
  Charge       = 0
  Multiplicity = 1
  Basis Set: AUG-CC-PVTZ
    Blend: AUG-CC-PVTZ
  Basis Set: (AUG-CC-PVTZ AUX)
    Blend: AUG-CC-PVTZ-JKFIT

    Orbital Energies [Eh]
    ---------------------

    Doubly Occupied:

       1A    -20.653657     2A    -20.527822     3A    -15.601952
       4A    -15.591829     5A    -11.374181     6A    -11.356345
       7A    -11.312435     8A    -11.277147     9A    -11.266463
      10A    -11.259393    11A     -1.498504    12A     -1.382472
      13A     -1.259956    14A     -1.242786    15A     -1.057770
      16A     -0.977330    17A     -0.959134    18A     -0.865941
      19A     -0.843929    20A     -0.780988    21A     -0.727283
      22A     -0.682443    23A     -0.667494    24A     -0.660380
      25A     -0.651949    26A     -0.622074    27A     -0.588349
      28A     -0.585514    29A     -0.567103    30A     -0.562060
      31A     -0.541696    32A     -0.535194    33A     -0.481937
      34A     -0.465178    35A     -0.441935    36A     -0.380525
      37A     -0.351180

  @DF-RHF Final Energy:  -490.63684980076471

   => Energetics <=

    Nuclear Repulsion Energy =            528.3393824105988870
    One-Electron Energy =               -1716.7478057289029039
    Two-Electron Energy =                 697.7715735175391956
    Total Energy =                       -490.6368498007647077
  Basis Set: (AUG-CC-PVTZ AUX)
    Blend: AUG-CC-PVTZ-RI
    Molecular point group: c1

    Geometry (in Angstrom), charge = 0, multiplicity = 1:

       Center              X                  Y                   Z               Mass
    ------------   -----------------  -----------------  -----------------  -----------------
         O            1.601234858467    -0.942192263420     0.388591460098    15.994914619570
         O           -0.881702141533    -1.806480263420    -0.185572539902    15.994914619570
         N           -1.764137141533     0.305016736580     0.010625460098    14.003074004430
         N            1.165739858467     1.098684736580    -0.433621539902    14.003074004430
         C           -0.732591141533    -0.584377263420    -0.059317539902    12.000000000000
         C           -1.681040141533     1.710714736580     0.379875460098    12.000000000000
         C           -3.115527141533    -0.221226263420    -0.113938539902    12.000000000000
         C            0.660484858467    -0.045507263420    -0.022496539902    12.000000000000
         C            2.789815858467    -0.292661263420     0.230078460098    12.000000000000
         C            2.530118858467     0.949577736580    -0.271703539902    12.000000000000
         H           -2.119230141533     2.326640736580    -0.412363539902     1.007825032230
         H           -0.647934141533     2.012391736580     0.518303460098     1.007825032230
         H           -2.247417141533     1.876089736580     1.303853460098     1.007825032230
         H           -3.620444141533    -0.220655263420     0.859049460098     1.007825032230
         H           -3.060810141533    -1.240684263420    -0.490223539902     1.007825032230
         H           -3.683172141533     0.407509736580    -0.806520539902     1.007825032230
         H            3.677066858467    -0.835214263420     0.517063460098     1.007825032230
         H            3.223686858467     1.736880736580    -0.530660539902     1.007825032230

  Basis Set: AUG-CC-PVTZ
    Blend: AUG-CC-PVTZ
  Basis Set: (AUG-CC-PVTZ AUX)
    Blend: AUG-CC-PVTZ-JKFIT
	 Reference Energy          =    -490.6368498007647077 [Eh]
	 Singles Energy            =      -0.0000000000000000 [Eh]
	 Same-Spin Energy          =      -0.5065784769014881 [Eh]
	 Opposite-Spin Energy      =      -1.5500969720516977 [Eh]
	 Correlation Energy        =      -2.0566754489531860 [Eh]
	 Total Energy              =    -492.6935252497178794 [Eh]

	 ================> DF-SCS-MP2 Energies <==================
	-----------------------------------------------------------
	 SCS Same-Spin Scale       =       0.3333333333333333 [-]
	 SCS Opposite-Spin Scale   =       1.2000000000000000 [-]
	 SCS Same-Spin Energy      =      -0.1688594923004960 [Eh]
	 SCS Opposite-Spin Energy  =      -1.8601163664620373 [Eh]
	 SCS Correlation Energy    =      -2.0289758587625331 [Eh]
	 SCS Total Energy          =    -492.6658256595272292 [Eh]
	-----------------------------------------------------------

  Dipole Moment: [D]
     X:     0.3738      Y:     2.7743      Z:     0.9555     Total:     2.9580

*** Psi4 exiting successfully. Buy a developer a beer!
