                               Psi4 1.3.2 release

  ==> Input File <==

--------------------------------------------------------------------------
#psi4
#
memory 32 gb

molecule  {
0 1
  O        1.6580350    -0.9827140     0.3821500
  O       -0.8249020    -1.8470020    -0.1920140
  N       -1.7073370     0.2644950     0.0041840
  N        1.2225400     1.0581630    -0.4400630
  C       -0.6757910    -0.6248990    -0.0657590
  C       -1.6242400     1.6701930     0.3734340
  C       -3.0587270    -0.2617480    -0.1203800
  C        0.7172850    -0.0860290    -0.0289380
  C        2.8466160    -0.3331830     0.2236370
  C        2.5869190     0.9090560    -0.2781450
  H       -2.0624300     2.2861190    -0.4188050
  H       -0.5911340     1.9718700     0.5118620
  H       -2.1906170     1.8355680     1.2974120
  H       -3.5636440    -0.2611770     0.8526080
  H       -3.0040100    -1.2812060    -0.4966650
  H       -3.6263720     0.3669880    -0.8129620
  H        3.7452890    -0.9299918     0.3712454
  H        3.2804870     1.6963590    -0.5371020
units angstrom
no_reorient  #important for SAPT in psi4, default
symmetry c1  #important for SAPT in psi4, default
}

set PROPERTIES_ORIGIN ["COM"]
properties('MP2/aug-cc-pvtz', properties = ['dipole'])
--------------------------------------------------------------------------

    Molecular point group: c1
  Charge       = 0
  Multiplicity = 1
  Basis Set: AUG-CC-PVTZ
    Blend: AUG-CC-PVTZ
  Basis Set: (AUG-CC-PVTZ AUX)
    Blend: AUG-CC-PVTZ-JKFIT

    Orbital Energies [Eh]
    ---------------------

    Doubly Occupied:

       1A    -20.653549     2A    -20.528034     3A    -15.602142
       4A    -15.591848     5A    -11.374351     6A    -11.356591
       7A    -11.312896     8A    -11.277329     9A    -11.266471
      10A    -11.259492    11A     -1.498466    12A     -1.382644
      13A     -1.260081    14A     -1.242882    15A     -1.057551
      16A     -0.977376    17A     -0.959106    18A     -0.865988
      19A     -0.843026    20A     -0.780813    21A     -0.727198
      22A     -0.680211    23A     -0.668709    24A     -0.660494
      25A     -0.651249    26A     -0.621724    27A     -0.588189
      28A     -0.585222    29A     -0.567171    30A     -0.562116
      31A     -0.541648    32A     -0.535173    33A     -0.481973
      34A     -0.465152    35A     -0.442125    36A     -0.380594
      37A     -0.351149

  @DF-RHF Final Energy:  -490.63561883574420

   => Energetics <=

    Nuclear Repulsion Energy =            528.2986490876653534
    One-Electron Energy =               -1716.6670676961614390
    Two-Electron Energy =                 697.7327997727518323
    Total Energy =                       -490.6356188357442534
  Basis Set: (AUG-CC-PVTZ AUX)
    Blend: AUG-CC-PVTZ-RI
    Molecular point group: c1

    Geometry (in Angstrom), charge = 0, multiplicity = 1:

       Center              X                  Y                   Z               Mass
    ------------   -----------------  -----------------  -----------------  -----------------
         O            1.601152668731    -0.941801852819     0.389594377798    15.994914619570
         O           -0.881784331269    -1.806089852819    -0.184569622202    15.994914619570
         N           -1.764219331269     0.305407147181     0.011628377798    14.003074004430
         N            1.165657668731     1.099075147181    -0.432618622202    14.003074004430
         C           -0.732673331269    -0.583986852819    -0.058314622202    12.000000000000
         C           -1.681122331269     1.711105147181     0.380878377798    12.000000000000
         C           -3.115609331269    -0.220835852819    -0.112935622202    12.000000000000
         C            0.660402668731    -0.045116852819    -0.021493622202    12.000000000000
         C            2.789733668731    -0.292270852819     0.231081377798    12.000000000000
         C            2.530036668731     0.949968147181    -0.270700622202    12.000000000000
         H           -2.119312331269     2.327031147181    -0.411360622202     1.007825032230
         H           -0.648016331269     2.012782147181     0.519306377798     1.007825032230
         H           -2.247499331269     1.876480147181     1.304856377798     1.007825032230
         H           -3.620526331269    -0.220264852819     0.860052377798     1.007825032230
         H           -3.060892331269    -1.240293852819    -0.489220622202     1.007825032230
         H           -3.683254331269     0.407900147181    -0.805517622202     1.007825032230
         H            3.688406668731    -0.889079652819     0.378689777798     1.007825032230
         H            3.223604668731     1.737271147181    -0.529657622202     1.007825032230

  Basis Set: AUG-CC-PVTZ
    Blend: AUG-CC-PVTZ
  Basis Set: (AUG-CC-PVTZ AUX)
    Blend: AUG-CC-PVTZ-JKFIT
	 Reference Energy          =    -490.6356188357441965 [Eh]
	 Singles Energy            =      -0.0000000000000000 [Eh]
	 Same-Spin Energy          =      -0.5066461386581642 [Eh]
	 Opposite-Spin Energy      =      -1.5502643071508504 [Eh]
	 Correlation Energy        =      -2.0569104458090148 [Eh]
	 Total Energy              =    -492.6925292815532202 [Eh]

	 ================> DF-SCS-MP2 Energies <==================
	-----------------------------------------------------------
	 SCS Same-Spin Scale       =       0.3333333333333333 [-]
	 SCS Opposite-Spin Scale   =       1.2000000000000000 [-]
	 SCS Same-Spin Energy      =      -0.1688820462193881 [Eh]
	 SCS Opposite-Spin Energy  =      -1.8603171685810205 [Eh]
	 SCS Correlation Energy    =      -2.0291992148004088 [Eh]
	 SCS Total Energy          =    -492.6648180505446248 [Eh]
	-----------------------------------------------------------

  Dipole Moment: [D]
     X:     0.3599      Y:     2.7350      Z:     0.8303     Total:     2.8808

*** Psi4 exiting successfully. Buy a developer a beer!
