                               Psi4 1.3.2 release

  ==> Input File <==

--------------------------------------------------------------------------
#psi4
#
memory 32 gb

molecule  {
0 1
  O        1.6580350    -0.9827140     0.3821500
  O       -0.8249020    -1.8470020    -0.1920140
  N       -1.7073370     0.2644950     0.0041840
  N        1.2225400     1.0581630    -0.4400630
  C       -0.6757910    -0.6248990    -0.0657590
  C       -1.6242400     1.6701930     0.3734340
  C       -3.0587270    -0.2617480    -0.1203800
  C        0.7172850    -0.0860290    -0.0289380
  C        2.8466160    -0.3331830     0.2236370
  C        2.5869190     0.9090560    -0.2781450
  H       -2.0624300     2.2861190    -0.4188050
  H       -0.5911340     1.9718700     0.5118620
  H       -2.1906170     1.8355680     1.2974120
  H       -3.5636440    -0.2611770     0.8526080
  H       -3.0040100    -1.2812060    -0.4966650
  H       -3.6263720     0.3669880    -0.8129620
  H        3.7376743    -0.8938213     0.4641631
  H        3.2804870     1.6963590    -0.5371020
units angstrom
no_reorient  #important for SAPT in psi4, default
symmetry c1  #important for SAPT in psi4, default
}

set PROPERTIES_ORIGIN ["COM"]
properties('MP2/aug-cc-pvtz', properties = ['dipole'])
--------------------------------------------------------------------------

    Molecular point group: c1
  Charge       = 0
  Multiplicity = 1
  Basis Set: AUG-CC-PVTZ
    Blend: AUG-CC-PVTZ
  Basis Set: (AUG-CC-PVTZ AUX)
    Blend: AUG-CC-PVTZ-JKFIT

    Orbital Energies [Eh]
    ---------------------

    Doubly Occupied:

       1A    -20.653640     2A    -20.527866     3A    -15.601992
       4A    -15.591810     5A    -11.374213     6A    -11.356367
       7A    -11.312460     8A    -11.277139     9A    -11.266445
      10A    -11.259409    11A     -1.498491    12A     -1.382506
      13A     -1.259971    14A     -1.242788    15A     -1.057735
      16A     -0.977332    17A     -0.959131    18A     -0.865939
      19A     -0.843826    20A     -0.780965    21A     -0.727344
      22A     -0.681643    23A     -0.667993    24A     -0.660548
      25A     -0.651765    26A     -0.622148    27A     -0.588368
      28A     -0.585442    29A     -0.567112    30A     -0.562062
      31A     -0.541668    32A     -0.535174    33A     -0.481942
      34A     -0.465148    35A     -0.441975    36A     -0.380529
      37A     -0.351166

  @DF-RHF Final Energy:  -490.63671926457704

   => Energetics <=

    Nuclear Repulsion Energy =            528.3347357115251270
    One-Electron Energy =               -1716.7388114561931616
    Two-Electron Energy =                 697.7673564800910526
    Total Energy =                       -490.6367192645769819
  Basis Set: (AUG-CC-PVTZ AUX)
    Blend: AUG-CC-PVTZ-RI
    Molecular point group: c1

    Geometry (in Angstrom), charge = 0, multiplicity = 1:

       Center              X                  Y                   Z               Mass
    ------------   -----------------  -----------------  -----------------  -----------------
         O            1.601207462128    -0.942062126313     0.388925766238    15.994914619570
         O           -0.881729537872    -1.806350126313    -0.185238233762    15.994914619570
         N           -1.764164537872     0.305146873687     0.010959766238    14.003074004430
         N            1.165712462128     1.098814873687    -0.433287233762    14.003074004430
         C           -0.732618537872    -0.584247126313    -0.058983233762    12.000000000000
         C           -1.681067537872     1.710844873687     0.380209766238    12.000000000000
         C           -3.115554537872    -0.221096126313    -0.113604233762    12.000000000000
         C            0.660457462128    -0.045377126313    -0.022162233762    12.000000000000
         C            2.789788462128    -0.292531126313     0.230412766238    12.000000000000
         C            2.530091462128     0.949707873687    -0.271369233762    12.000000000000
         H           -2.119257537872     2.326770873687    -0.412029233762     1.007825032230
         H           -0.647961537872     2.012521873687     0.518637766238     1.007825032230
         H           -2.247444537872     1.876219873687     1.304187766238     1.007825032230
         H           -3.620471537872    -0.220525126313     0.859383766238     1.007825032230
         H           -3.060837537872    -1.240554126313    -0.489889233762     1.007825032230
         H           -3.683199537872     0.407639873687    -0.806186233762     1.007825032230
         H            3.680846762128    -0.853169426313     0.470938866238     1.007825032230
         H            3.223659462128     1.737010873687    -0.530326233762     1.007825032230

  Basis Set: AUG-CC-PVTZ
    Blend: AUG-CC-PVTZ
  Basis Set: (AUG-CC-PVTZ AUX)
    Blend: AUG-CC-PVTZ-JKFIT
	 Reference Energy          =    -490.6367192645770388 [Eh]
	 Singles Energy            =      -0.0000000000000000 [Eh]
	 Same-Spin Energy          =      -0.5065832730920430 [Eh]
	 Opposite-Spin Energy      =      -1.5501118781646652 [Eh]
	 Correlation Energy        =      -2.0566951512567080 [Eh]
	 Total Energy              =    -492.6934144158337290 [Eh]

	 ================> DF-SCS-MP2 Energies <==================
	-----------------------------------------------------------
	 SCS Same-Spin Scale       =       0.3333333333333333 [-]
	 SCS Opposite-Spin Scale   =       1.2000000000000000 [-]
	 SCS Same-Spin Energy      =      -0.1688610910306810 [Eh]
	 SCS Opposite-Spin Energy  =      -1.8601342537975982 [Eh]
	 SCS Correlation Energy    =      -2.0289953448282794 [Eh]
	 SCS Total Energy          =    -492.6657146094053132 [Eh]
	-----------------------------------------------------------

  Dipole Moment: [D]
     X:     0.3729      Y:     2.7589      Z:     0.9148     Total:     2.9305

*** Psi4 exiting successfully. Buy a developer a beer!
