                               Psi4 1.3.2 release

  ==> Input File <==

--------------------------------------------------------------------------
#psi4
#
memory 32 gb

molecule  {
0 1
  O        1.6580350    -0.9827140     0.3821500
  O       -0.8249020    -1.8470020    -0.1920140
  N       -1.7073370     0.2644950     0.0041840
  N        1.2225400     1.0581630    -0.4400630
  C       -0.6757910    -0.6248990    -0.0657590
  C       -1.6242400     1.6701930     0.3734340
  C       -3.0587270    -0.2617480    -0.1203800
  C        0.7172850    -0.0860290    -0.0289380
  C        2.8466160    -0.3331830     0.2236370
  C        2.5869190     0.9090560    -0.2781450
  H       -2.0624300     2.2861190    -0.4188050
  H       -0.5911340     1.9718700     0.5118620
  H       -2.1906170     1.8355680     1.2974120
  H       -3.5636440    -0.2611770     0.8526080
  H       -3.0040100    -1.2812060    -0.4966650
  H       -3.6263720     0.3669880    -0.8129620
  H        3.7490963    -0.9480770     0.3247865
  H        3.2804870     1.6963590    -0.5371020
units angstrom
no_reorient  #important for SAPT in psi4, default
symmetry c1  #important for SAPT in psi4, default
}

set PROPERTIES_ORIGIN ["COM"]
properties('MP2/aug-cc-pvtz', properties = ['dipole'])
--------------------------------------------------------------------------

    Molecular point group: c1
  Charge       = 0
  Multiplicity = 1
  Basis Set: AUG-CC-PVTZ
    Blend: AUG-CC-PVTZ
  Basis Set: (AUG-CC-PVTZ AUX)
    Blend: AUG-CC-PVTZ-JKFIT

    Orbital Energies [Eh]
    ---------------------

    Doubly Occupied:

       1A    -20.653480     2A    -20.528156     3A    -15.602252
       4A    -15.591906     5A    -11.374456     6A    -11.356791
       7A    -11.313304     8A    -11.277526     9A    -11.266513
      10A    -11.259557    11A     -1.498455    12A     -1.382747
      13A     -1.260174    14A     -1.242975    15A     -1.057410
      16A     -0.977417    17A     -0.959087    18A     -0.866040
      19A     -0.842363    20A     -0.780692    21A     -0.727003
      22A     -0.679688    23A     -0.668841    24A     -0.660304
      25A     -0.650907    26A     -0.621209    27A     -0.588025
      28A     -0.585017    29A     -0.567219    30A     -0.562169
      31A     -0.541656    32A     -0.535189    33A     -0.481997
      34A     -0.465185    35A     -0.442235    36A     -0.380654
      37A     -0.351149

  @DF-RHF Final Energy:  -490.63458996523912

   => Energetics <=

    Nuclear Repulsion Energy =            528.2677045456620135
    One-Electron Energy =               -1716.6050910328494865
    Two-Electron Energy =                 697.7027965219482439
    Total Energy =                       -490.6345899652391154
  Basis Set: (AUG-CC-PVTZ AUX)
    Blend: AUG-CC-PVTZ-RI
    Molecular point group: c1

    Geometry (in Angstrom), charge = 0, multiplicity = 1:

       Center              X                  Y                   Z               Mass
    ------------   -----------------  -----------------  -----------------  -----------------
         O            1.601125272392    -0.941671716432     0.389928683938    15.994914619570
         O           -0.881811727608    -1.805959716432    -0.184235316062    15.994914619570
         N           -1.764246727608     0.305537283568     0.011962683938    14.003074004430
         N            1.165630272392     1.099205283568    -0.432284316062    14.003074004430
         C           -0.732700727608    -0.583856716432    -0.057980316062    12.000000000000
         C           -1.681149727608     1.711235283568     0.381212683938    12.000000000000
         C           -3.115636727608    -0.220705716432    -0.112601316062    12.000000000000
         C            0.660375272392    -0.044986716432    -0.021159316062    12.000000000000
         C            2.789706272392    -0.292140716432     0.231415683938    12.000000000000
         C            2.530009272392     0.950098283568    -0.270366316062    12.000000000000
         H           -2.119339727608     2.327161283568    -0.411026316062     1.007825032230
         H           -0.648043727608     2.012912283568     0.519640683938     1.007825032230
         H           -2.247526727608     1.876610283568     1.305190683938     1.007825032230
         H           -3.620553727608    -0.220134716432     0.860386683938     1.007825032230
         H           -3.060919727608    -1.240163716432    -0.488886316062     1.007825032230
         H           -3.683281727608     0.408030283568    -0.805183316062     1.007825032230
         H            3.692186572392    -0.907034716432     0.332565183938     1.007825032230
         H            3.223577272392     1.737401283568    -0.529323316062     1.007825032230

  Basis Set: AUG-CC-PVTZ
    Blend: AUG-CC-PVTZ
  Basis Set: (AUG-CC-PVTZ AUX)
    Blend: AUG-CC-PVTZ-JKFIT
	 Reference Energy          =    -490.6345899652391154 [Eh]
	 Singles Energy            =      -0.0000000000000000 [Eh]
	 Same-Spin Energy          =      -0.5067037248379079 [Eh]
	 Opposite-Spin Energy      =      -1.5504070865830575 [Eh]
	 Correlation Energy        =      -2.0571108114209653 [Eh]
	 Total Energy              =    -492.6917007766600705 [Eh]

	 ================> DF-SCS-MP2 Energies <==================
	-----------------------------------------------------------
	 SCS Same-Spin Scale       =       0.3333333333333333 [-]
	 SCS Opposite-Spin Scale   =       1.2000000000000000 [-]
	 SCS Same-Spin Energy      =      -0.1689012416126360 [Eh]
	 SCS Opposite-Spin Energy  =      -1.8604885038996688 [Eh]
	 SCS Correlation Energy    =      -2.0293897455123049 [Eh]
	 SCS Total Energy          =    -492.6639797107514482 [Eh]
	-----------------------------------------------------------

  Dipole Moment: [D]
     X:     0.3480      Y:     2.7264      Z:     0.7869     Total:     2.8590

*** Psi4 exiting successfully. Buy a developer a beer!
