                               Psi4 1.3.2 release

  ==> Input File <==

--------------------------------------------------------------------------
#psi4
#
memory 32 gb

molecule  {
0 1
  O        1.6580350    -0.9827140     0.3821500
  O       -0.8249020    -1.8470020    -0.1920140
  N       -1.7073370     0.2644950     0.0041840
  N        1.2225400     1.0581630    -0.4400630
  C       -0.7007978    -0.5553623     0.1200885
  C       -1.6242400     1.6701930     0.3734340
  C       -3.0587270    -0.2617480    -0.1203800
  C        0.7172850    -0.0860290    -0.0289380
  C        2.8466160    -0.3331830     0.2236370
  C        2.5869190     0.9090560    -0.2781450
  H       -2.0624300     2.2861190    -0.4188050
  H       -0.5911340     1.9718700     0.5118620
  H       -2.1906170     1.8355680     1.2974120
  H       -3.5636440    -0.2611770     0.8526080
  H       -3.0040100    -1.2812060    -0.4966650
  H       -3.6263720     0.3669880    -0.8129620
  H        3.7338670    -0.8757360     0.5106220
  H        3.2804870     1.6963590    -0.5371020
units angstrom
no_reorient  #important for SAPT in psi4, default
symmetry c1  #important for SAPT in psi4, default
}

set PROPERTIES_ORIGIN ["COM"]
properties('MP2/aug-cc-pvtz', properties = ['dipole'])
--------------------------------------------------------------------------

    Molecular point group: c1
  Charge       = 0
  Multiplicity = 1
  Basis Set: AUG-CC-PVTZ
    Blend: AUG-CC-PVTZ
  Basis Set: (AUG-CC-PVTZ AUX)
    Blend: AUG-CC-PVTZ-JKFIT

    Orbital Energies [Eh]
    ---------------------

    Doubly Occupied:

       1A    -20.651137     2A    -20.511619     3A    -15.620579
       4A    -15.589587     5A    -11.375200     6A    -11.361108
       7A    -11.310148     8A    -11.275686     9A    -11.273748
      10A    -11.267959    11A     -1.495951    12A     -1.350430
      13A     -1.254781    14A     -1.243174    15A     -1.055596
      16A     -0.987566    17A     -0.975672    18A     -0.865591
      19A     -0.843983    20A     -0.780374    21A     -0.734582
      22A     -0.679283    23A     -0.669818    24A     -0.663262
      25A     -0.653730    26A     -0.623225    27A     -0.585416
      28A     -0.576766    29A     -0.571246    30A     -0.562522
      31A     -0.538482    32A     -0.519019    33A     -0.479308
      34A     -0.463435    35A     -0.426678    36A     -0.381348
      37A     -0.347079

  @DF-RHF Final Energy:  -490.60524148978550

   => Energetics <=

    Nuclear Repulsion Energy =            527.9518547473546732
    One-Electron Energy =               -1715.9840190130798874
    Two-Electron Energy =                 697.4269227759397154
    Total Energy =                       -490.6052414897854987
  Basis Set: (AUG-CC-PVTZ AUX)
    Blend: AUG-CC-PVTZ-RI
    Molecular point group: c1

    Geometry (in Angstrom), charge = 0, multiplicity = 1:

       Center              X                  Y                   Z               Mass
    ------------   -----------------  -----------------  -----------------  -----------------
         O            1.603377402003    -0.948150059185     0.372668336790    15.994914619570
         O           -0.879559597997    -1.812438059185    -0.201495663210    15.994914619570
         N           -1.761994597997     0.299058940815    -0.005297663210    14.003074004430
         N            1.167882402003     1.092726940815    -0.449544663210    14.003074004430
         C           -0.755455397997    -0.520798359185     0.110606836790    12.000000000000
         C           -1.678897597997     1.704756940815     0.363952336790    12.000000000000
         C           -3.113384597997    -0.227184059185    -0.129861663210    12.000000000000
         C            0.662627402003    -0.051465059185    -0.038419663210    12.000000000000
         C            2.791958402003    -0.298619059185     0.214155336790    12.000000000000
         C            2.532261402003     0.943619940815    -0.287626663210    12.000000000000
         H           -2.117087597997     2.320682940815    -0.428286663210     1.007825032230
         H           -0.645791597997     2.006433940815     0.502380336790     1.007825032230
         H           -2.245274597997     1.870131940815     1.287930336790     1.007825032230
         H           -3.618301597997    -0.226613059185     0.843126336790     1.007825032230
         H           -3.058667597997    -1.246642059185    -0.506146663210     1.007825032230
         H           -3.681029597997     0.401551940815    -0.822443663210     1.007825032230
         H            3.679209402003    -0.841172059185     0.501140336790     1.007825032230
         H            3.225829402003     1.730922940815    -0.546583663210     1.007825032230

  Basis Set: AUG-CC-PVTZ
    Blend: AUG-CC-PVTZ
  Basis Set: (AUG-CC-PVTZ AUX)
    Blend: AUG-CC-PVTZ-JKFIT
	 Reference Energy          =    -490.6052414897854987 [Eh]
	 Singles Energy            =      -0.0000000000000000 [Eh]
	 Same-Spin Energy          =      -0.5090856960614774 [Eh]
	 Opposite-Spin Energy      =      -1.5559673925071507 [Eh]
	 Correlation Energy        =      -2.0650530885686278 [Eh]
	 Total Energy              =    -492.6702945783541168 [Eh]

	 ================> DF-SCS-MP2 Energies <==================
	-----------------------------------------------------------
	 SCS Same-Spin Scale       =       0.3333333333333333 [-]
	 SCS Opposite-Spin Scale   =       1.2000000000000000 [-]
	 SCS Same-Spin Energy      =      -0.1696952320204924 [Eh]
	 SCS Opposite-Spin Energy  =      -1.8671608710085807 [Eh]
	 SCS Correlation Energy    =      -2.0368561030290731 [Eh]
	 SCS Total Energy          =    -492.6420975928145936 [Eh]
	-----------------------------------------------------------

  Dipole Moment: [D]
     X:    -0.1407      Y:     3.3212      Z:     1.1298     Total:     3.5109

*** Psi4 exiting successfully. Buy a developer a beer!
