                               Psi4 1.3.2 release

  ==> Input File <==

--------------------------------------------------------------------------
#psi4
#
memory 32 gb

molecule  {
0 1
  O        1.6580350    -0.9827140     0.3821500
  O       -0.8249020    -1.8470020    -0.1920140
  N       -1.7073370     0.2644950     0.0041840
  N        1.2225400     1.0581630    -0.4400630
  C       -0.7070495    -0.5379781     0.1665504
  C       -1.6242400     1.6701930     0.3734340
  C       -3.0587270    -0.2617480    -0.1203800
  C        0.7172850    -0.0860290    -0.0289380
  C        2.8466160    -0.3331830     0.2236370
  C        2.5869190     0.9090560    -0.2781450
  H       -2.0624300     2.2861190    -0.4188050
  H       -0.5911340     1.9718700     0.5118620
  H       -2.1906170     1.8355680     1.2974120
  H       -3.5636440    -0.2611770     0.8526080
  H       -3.0040100    -1.2812060    -0.4966650
  H       -3.6263720     0.3669880    -0.8129620
  H        3.7338670    -0.8757360     0.5106220
  H        3.2804870     1.6963590    -0.5371020
units angstrom
no_reorient  #important for SAPT in psi4, default
symmetry c1  #important for SAPT in psi4, default
}

set PROPERTIES_ORIGIN ["COM"]
properties('MP2/aug-cc-pvtz', properties = ['dipole'])
--------------------------------------------------------------------------

    Molecular point group: c1
  Charge       = 0
  Multiplicity = 1
  Basis Set: AUG-CC-PVTZ
    Blend: AUG-CC-PVTZ
  Basis Set: (AUG-CC-PVTZ AUX)
    Blend: AUG-CC-PVTZ-JKFIT

    Orbital Energies [Eh]
    ---------------------

    Doubly Occupied:

       1A    -20.650362     2A    -20.508587     3A    -15.625127
       4A    -15.588812     5A    -11.376053     6A    -11.362776
       7A    -11.309498     8A    -11.275285     9A    -11.275261
      10A    -11.269878    11A     -1.495235    12A     -1.348745
      13A     -1.249213    14A     -1.240787    15A     -1.054608
      16A     -0.990007    17A     -0.978619    18A     -0.864585
      19A     -0.843621    20A     -0.780174    21A     -0.736115
      22A     -0.679855    23A     -0.670849    24A     -0.662905
      25A     -0.653819    26A     -0.623252    27A     -0.584783
      28A     -0.578594    29A     -0.572912    30A     -0.559917
      31A     -0.533009    32A     -0.516004    33A     -0.478730
      34A     -0.462886    35A     -0.422626    36A     -0.380010
      37A     -0.345529

  @DF-RHF Final Energy:  -490.58986298631760

   => Energetics <=

    Nuclear Repulsion Energy =            527.7191305352994277
    One-Electron Energy =               -1715.5199316276537047
    Two-Electron Energy =                 697.2109381060366786
    Total Energy =                       -490.5898629863175984
  Basis Set: (AUG-CC-PVTZ AUX)
    Blend: AUG-CC-PVTZ-RI
    Molecular point group: c1

    Geometry (in Angstrom), charge = 0, multiplicity = 1:

       Center              X                  Y                   Z               Mass
    ------------   -----------------  -----------------  -----------------  -----------------
         O            1.603913037888    -0.949639510269     0.368687553821    15.994914619570
         O           -0.879023962112    -1.813927510269    -0.205476446179    15.994914619570
         N           -1.761458962112     0.297569489731    -0.009278446179    14.003074004430
         N            1.168418037888     1.091237489731    -0.453525446179    14.003074004430
         C           -0.761171462112    -0.504903610269     0.153087953821    12.000000000000
         C           -1.678361962112     1.703267489731     0.359971553821    12.000000000000
         C           -3.112848962112    -0.228673510269    -0.133842446179    12.000000000000
         C            0.663163037888    -0.052954510269    -0.042400446179    12.000000000000
         C            2.792494037888    -0.300108510269     0.210174553821    12.000000000000
         C            2.532797037888     0.942130489731    -0.291607446179    12.000000000000
         H           -2.116551962112     2.319193489731    -0.432267446179     1.007825032230
         H           -0.645255962112     2.004944489731     0.498399553821     1.007825032230
         H           -2.244738962112     1.868642489731     1.283949553821     1.007825032230
         H           -3.617765962112    -0.228102510269     0.839145553821     1.007825032230
         H           -3.058131962112    -1.248131510269    -0.510127446179     1.007825032230
         H           -3.680493962112     0.400062489731    -0.826424446179     1.007825032230
         H            3.679745037888    -0.842661510269     0.497159553821     1.007825032230
         H            3.226365037888     1.729433489731    -0.550564446179     1.007825032230

  Basis Set: AUG-CC-PVTZ
    Blend: AUG-CC-PVTZ
  Basis Set: (AUG-CC-PVTZ AUX)
    Blend: AUG-CC-PVTZ-JKFIT
	 Reference Energy          =    -490.5898629863175984 [Eh]
	 Singles Energy            =      -0.0000000000000000 [Eh]
	 Same-Spin Energy          =      -0.5099652264830815 [Eh]
	 Opposite-Spin Energy      =      -1.5581962290222795 [Eh]
	 Correlation Energy        =      -2.0681614555053609 [Eh]
	 Total Energy              =    -492.6580244418229313 [Eh]

	 ================> DF-SCS-MP2 Energies <==================
	-----------------------------------------------------------
	 SCS Same-Spin Scale       =       0.3333333333333333 [-]
	 SCS Opposite-Spin Scale   =       1.2000000000000000 [-]
	 SCS Same-Spin Energy      =      -0.1699884088276938 [Eh]
	 SCS Opposite-Spin Energy  =      -1.8698354748267354 [Eh]
	 SCS Correlation Energy    =      -2.0398238836544293 [Eh]
	 SCS Total Energy          =    -492.6296868699720335 [Eh]
	-----------------------------------------------------------

  Dipole Moment: [D]
     X:    -0.2627      Y:     3.4232      Z:     1.1528     Total:     3.6216

*** Psi4 exiting successfully. Buy a developer a beer!
