                               Psi4 1.3.2 release

  ==> Input File <==

--------------------------------------------------------------------------
#psi4
#
memory 32 gb

molecule  {
0 1
  O        1.6580350    -0.9827140     0.3821500
  O       -0.8249020    -1.8470020    -0.1920140
  N       -1.7073370     0.2644950     0.0041840
  N        1.2225400     1.0581630    -0.4400630
  C       -0.6882944    -0.5901306     0.0271648
  C       -1.6242400     1.6701930     0.3734340
  C       -3.0587270    -0.2617480    -0.1203800
  C        0.7172850    -0.0860290    -0.0289380
  C        2.8466160    -0.3331830     0.2236370
  C        2.5869190     0.9090560    -0.2781450
  H       -2.0624300     2.2861190    -0.4188050
  H       -0.5911340     1.9718700     0.5118620
  H       -2.1906170     1.8355680     1.2974120
  H       -3.5636440    -0.2611770     0.8526080
  H       -3.0040100    -1.2812060    -0.4966650
  H       -3.6263720     0.3669880    -0.8129620
  H        3.7338670    -0.8757360     0.5106220
  H        3.2804870     1.6963590    -0.5371020
units angstrom
no_reorient  #important for SAPT in psi4, default
symmetry c1  #important for SAPT in psi4, default
}

set PROPERTIES_ORIGIN ["COM"]
properties('MP2/aug-cc-pvtz', properties = ['dipole'])
--------------------------------------------------------------------------

    Molecular point group: c1
  Charge       = 0
  Multiplicity = 1
  Basis Set: AUG-CC-PVTZ
    Blend: AUG-CC-PVTZ
  Basis Set: (AUG-CC-PVTZ AUX)
    Blend: AUG-CC-PVTZ-JKFIT

    Orbital Energies [Eh]
    ---------------------

    Doubly Occupied:

       1A    -20.652523     2A    -20.518962     3A    -15.611299
       4A    -15.590891     5A    -11.374090     6A    -11.358305
       7A    -11.311361     8A    -11.276448     9A    -11.270326
      10A    -11.263813    11A     -1.497291    12A     -1.361512
      13A     -1.261791    14A     -1.244010    15A     -1.057068
      16A     -0.982546    17A     -0.968209    18A     -0.866479
      19A     -0.844287    20A     -0.780743    21A     -0.731040
      22A     -0.679622    23A     -0.668665    24A     -0.662046
      25A     -0.653145    26A     -0.622793    27A     -0.586705
      28A     -0.575406    29A     -0.571734    30A     -0.565846
      31A     -0.541883    32A     -0.526604    33A     -0.480523
      34A     -0.464408    35A     -0.434892    36A     -0.382286
      37A     -0.349595

  @DF-RHF Final Energy:  -490.62742792498165

   => Energetics <=

    Nuclear Repulsion Energy =            528.2562552728239780
    One-Electron Energy =               -1716.5890694783404342
    Two-Electron Energy =                 697.7053862805349809
    Total Energy =                       -490.6274279249815891
  Basis Set: (AUG-CC-PVTZ AUX)
    Blend: AUG-CC-PVTZ-RI
    Molecular point group: c1

    Geometry (in Angstrom), charge = 0, multiplicity = 1:

       Center              X                  Y                   Z               Mass
    ------------   -----------------  -----------------  -----------------  -----------------
         O            1.602306130235    -0.945171165586     0.380629894160    15.994914619570
         O           -0.880630869765    -1.809459165586    -0.193534105840    15.994914619570
         N           -1.763065869765     0.302037834414     0.002663894160    14.003074004430
         N            1.166811130235     1.095705834414    -0.441583105840    14.003074004430
         C           -0.744023269765    -0.552587765586     0.025644694160    12.000000000000
         C           -1.679968869765     1.707735834414     0.371913894160    12.000000000000
         C           -3.114455869765    -0.224205165586    -0.121900105840    12.000000000000
         C            0.661556130235    -0.048486165586    -0.030458105840    12.000000000000
         C            2.790887130235    -0.295640165586     0.222116894160    12.000000000000
         C            2.531190130235     0.946598834414    -0.279665105840    12.000000000000
         H           -2.118158869765     2.323661834414    -0.420325105840     1.007825032230
         H           -0.646862869765     2.009412834414     0.510341894160     1.007825032230
         H           -2.246345869765     1.873110834414     1.295891894160     1.007825032230
         H           -3.619372869765    -0.223634165586     0.851087894160     1.007825032230
         H           -3.059738869765    -1.243663165586    -0.498185105840     1.007825032230
         H           -3.682100869765     0.404530834414    -0.814482105840     1.007825032230
         H            3.678138130235    -0.838193165586     0.509101894160     1.007825032230
         H            3.224758130235     1.733901834414    -0.538622105840     1.007825032230

  Basis Set: AUG-CC-PVTZ
    Blend: AUG-CC-PVTZ
  Basis Set: (AUG-CC-PVTZ AUX)
    Blend: AUG-CC-PVTZ-JKFIT
	 Reference Energy          =    -490.6274279249816459 [Eh]
	 Singles Energy            =      -0.0000000000000000 [Eh]
	 Same-Spin Energy          =      -0.5076076610846989 [Eh]
	 Opposite-Spin Energy      =      -1.5523908646670772 [Eh]
	 Correlation Energy        =      -2.0599985257517761 [Eh]
	 Total Energy              =    -492.6874264507334260 [Eh]

	 ================> DF-SCS-MP2 Energies <==================
	-----------------------------------------------------------
	 SCS Same-Spin Scale       =       0.3333333333333333 [-]
	 SCS Opposite-Spin Scale   =       1.2000000000000000 [-]
	 SCS Same-Spin Energy      =      -0.1692025536948996 [Eh]
	 SCS Opposite-Spin Energy  =      -1.8628690376004926 [Eh]
	 SCS Correlation Energy    =      -2.0320715912953924 [Eh]
	 SCS Total Energy          =    -492.6594995162770374 [Eh]
	-----------------------------------------------------------

  Dipole Moment: [D]
     X:     0.1130      Y:     3.0735      Z:     1.0582     Total:     3.2525

*** Psi4 exiting successfully. Buy a developer a beer!
