                               Psi4 1.3.2 release

  ==> Input File <==

--------------------------------------------------------------------------
#psi4
#
memory 32 gb

molecule  {
0 1
  O        1.6580350    -0.9827140     0.3821500
  O       -0.8249020    -1.8470020    -0.1920140
  N       -1.7073370     0.2644950     0.0041840
  N        1.2225400     1.0581630    -0.4400630
  C       -0.6757910    -0.6248990    -0.0657590
  C       -1.6242400     1.6701930     0.3734340
  C       -3.0587270    -0.2617480    -0.1203800
  C        0.7172368    -0.0675449    -0.2280820
  C        2.8466160    -0.3331830     0.2236370
  C        2.5869190     0.9090560    -0.2781450
  H       -2.0624300     2.2861190    -0.4188050
  H       -0.5911340     1.9718700     0.5118620
  H       -2.1906170     1.8355680     1.2974120
  H       -3.5636440    -0.2611770     0.8526080
  H       -3.0040100    -1.2812060    -0.4966650
  H       -3.6263720     0.3669880    -0.8129620
  H        3.7338670    -0.8757360     0.5106220
  H        3.2804870     1.6963590    -0.5371020
units angstrom
no_reorient  #important for SAPT in psi4, default
symmetry c1  #important for SAPT in psi4, default
}

set PROPERTIES_ORIGIN ["COM"]
properties('MP2/aug-cc-pvtz', properties = ['dipole'])
--------------------------------------------------------------------------

    Molecular point group: c1
  Charge       = 0
  Multiplicity = 1
  Basis Set: AUG-CC-PVTZ
    Blend: AUG-CC-PVTZ
  Basis Set: (AUG-CC-PVTZ AUX)
    Blend: AUG-CC-PVTZ-JKFIT

    Orbital Energies [Eh]
    ---------------------

    Doubly Occupied:

       1A    -20.637061     2A    -20.528362     3A    -15.602516
       4A    -15.593209     5A    -11.375545     6A    -11.353258
       7A    -11.314363     8A    -11.274521     9A    -11.268150
      10A    -11.259962    11A     -1.470125    12A     -1.381748
      13A     -1.272226    14A     -1.251476    15A     -1.051690
      16A     -0.978263    17A     -0.959340    18A     -0.859129
      19A     -0.843514    20A     -0.771375    21A     -0.727051
      22A     -0.673736    23A     -0.665304    24A     -0.660346
      25A     -0.645849    26A     -0.623159    27A     -0.588930
      28A     -0.573971    29A     -0.570495    30A     -0.562882
      31A     -0.542361    32A     -0.532008    33A     -0.486814
      34A     -0.473753    35A     -0.438505    36A     -0.381136
      37A     -0.353334

  @DF-RHF Final Energy:  -490.62116335352187

   => Energetics <=

    Nuclear Repulsion Energy =            527.8072133799432777
    One-Electron Energy =               -1715.7658230982383429
    Two-Electron Energy =                 697.3374463647732000
    Total Energy =                       -490.6211633535218652
  Basis Set: (AUG-CC-PVTZ AUX)
    Blend: AUG-CC-PVTZ-RI
    Molecular point group: c1

    Geometry (in Angstrom), charge = 0, multiplicity = 1:

       Center              X                  Y                   Z               Mass
    ------------   -----------------  -----------------  -----------------  -----------------
         O            1.601238988167    -0.943775952216     0.405653806743    15.994914619570
         O           -0.881698011833    -1.808063952216    -0.168510193257    15.994914619570
         N           -1.764133011833     0.303433047784     0.027687806743    14.003074004430
         N            1.165743988167     1.097101047784    -0.416559193257    14.003074004430
         C           -0.732587011833    -0.585960952216    -0.042255193257    12.000000000000
         C           -1.681036011833     1.709131047784     0.396937806743    12.000000000000
         C           -3.115523011833    -0.222809952216    -0.096876193257    12.000000000000
         C            0.660440788167    -0.028606852216    -0.204578193257    12.000000000000
         C            2.789819988167    -0.294244952216     0.247140806743    12.000000000000
         C            2.530122988167     0.947994047784    -0.254641193257    12.000000000000
         H           -2.119226011833     2.325057047784    -0.395301193257     1.007825032230
         H           -0.647930011833     2.010808047784     0.535365806743     1.007825032230
         H           -2.247413011833     1.874506047784     1.320915806743     1.007825032230
         H           -3.620440011833    -0.222238952216     0.876111806743     1.007825032230
         H           -3.060806011833    -1.242267952216    -0.473161193257     1.007825032230
         H           -3.683168011833     0.405926047784    -0.789458193257     1.007825032230
         H            3.677070988167    -0.836797952216     0.534125806743     1.007825032230
         H            3.223690988167     1.735297047784    -0.513598193257     1.007825032230

  Basis Set: AUG-CC-PVTZ
    Blend: AUG-CC-PVTZ
  Basis Set: (AUG-CC-PVTZ AUX)
    Blend: AUG-CC-PVTZ-JKFIT
	 Reference Energy          =    -490.6211633535218652 [Eh]
	 Singles Energy            =      -0.0000000000000000 [Eh]
	 Same-Spin Energy          =      -0.5061530291038695 [Eh]
	 Opposite-Spin Energy      =      -1.5507995522224487 [Eh]
	 Correlation Energy        =      -2.0569525813263181 [Eh]
	 Total Energy              =    -492.6781159348481651 [Eh]

	 ================> DF-SCS-MP2 Energies <==================
	-----------------------------------------------------------
	 SCS Same-Spin Scale       =       0.3333333333333333 [-]
	 SCS Opposite-Spin Scale   =       1.2000000000000000 [-]
	 SCS Same-Spin Energy      =      -0.1687176763679565 [Eh]
	 SCS Opposite-Spin Energy  =      -1.8609594626669383 [Eh]
	 SCS Correlation Energy    =      -2.0296771390348947 [Eh]
	 SCS Total Energy          =    -492.6508404925567675 [Eh]
	-----------------------------------------------------------

  Dipole Moment: [D]
     X:     0.1823      Y:     2.9530      Z:     0.7297     Total:     3.0472

*** Psi4 exiting successfully. Buy a developer a beer!
