                               Psi4 1.3.2 release

  ==> Input File <==

--------------------------------------------------------------------------
#psi4
#
memory 32 gb

molecule  {
1 1
  C        1.9603260    -0.0474630     0.0649610
  C       -0.5119490    -0.0070210    -0.0238890
  N        0.6418760    -0.6705780    -0.0750100
  N       -0.5227960     1.3301210    -0.0115770
  N       -1.6686961    -0.6774439     0.0885655
  H        0.6032940    -1.6549680    -0.3141340
  H        0.2902210     1.8677740    -0.2812470
  H       -1.3594750     1.8446160     0.2321210
  H       -1.6988330    -1.6603540     0.2762120
  H       -2.5540630    -0.2212690    -0.1512530
  H        1.9599500     0.6280700     0.9221430
  H        2.2491870     0.4866410    -0.8442620
  H        2.6839440    -0.8393840     0.2497200
units angstrom
no_reorient  #important for SAPT in psi4, default
symmetry c1  #important for SAPT in psi4, default
}

set PROPERTIES_ORIGIN ["COM"]
properties('MP2/aug-cc-pvtz', properties = ['dipole'])
--------------------------------------------------------------------------

    Molecular point group: c1
  Charge       = 1
  Multiplicity = 1
  Basis Set: AUG-CC-PVTZ
    Blend: AUG-CC-PVTZ
  Basis Set: (AUG-CC-PVTZ AUX)
    Blend: AUG-CC-PVTZ-JKFIT

    Orbital Energies [Eh]
    ---------------------

    Doubly Occupied:

       1A    -15.790476     2A    -15.790090     3A    -15.786879
       4A    -11.595370     5A    -11.436203     6A     -1.537974
       7A     -1.402204     8A     -1.388486     9A     -1.144315
      10A     -1.043312    11A     -0.976876    12A     -0.935455
      13A     -0.872550    14A     -0.862601    15A     -0.819315
      16A     -0.792290    17A     -0.742361    18A     -0.727436
      19A     -0.623794    20A     -0.593936

  @DF-RHF Final Energy:  -243.65673546283423

   => Energetics <=

    Nuclear Repulsion Energy =            192.7976518474103500
    One-Electron Energy =                -703.1849270902057469
    Two-Electron Energy =                 266.7305397799611910
    Total Energy =                       -243.6567354628342059
  Basis Set: (AUG-CC-PVTZ AUX)
    Blend: AUG-CC-PVTZ-RI
    Molecular point group: c1

    Geometry (in Angstrom), charge = 1, multiplicity = 1:

       Center              X                  Y                   Z               Mass
    ------------   -----------------  -----------------  -----------------  -----------------
         C            1.989049831557    -0.041390251441     0.056718083347    12.000000000000
         C           -0.483225168443    -0.000948251441    -0.032131916653    12.000000000000
         N            0.670599831557    -0.664505251441    -0.083252916653    14.003074004430
         N           -0.494072168443     1.336193748559    -0.019819916653    14.003074004430
         N           -1.639972268443    -0.671371151441     0.080322583347    14.003074004430
         H            0.632017831557    -1.648895251441    -0.322376916653     1.007825032230
         H            0.318944831557     1.873846748559    -0.289489916653     1.007825032230
         H           -1.330751168443     1.850688748559     0.223878083347     1.007825032230
         H           -1.670109168443    -1.654281251441     0.267969083347     1.007825032230
         H           -2.525339168443    -0.215196251441    -0.159495916653     1.007825032230
         H            1.988673831557     0.634142748559     0.913900083347     1.007825032230
         H            2.277910831557     0.492713748559    -0.852504916653     1.007825032230
         H            2.712667831557    -0.833311251441     0.241477083347     1.007825032230

  Basis Set: AUG-CC-PVTZ
    Blend: AUG-CC-PVTZ
  Basis Set: (AUG-CC-PVTZ AUX)
    Blend: AUG-CC-PVTZ-JKFIT
	 Reference Energy          =    -243.6567354628342343 [Eh]
	 Singles Energy            =      -0.0000000000000000 [Eh]
	 Same-Spin Energy          =      -0.2453001584705885 [Eh]
	 Opposite-Spin Energy      =      -0.8094057570634823 [Eh]
	 Correlation Energy        =      -1.0547059155340708 [Eh]
	 Total Energy              =    -244.7114413783683062 [Eh]

	 ================> DF-SCS-MP2 Energies <==================
	-----------------------------------------------------------
	 SCS Same-Spin Scale       =       0.3333333333333333 [-]
	 SCS Opposite-Spin Scale   =       1.2000000000000000 [-]
	 SCS Same-Spin Energy      =      -0.0817667194901962 [Eh]
	 SCS Opposite-Spin Energy  =      -0.9712869084761787 [Eh]
	 SCS Correlation Energy    =      -1.0530536279663749 [Eh]
	 SCS Total Energy          =    -244.7097890908005979 [Eh]
	-----------------------------------------------------------

  Dipole Moment: [D]
     X:    -1.1812      Y:     0.0115      Z:    -0.3046     Total:     1.2200

*** Psi4 exiting successfully. Buy a developer a beer!
