                               Psi4 1.3.2 release

  ==> Input File <==

--------------------------------------------------------------------------
#psi4
#
memory 32 gb

molecule  {
1 1
  C        1.9603260    -0.0474630     0.0649610
  C       -0.5119490    -0.0070210    -0.0238890
  N        0.6418760    -0.6705780    -0.0750100
  N       -0.5227960     1.3301210    -0.0115770
  N       -1.6711500    -0.6772890     0.0386260
  H        0.6032940    -1.6549680    -0.3141340
  H        0.2902210     1.8677740    -0.2812470
  H       -1.3000587     1.8454083     0.4230898
  H       -1.6988330    -1.6603540     0.2762120
  H       -2.5540630    -0.2212690    -0.1512530
  H        1.9599500     0.6280700     0.9221430
  H        2.2491870     0.4866410    -0.8442620
  H        2.6839440    -0.8393840     0.2497200
units angstrom
no_reorient  #important for SAPT in psi4, default
symmetry c1  #important for SAPT in psi4, default
}

set PROPERTIES_ORIGIN ["COM"]
properties('MP2/aug-cc-pvtz', properties = ['dipole'])
--------------------------------------------------------------------------

    Molecular point group: c1
  Charge       = 1
  Multiplicity = 1
  Basis Set: AUG-CC-PVTZ
    Blend: AUG-CC-PVTZ
  Basis Set: (AUG-CC-PVTZ AUX)
    Blend: AUG-CC-PVTZ-JKFIT

    Orbital Energies [Eh]
    ---------------------

    Doubly Occupied:

       1A    -15.791053     2A    -15.789412     3A    -15.786741
       4A    -11.594987     5A    -11.436521     6A     -1.537445
       7A     -1.401746     8A     -1.386794     9A     -1.144601
      10A     -1.040857    11A     -0.973042    12A     -0.938279
      13A     -0.875429    14A     -0.860543    15A     -0.813216
      16A     -0.793482    17A     -0.739717    18A     -0.727705
      19A     -0.624507    20A     -0.593773

  @DF-RHF Final Energy:  -243.65540951525122

   => Energetics <=

    Nuclear Repulsion Energy =            192.7451458447987136
    One-Electron Energy =                -703.1014111327012870
    Two-Electron Energy =                 266.7008557726513800
    Total Energy =                       -243.6554095152512218
  Basis Set: (AUG-CC-PVTZ AUX)
    Blend: AUG-CC-PVTZ-RI
    Molecular point group: c1

    Geometry (in Angstrom), charge = 1, multiplicity = 1:

       Center              X                  Y                   Z               Mass
    ------------   -----------------  -----------------  -----------------  -----------------
         C            1.988705313353    -0.041430314934     0.063560676950    12.000000000000
         C           -0.483569686647    -0.000988314934    -0.025289323050    12.000000000000
         N            0.670255313353    -0.664545314934    -0.076410323050    14.003074004430
         N           -0.494416686647     1.336153685066    -0.012977323050    14.003074004430
         N           -1.642770686647    -0.671256314934     0.037225676950    14.003074004430
         H            0.631673313353    -1.648935314934    -0.315534323050     1.007825032230
         H            0.318600313353     1.873806685066    -0.282647323050     1.007825032230
         H           -1.271679386647     1.851440985066     0.421689476950     1.007825032230
         H           -1.670453686647    -1.654321314934     0.274811676950     1.007825032230
         H           -2.525683686647    -0.215236314934    -0.152653323050     1.007825032230
         H            1.988329313353     0.634102685066     0.920742676950     1.007825032230
         H            2.277566313353     0.492673685066    -0.845662323050     1.007825032230
         H            2.712323313353    -0.833351314934     0.248319676950     1.007825032230

  Basis Set: AUG-CC-PVTZ
    Blend: AUG-CC-PVTZ
  Basis Set: (AUG-CC-PVTZ AUX)
    Blend: AUG-CC-PVTZ-JKFIT
	 Reference Energy          =    -243.6554095152512218 [Eh]
	 Singles Energy            =      -0.0000000000000000 [Eh]
	 Same-Spin Energy          =      -0.2454915037400439 [Eh]
	 Opposite-Spin Energy      =      -0.8098198127201649 [Eh]
	 Correlation Energy        =      -1.0553113164602088 [Eh]
	 Total Energy              =    -244.7107208317114271 [Eh]

	 ================> DF-SCS-MP2 Energies <==================
	-----------------------------------------------------------
	 SCS Same-Spin Scale       =       0.3333333333333333 [-]
	 SCS Opposite-Spin Scale   =       1.2000000000000000 [-]
	 SCS Same-Spin Energy      =      -0.0818305012466813 [Eh]
	 SCS Opposite-Spin Energy  =      -0.9717837752641978 [Eh]
	 SCS Correlation Energy    =      -1.0536142765108791 [Eh]
	 SCS Total Energy          =    -244.7090237917620925 [Eh]
	-----------------------------------------------------------

  Dipole Moment: [D]
     X:    -1.0900      Y:    -0.0218      Z:     0.1258     Total:     1.0974

*** Psi4 exiting successfully. Buy a developer a beer!
