                               Psi4 1.3.2 release

  ==> Input File <==

--------------------------------------------------------------------------
#psi4
#
memory 32 gb

molecule  {
1 1
  C        1.9603260    -0.0474630     0.0649610
  C       -0.5119490    -0.0070210    -0.0238890
  N        0.6418760    -0.6705780    -0.0750100
  N       -0.5227960     1.3301210    -0.0115770
  N       -1.6711500    -0.6772890     0.0386260
  H        0.5917610    -1.7145192    -0.0203302
  H        0.2902210     1.8677740    -0.2812470
  H       -1.3594750     1.8446160     0.2321210
  H       -1.6988330    -1.6603540     0.2762120
  H       -2.5540630    -0.2212690    -0.1512530
  H        1.9599500     0.6280700     0.9221430
  H        2.2491870     0.4866410    -0.8442620
  H        2.6839440    -0.8393840     0.2497200
units angstrom
no_reorient  #important for SAPT in psi4, default
symmetry c1  #important for SAPT in psi4, default
}

set PROPERTIES_ORIGIN ["COM"]
properties('MP2/aug-cc-pvtz', properties = ['dipole'])
--------------------------------------------------------------------------

    Molecular point group: c1
  Charge       = 1
  Multiplicity = 1
  Basis Set: AUG-CC-PVTZ
    Blend: AUG-CC-PVTZ
  Basis Set: (AUG-CC-PVTZ AUX)
    Blend: AUG-CC-PVTZ-JKFIT

    Orbital Energies [Eh]
    ---------------------

    Doubly Occupied:

       1A    -15.793044     2A    -15.789485     3A    -15.786601
       4A    -11.594958     5A    -11.436299     6A     -1.537262
       7A     -1.399790     8A     -1.388249     9A     -1.144478
      10A     -1.039052    11A     -0.972687    12A     -0.937815
      13A     -0.870096    14A     -0.860406    15A     -0.816560
      16A     -0.797159    17A     -0.741577    18A     -0.725464
      19A     -0.624290    20A     -0.592562

  @DF-RHF Final Energy:  -243.65437753745627

   => Energetics <=

    Nuclear Repulsion Energy =            192.6675850967207566
    One-Electron Energy =                -702.9482623941742077
    Two-Electron Energy =                 266.6262997599971527
    Total Energy =                       -243.6543775374562983
  Basis Set: (AUG-CC-PVTZ AUX)
    Blend: AUG-CC-PVTZ-RI
    Molecular point group: c1

    Geometry (in Angstrom), charge = 1, multiplicity = 1:

       Center              X                  Y                   Z               Mass
    ------------   -----------------  -----------------  -----------------  -----------------
         C            1.989670653187    -0.040609278162     0.062161498639    12.000000000000
         C           -0.482604346813    -0.000167278162    -0.026688501361    12.000000000000
         N            0.671220653187    -0.663724278162    -0.077809501361    14.003074004430
         N           -0.493451346813     1.336974721838    -0.014376501361    14.003074004430
         N           -1.641805346813    -0.670435278162     0.035826498639    14.003074004430
         H            0.621105653187    -1.707665478162    -0.023129701361     1.007825032230
         H            0.319565653187     1.874627721838    -0.284046501361     1.007825032230
         H           -1.330130346813     1.851469721838     0.229321498639     1.007825032230
         H           -1.669488346813    -1.653500278162     0.273412498639     1.007825032230
         H           -2.524718346813    -0.214415278162    -0.154052501361     1.007825032230
         H            1.989294653187     0.634923721838     0.919343498639     1.007825032230
         H            2.278531653187     0.493494721838    -0.847061501361     1.007825032230
         H            2.713288653187    -0.832530278162     0.246920498639     1.007825032230

  Basis Set: AUG-CC-PVTZ
    Blend: AUG-CC-PVTZ
  Basis Set: (AUG-CC-PVTZ AUX)
    Blend: AUG-CC-PVTZ-JKFIT
	 Reference Energy          =    -243.6543775374562699 [Eh]
	 Singles Energy            =      -0.0000000000000000 [Eh]
	 Same-Spin Energy          =      -0.2454322554742030 [Eh]
	 Opposite-Spin Energy      =      -0.8097547528429282 [Eh]
	 Correlation Energy        =      -1.0551870083171311 [Eh]
	 Total Energy              =    -244.7095645457733895 [Eh]

	 ================> DF-SCS-MP2 Energies <==================
	-----------------------------------------------------------
	 SCS Same-Spin Scale       =       0.3333333333333333 [-]
	 SCS Opposite-Spin Scale   =       1.2000000000000000 [-]
	 SCS Same-Spin Energy      =      -0.0818107518247343 [Eh]
	 SCS Opposite-Spin Energy  =      -0.9717057034115137 [Eh]
	 SCS Correlation Energy    =      -1.0535164552362482 [Eh]
	 SCS Total Energy          =    -244.7078939926925045 [Eh]
	-----------------------------------------------------------

  Dipole Moment: [D]
     X:    -1.1790      Y:    -0.0692      Z:     0.2333     Total:     1.2039

*** Psi4 exiting successfully. Buy a developer a beer!
