                               Psi4 1.3.2 release

  ==> Input File <==

--------------------------------------------------------------------------
#psi4
#
memory 32 gb

molecule  {
1 1
  C        1.9603260    -0.0474630     0.0649610
  C       -0.5119490    -0.0070210    -0.0238890
  N        0.6418760    -0.6705780    -0.0750100
  N       -0.5227960     1.3301210    -0.0115770
  N       -1.6711500    -0.6772890     0.0386260
  H        0.6032940    -1.6549680    -0.3141340
  H        0.2902210     1.8677740    -0.2812470
  H       -1.3297668     1.8450121     0.3276054
  H       -1.6988330    -1.6603540     0.2762120
  H       -2.5540630    -0.2212690    -0.1512530
  H        1.9599500     0.6280700     0.9221430
  H        2.2491870     0.4866410    -0.8442620
  H        2.6839440    -0.8393840     0.2497200
units angstrom
no_reorient  #important for SAPT in psi4, default
symmetry c1  #important for SAPT in psi4, default
}

set PROPERTIES_ORIGIN ["COM"]
properties('MP2/aug-cc-pvtz', properties = ['dipole'])
--------------------------------------------------------------------------

    Molecular point group: c1
  Charge       = 1
  Multiplicity = 1
  Basis Set: AUG-CC-PVTZ
    Blend: AUG-CC-PVTZ
  Basis Set: (AUG-CC-PVTZ AUX)
    Blend: AUG-CC-PVTZ-JKFIT

    Orbital Energies [Eh]
    ---------------------

    Doubly Occupied:

       1A    -15.790489     2A    -15.789554     3A    -15.786739
       4A    -11.595150     5A    -11.436342     6A     -1.537854
       7A     -1.402179     8A     -1.387970     9A     -1.144635
      10A     -1.042160    11A     -0.974718    12A     -0.938702
      13A     -0.874990    14A     -0.861807    15A     -0.815347
      16A     -0.793674    17A     -0.741030    18A     -0.727563
      19A     -0.624362    20A     -0.593585

  @DF-RHF Final Energy:  -243.65672493298882

   => Energetics <=

    Nuclear Repulsion Energy =            192.8046957675430235
    One-Electron Energy =                -703.2051427980873086
    Two-Electron Energy =                 266.7437220975554624
    Total Energy =                       -243.6567249329888227
  Basis Set: (AUG-CC-PVTZ AUX)
    Blend: AUG-CC-PVTZ-RI
    Molecular point group: c1

    Geometry (in Angstrom), charge = 1, multiplicity = 1:

       Center              X                  Y                   Z               Mass
    ------------   -----------------  -----------------  -----------------  -----------------
         C            1.989109523293    -0.041424924216     0.064859842619    12.000000000000
         C           -0.483165476707    -0.000982924216    -0.023990157381    12.000000000000
         N            0.670659523293    -0.664539924216    -0.075111157381    14.003074004430
         N           -0.494012476707     1.336159075784    -0.011678157381    14.003074004430
         N           -1.642366476707    -0.671250924216     0.038524842619    14.003074004430
         H            0.632077523293    -1.648929924216    -0.314235157381     1.007825032230
         H            0.319004523293     1.873812075784    -0.281348157381     1.007825032230
         H           -1.300983276707     1.851050175784     0.327504242619     1.007825032230
         H           -1.670049476707    -1.654315924216     0.276110842619     1.007825032230
         H           -2.525279476707    -0.215230924216    -0.151354157381     1.007825032230
         H            1.988733523293     0.634108075784     0.922041842619     1.007825032230
         H            2.277970523293     0.492679075784    -0.844363157381     1.007825032230
         H            2.712727523293    -0.833345924216     0.249618842619     1.007825032230

  Basis Set: AUG-CC-PVTZ
    Blend: AUG-CC-PVTZ
  Basis Set: (AUG-CC-PVTZ AUX)
    Blend: AUG-CC-PVTZ-JKFIT
	 Reference Energy          =    -243.6567249329888227 [Eh]
	 Singles Energy            =      -0.0000000000000000 [Eh]
	 Same-Spin Energy          =      -0.2453539020941811 [Eh]
	 Opposite-Spin Energy      =      -0.8094823147858818 [Eh]
	 Correlation Energy        =      -1.0548362168800629 [Eh]
	 Total Energy              =    -244.7115611498688850 [Eh]

	 ================> DF-SCS-MP2 Energies <==================
	-----------------------------------------------------------
	 SCS Same-Spin Scale       =       0.3333333333333333 [-]
	 SCS Opposite-Spin Scale   =       1.2000000000000000 [-]
	 SCS Same-Spin Energy      =      -0.0817846340313937 [Eh]
	 SCS Opposite-Spin Energy  =      -0.9713787777430581 [Eh]
	 SCS Correlation Energy    =      -1.0531634117744519 [Eh]
	 SCS Total Energy          =    -244.7098883447632716 [Eh]
	-----------------------------------------------------------

  Dipole Moment: [D]
     X:    -1.1423      Y:     0.0018      Z:    -0.0131     Total:     1.1424

*** Psi4 exiting successfully. Buy a developer a beer!
