                               Psi4 1.3.2 release

  ==> Input File <==

--------------------------------------------------------------------------
#psi4
#
memory 32 gb

molecule  {
1 1
  C        1.9603260    -0.0474630     0.0649610
  C       -0.5119490    -0.0070210    -0.0238890
  N        0.6418760    -0.6705780    -0.0750100
  N       -0.5227960     1.3301210    -0.0115770
  N       -1.6662422    -0.6775987     0.1385050
  H        0.6032940    -1.6549680    -0.3141340
  H        0.2902210     1.8677740    -0.2812470
  H       -1.3594750     1.8446160     0.2321210
  H       -1.6988330    -1.6603540     0.2762120
  H       -2.5540630    -0.2212690    -0.1512530
  H        1.9599500     0.6280700     0.9221430
  H        2.2491870     0.4866410    -0.8442620
  H        2.6839440    -0.8393840     0.2497200
units angstrom
no_reorient  #important for SAPT in psi4, default
symmetry c1  #important for SAPT in psi4, default
}

set PROPERTIES_ORIGIN ["COM"]
properties('MP2/aug-cc-pvtz', properties = ['dipole'])
--------------------------------------------------------------------------

    Molecular point group: c1
  Charge       = 1
  Multiplicity = 1
  Basis Set: AUG-CC-PVTZ
    Blend: AUG-CC-PVTZ
  Basis Set: (AUG-CC-PVTZ AUX)
    Blend: AUG-CC-PVTZ-JKFIT

    Orbital Energies [Eh]
    ---------------------

    Doubly Occupied:

       1A    -15.791086     2A    -15.790496     3A    -15.787294
       4A    -11.595718     5A    -11.436383     6A     -1.537732
       7A     -1.402082     8A     -1.388208     9A     -1.144142
      10A     -1.043864    11A     -0.977771    12A     -0.931293
      13A     -0.871650    14A     -0.861815    15A     -0.821363
      16A     -0.790696    17A     -0.742525    18A     -0.727577
      19A     -0.623714    20A     -0.594749

  @DF-RHF Final Energy:  -243.65520940720933

   => Energetics <=

    Nuclear Repulsion Energy =            192.7233565383071721
    One-Electron Energy =                -703.0368133015081185
    Two-Electron Energy =                 266.6582473559916480
    Total Energy =                       -243.6552094072093269
  Basis Set: (AUG-CC-PVTZ AUX)
    Blend: AUG-CC-PVTZ-RI
    Molecular point group: c1

    Geometry (in Angstrom), charge = 1, multiplicity = 1:

       Center              X                  Y                   Z               Mass
    ------------   -----------------  -----------------  -----------------  -----------------
         C            1.988585928520    -0.041360986927     0.047277158407    12.000000000000
         C           -0.483689071480    -0.000918986927    -0.041572841593    12.000000000000
         N            0.670135928520    -0.664475986927    -0.092693841593    14.003074004430
         N           -0.494536071480     1.336223013073    -0.029260841593    14.003074004430
         N           -1.637982271480    -0.671496686927     0.120821158407    14.003074004430
         H            0.631553928520    -1.648865986927    -0.331817841593     1.007825032230
         H            0.318480928520     1.873876013073    -0.298930841593     1.007825032230
         H           -1.331215071480     1.850718013073     0.214437158407     1.007825032230
         H           -1.670573071480    -1.654251986927     0.258528158407     1.007825032230
         H           -2.525803071480    -0.215166986927    -0.168936841593     1.007825032230
         H            1.988209928520     0.634172013073     0.904459158407     1.007825032230
         H            2.277446928520     0.492743013073    -0.861945841593     1.007825032230
         H            2.712203928520    -0.833281986927     0.232036158407     1.007825032230

  Basis Set: AUG-CC-PVTZ
    Blend: AUG-CC-PVTZ
  Basis Set: (AUG-CC-PVTZ AUX)
    Blend: AUG-CC-PVTZ-JKFIT
	 Reference Energy          =    -243.6552094072093269 [Eh]
	 Singles Energy            =      -0.0000000000000000 [Eh]
	 Same-Spin Energy          =      -0.2453620370861467 [Eh]
	 Opposite-Spin Energy      =      -0.8096532222385801 [Eh]
	 Correlation Energy        =      -1.0550152593247266 [Eh]
	 Total Energy              =    -244.7102246665340601 [Eh]

	 ================> DF-SCS-MP2 Energies <==================
	-----------------------------------------------------------
	 SCS Same-Spin Scale       =       0.3333333333333333 [-]
	 SCS Opposite-Spin Scale   =       1.2000000000000000 [-]
	 SCS Same-Spin Energy      =      -0.0817873456953822 [Eh]
	 SCS Opposite-Spin Energy  =      -0.9715838666862960 [Eh]
	 SCS Correlation Energy    =      -1.0533712123816783 [Eh]
	 SCS Total Energy          =    -244.7085806195910038 [Eh]
	-----------------------------------------------------------

  Dipole Moment: [D]
     X:    -1.1538      Y:     0.0140      Z:    -0.4563     Total:     1.2408

*** Psi4 exiting successfully. Buy a developer a beer!
