                               Psi4 1.3.2 release

  ==> Input File <==

--------------------------------------------------------------------------
#psi4
#
memory 32 gb

molecule  {
1 1
  C        1.9603260    -0.0474630     0.0649610
  C       -0.5119490    -0.0070210    -0.0238890
  N        0.6418760    -0.6705780    -0.0750100
  N       -0.5227960     1.3301210    -0.0115770
  N       -1.6711500    -0.6772890     0.0386260
  H        0.5994497    -1.6748184    -0.2161994
  H        0.2902210     1.8677740    -0.2812470
  H       -1.3594750     1.8446160     0.2321210
  H       -1.6988330    -1.6603540     0.2762120
  H       -2.5540630    -0.2212690    -0.1512530
  H        1.9599500     0.6280700     0.9221430
  H        2.2491870     0.4866410    -0.8442620
  H        2.6839440    -0.8393840     0.2497200
units angstrom
no_reorient  #important for SAPT in psi4, default
symmetry c1  #important for SAPT in psi4, default
}

set PROPERTIES_ORIGIN ["COM"]
properties('MP2/aug-cc-pvtz', properties = ['dipole'])
--------------------------------------------------------------------------

    Molecular point group: c1
  Charge       = 1
  Multiplicity = 1
  Basis Set: AUG-CC-PVTZ
    Blend: AUG-CC-PVTZ
  Basis Set: (AUG-CC-PVTZ AUX)
    Blend: AUG-CC-PVTZ-JKFIT

    Orbital Energies [Eh]
    ---------------------

    Doubly Occupied:

       1A    -15.790564     2A    -15.789781     3A    -15.786624
       4A    -11.595126     5A    -11.436406     6A     -1.538011
       7A     -1.402281     8A     -1.388334     9A     -1.144712
      10A     -1.042650    11A     -0.975710    12A     -0.938531
      13A     -0.871796    14A     -0.862733    15A     -0.816754
      16A     -0.796218    17A     -0.742025    18A     -0.727300
      19A     -0.624278    20A     -0.593052

  @DF-RHF Final Energy:  -243.65724517962698

   => Energetics <=

    Nuclear Repulsion Energy =            192.8153596635334850
    One-Electron Energy =                -703.2194424175830818
    Two-Electron Energy =                 266.7468375744225568
    Total Energy =                       -243.6572451796270116
  Basis Set: (AUG-CC-PVTZ AUX)
    Blend: AUG-CC-PVTZ-RI
    Molecular point group: c1

    Geometry (in Angstrom), charge = 1, multiplicity = 1:

       Center              X                  Y                   Z               Mass
    ------------   -----------------  -----------------  -----------------  -----------------
         C            1.989566040338    -0.041149449294     0.064826505071    12.000000000000
         C           -0.482708959662    -0.000707449294    -0.024023494929    12.000000000000
         N            0.671116040338    -0.664264449294    -0.075144494929    14.003074004430
         N           -0.493555959662     1.336434550706    -0.011711494929    14.003074004430
         N           -1.641909959662    -0.670975449294     0.038491505071    14.003074004430
         H            0.628689740338    -1.668504849294    -0.216333894929     1.007825032230
         H            0.319461040338     1.874087550706    -0.281381494929     1.007825032230
         H           -1.330234959662     1.850929550706     0.231986505071     1.007825032230
         H           -1.669592959662    -1.654040449294     0.276077505071     1.007825032230
         H           -2.524822959662    -0.214955449294    -0.151387494929     1.007825032230
         H            1.989190040338     0.634383550706     0.922008505071     1.007825032230
         H            2.278427040338     0.492954550706    -0.844396494929     1.007825032230
         H            2.713184040338    -0.833070449294     0.249585505071     1.007825032230

  Basis Set: AUG-CC-PVTZ
    Blend: AUG-CC-PVTZ
  Basis Set: (AUG-CC-PVTZ AUX)
    Blend: AUG-CC-PVTZ-JKFIT
	 Reference Energy          =    -243.6572451796269831 [Eh]
	 Singles Energy            =      -0.0000000000000000 [Eh]
	 Same-Spin Energy          =      -0.2452560256808463 [Eh]
	 Opposite-Spin Energy      =      -0.8092801890462802 [Eh]
	 Correlation Energy        =      -1.0545362147271264 [Eh]
	 Total Energy              =    -244.7117813943541194 [Eh]

	 ================> DF-SCS-MP2 Energies <==================
	-----------------------------------------------------------
	 SCS Same-Spin Scale       =       0.3333333333333333 [-]
	 SCS Opposite-Spin Scale   =       1.2000000000000000 [-]
	 SCS Same-Spin Energy      =      -0.0817520085602821 [Eh]
	 SCS Opposite-Spin Energy  =      -0.9711362268555361 [Eh]
	 SCS Correlation Energy    =      -1.0528882354158182 [Eh]
	 SCS Total Energy          =    -244.7101334150428045 [Eh]
	-----------------------------------------------------------

  Dipole Moment: [D]
     X:    -1.1789      Y:    -0.0195      Z:    -0.0240     Total:     1.1793

*** Psi4 exiting successfully. Buy a developer a beer!
