                               Psi4 1.3.2 release

  ==> Input File <==

--------------------------------------------------------------------------
#psi4
#
memory 32 gb

molecule  {
1 1
  C        1.9603260    -0.0474630     0.0649610
  C       -0.5119490    -0.0070210    -0.0238890
  N        0.6418760    -0.6705780    -0.0750100
  N       -0.5227960     1.3301210    -0.0115770
  N       -1.6637883    -0.6777536     0.1884445
  H        0.6032940    -1.6549680    -0.3141340
  H        0.2902210     1.8677740    -0.2812470
  H       -1.3594750     1.8446160     0.2321210
  H       -1.6988330    -1.6603540     0.2762120
  H       -2.5540630    -0.2212690    -0.1512530
  H        1.9599500     0.6280700     0.9221430
  H        2.2491870     0.4866410    -0.8442620
  H        2.6839440    -0.8393840     0.2497200
units angstrom
no_reorient  #important for SAPT in psi4, default
symmetry c1  #important for SAPT in psi4, default
}

set PROPERTIES_ORIGIN ["COM"]
properties('MP2/aug-cc-pvtz', properties = ['dipole'])
--------------------------------------------------------------------------

    Molecular point group: c1
  Charge       = 1
  Multiplicity = 1
  Basis Set: AUG-CC-PVTZ
    Blend: AUG-CC-PVTZ
  Basis Set: (AUG-CC-PVTZ AUX)
    Blend: AUG-CC-PVTZ-JKFIT

    Orbital Energies [Eh]
    ---------------------

    Doubly Occupied:

       1A    -15.791965     2A    -15.791192     3A    -15.788046
       4A    -11.596263     5A    -11.436721     6A     -1.537353
       7A     -1.402071     8A     -1.387509     9A     -1.144075
      10A     -1.044257    11A     -0.978225    12A     -0.926680
      13A     -0.870434    14A     -0.859977    15A     -0.823330
      16A     -0.788947    17A     -0.742562    18A     -0.727841
      19A     -0.624061    20A     -0.595775

  @DF-RHF Final Energy:  -243.65266025786246

   => Energetics <=

    Nuclear Repulsion Energy =            192.5988991560261923
    One-Electron Energy =                -702.7885529644006510
    Two-Electron Energy =                 266.5369935505120225
    Total Energy =                       -243.6526602578624647
  Basis Set: (AUG-CC-PVTZ AUX)
    Blend: AUG-CC-PVTZ-RI
    Molecular point group: c1

    Geometry (in Angstrom), charge = 1, multiplicity = 1:

       Center              X                  Y                   Z               Mass
    ------------   -----------------  -----------------  -----------------  -----------------
         C            1.988122025483    -0.041331703509     0.037836233467    12.000000000000
         C           -0.484152974517    -0.000889703509    -0.051013766533    12.000000000000
         N            0.669672025483    -0.664446703509    -0.102134766533    14.003074004430
         N           -0.494999974517     1.336252296491    -0.038701766533    14.003074004430
         N           -1.635992274517    -0.671622303509     0.161319733467    14.003074004430
         H            0.631090025483    -1.648836703509    -0.341258766533     1.007825032230
         H            0.318017025483     1.873905296491    -0.308371766533     1.007825032230
         H           -1.331678974517     1.850747296491     0.204996233467     1.007825032230
         H           -1.671036974517    -1.654222703509     0.249087233467     1.007825032230
         H           -2.526266974517    -0.215137703509    -0.178377766533     1.007825032230
         H            1.987746025483     0.634201296491     0.895018233467     1.007825032230
         H            2.276983025483     0.492772296491    -0.871386766533     1.007825032230
         H            2.711740025483    -0.833252703509     0.222595233467     1.007825032230

  Basis Set: AUG-CC-PVTZ
    Blend: AUG-CC-PVTZ
  Basis Set: (AUG-CC-PVTZ AUX)
    Blend: AUG-CC-PVTZ-JKFIT
	 Reference Energy          =    -243.6526602578624647 [Eh]
	 Singles Energy            =      -0.0000000000000000 [Eh]
	 Same-Spin Energy          =      -0.2454628750865633 [Eh]
	 Opposite-Spin Energy      =      -0.8100597168182527 [Eh]
	 Correlation Energy        =      -1.0555225919048161 [Eh]
	 Total Energy              =    -244.7081828497672689 [Eh]

	 ================> DF-SCS-MP2 Energies <==================
	-----------------------------------------------------------
	 SCS Same-Spin Scale       =       0.3333333333333333 [-]
	 SCS Opposite-Spin Scale   =       1.2000000000000000 [-]
	 SCS Same-Spin Energy      =      -0.0818209583621878 [Eh]
	 SCS Opposite-Spin Energy  =      -0.9720716601819033 [Eh]
	 SCS Correlation Energy    =      -1.0538926185440911 [Eh]
	 SCS Total Energy          =    -244.7065528764065618 [Eh]
	-----------------------------------------------------------

  Dipole Moment: [D]
     X:    -1.1093      Y:     0.0250      Z:    -0.6074     Total:     1.2650

*** Psi4 exiting successfully. Buy a developer a beer!
