                               Psi4 1.3.2 release

  ==> Input File <==

--------------------------------------------------------------------------
#psi4
#
memory 32 gb

molecule  {
1 1
  C        1.9603260    -0.0474630     0.0649610
  C       -0.5119490    -0.0070210    -0.0238890
  N        0.6418760    -0.6705780    -0.0750100
  N       -0.5227960     1.3301210    -0.0115770
  N       -1.6711500    -0.6772890     0.0386260
  H        0.6032940    -1.6549680    -0.3141340
  H        0.2902210     1.8677740    -0.2812470
  H       -1.2852046     1.8456063     0.4708320
  H       -1.6988330    -1.6603540     0.2762120
  H       -2.5540630    -0.2212690    -0.1512530
  H        1.9599500     0.6280700     0.9221430
  H        2.2491870     0.4866410    -0.8442620
  H        2.6839440    -0.8393840     0.2497200
units angstrom
no_reorient  #important for SAPT in psi4, default
symmetry c1  #important for SAPT in psi4, default
}

set PROPERTIES_ORIGIN ["COM"]
properties('MP2/aug-cc-pvtz', properties = ['dipole'])
--------------------------------------------------------------------------

    Molecular point group: c1
  Charge       = 1
  Multiplicity = 1
  Basis Set: AUG-CC-PVTZ
    Blend: AUG-CC-PVTZ
  Basis Set: (AUG-CC-PVTZ AUX)
    Blend: AUG-CC-PVTZ-JKFIT

    Orbital Energies [Eh]
    ---------------------

    Doubly Occupied:

       1A    -15.791356     2A    -15.789502     3A    -15.786745
       4A    -11.594876     5A    -11.436618     6A     -1.537177
       7A     -1.401485     8A     -1.385931     9A     -1.144559
      10A     -1.039961    11A     -0.971983    12A     -0.937942
      13A     -0.875135    14A     -0.859667    15A     -0.812037
      16A     -0.793330    17A     -0.738957    18A     -0.727780
      19A     -0.624593    20A     -0.593858

  @DF-RHF Final Energy:  -243.65431778943105

   => Energetics <=

    Nuclear Repulsion Energy =            192.7003437653593778
    One-Electron Energy =                -703.0223410827867383
    Two-Electron Energy =                 266.6676795279963130
    Total Energy =                       -243.6543177894310475
  Basis Set: (AUG-CC-PVTZ AUX)
    Blend: AUG-CC-PVTZ-RI
    Molecular point group: c1

    Geometry (in Angstrom), charge = 1, multiplicity = 1:

       Center              X                  Y                   Z               Mass
    ------------   -----------------  -----------------  -----------------  -----------------
         C            1.988503207703    -0.041433008932     0.062911094116    12.000000000000
         C           -0.483771792297    -0.000991008932    -0.025938905884    12.000000000000
         N            0.670053207703    -0.664548008932    -0.077059905884    14.003074004430
         N           -0.494618792297     1.336150991068    -0.013626905884    14.003074004430
         N           -1.642972792297    -0.671259008932     0.036576094116    14.003074004430
         H            0.631471207703    -1.648938008932    -0.316183905884     1.007825032230
         H            0.318398207703     1.873803991068    -0.283296905884     1.007825032230
         H           -1.257027392297     1.851636291068     0.468782094116     1.007825032230
         H           -1.670655792297    -1.654324008932     0.274162094116     1.007825032230
         H           -2.525885792297    -0.215239008932    -0.153302905884     1.007825032230
         H            1.988127207703     0.634099991068     0.920093094116     1.007825032230
         H            2.277364207703     0.492670991068    -0.846311905884     1.007825032230
         H            2.712121207703    -0.833354008932     0.247670094116     1.007825032230

  Basis Set: AUG-CC-PVTZ
    Blend: AUG-CC-PVTZ
  Basis Set: (AUG-CC-PVTZ AUX)
    Blend: AUG-CC-PVTZ-JKFIT
	 Reference Energy          =    -243.6543177894310475 [Eh]
	 Singles Energy            =      -0.0000000000000000 [Eh]
	 Same-Spin Energy          =      -0.2455816792465782 [Eh]
	 Opposite-Spin Energy      =      -0.8100518373966756 [Eh]
	 Correlation Energy        =      -1.0556335166432538 [Eh]
	 Total Energy              =    -244.7099513060742879 [Eh]

	 ================> DF-SCS-MP2 Energies <==================
	-----------------------------------------------------------
	 SCS Same-Spin Scale       =       0.3333333333333333 [-]
	 SCS Opposite-Spin Scale   =       1.2000000000000000 [-]
	 SCS Same-Spin Energy      =      -0.0818605597488594 [Eh]
	 SCS Opposite-Spin Energy  =      -0.9720622048760107 [Eh]
	 SCS Correlation Energy    =      -1.0539227646248701 [Eh]
	 SCS Total Energy          =    -244.7082405540559193 [Eh]
	-----------------------------------------------------------

  Dipole Moment: [D]
     X:    -1.0626      Y:    -0.0361      Z:     0.1945     Total:     1.0809

*** Psi4 exiting successfully. Buy a developer a beer!
