                               Psi4 1.3.2 release

  ==> Input File <==

--------------------------------------------------------------------------
#psi4
#
memory 32 gb

molecule  {
1 1
  C        1.9603260    -0.0474630     0.0649610
  C       -0.5119490    -0.0070210    -0.0238890
  N        0.6418760    -0.6705780    -0.0750100
  N       -0.5227960     1.3301210    -0.0115770
  N       -1.6711500    -0.6772890     0.0386260
  H        0.6032940    -1.6549680    -0.3141340
  H        0.2902210     1.8677740    -0.2812470
  H       -1.3446209     1.8448141     0.2798632
  H       -1.6988330    -1.6603540     0.2762120
  H       -2.5540630    -0.2212690    -0.1512530
  H        1.9599500     0.6280700     0.9221430
  H        2.2491870     0.4866410    -0.8442620
  H        2.6839440    -0.8393840     0.2497200
units angstrom
no_reorient  #important for SAPT in psi4, default
symmetry c1  #important for SAPT in psi4, default
}

set PROPERTIES_ORIGIN ["COM"]
properties('MP2/aug-cc-pvtz', properties = ['dipole'])
--------------------------------------------------------------------------

    Molecular point group: c1
  Charge       = 1
  Multiplicity = 1
  Basis Set: AUG-CC-PVTZ
    Blend: AUG-CC-PVTZ
  Basis Set: (AUG-CC-PVTZ AUX)
    Blend: AUG-CC-PVTZ-JKFIT

    Orbital Energies [Eh]
    ---------------------

    Doubly Occupied:

       1A    -15.790236     2A    -15.789792     3A    -15.786747
       4A    -11.595202     5A    -11.436263     6A     -1.537988
       7A     -1.402316     8A     -1.388286     9A     -1.144623
      10A     -1.042515    11A     -0.975272    12A     -0.938794
      13A     -0.874225    14A     -0.862219    15A     -0.816304
      16A     -0.793733    17A     -0.741585    18A     -0.727498
      19A     -0.624308    20A     -0.593486

  @DF-RHF Final Energy:  -243.65706967527819

   => Energetics <=

    Nuclear Repulsion Energy =            192.8183953197678875
    One-Electron Energy =                -703.2281501608441658
    Two-Electron Energy =                 266.7526851657980842
    Total Energy =                       -243.6570696752781942
  Basis Set: (AUG-CC-PVTZ AUX)
    Blend: AUG-CC-PVTZ-RI
    Molecular point group: c1

    Geometry (in Angstrom), charge = 1, multiplicity = 1:

       Center              X                  Y                   Z               Mass
    ------------   -----------------  -----------------  -----------------  -----------------
         C            1.989311628944    -0.041422230218     0.065509425453    12.000000000000
         C           -0.482963371056    -0.000980230218    -0.023340574547    12.000000000000
         N            0.670861628944    -0.664537230218    -0.074461574547    14.003074004430
         N           -0.493810371056     1.336161769782    -0.011028574547    14.003074004430
         N           -1.642164371056    -0.671248230218     0.039174425453    14.003074004430
         H            0.632279628944    -1.648927230218    -0.313585574547     1.007825032230
         H            0.319206628944     1.873814769782    -0.280698574547     1.007825032230
         H           -1.315635271056     1.850854869782     0.280411625453     1.007825032230
         H           -1.669847371056    -1.654313230218     0.276760425453     1.007825032230
         H           -2.525077371056    -0.215228230218    -0.150704574547     1.007825032230
         H            1.988935628944     0.634110769782     0.922691425453     1.007825032230
         H            2.278172628944     0.492681769782    -0.843713574547     1.007825032230
         H            2.712929628944    -0.833343230218     0.250268425453     1.007825032230

  Basis Set: AUG-CC-PVTZ
    Blend: AUG-CC-PVTZ
  Basis Set: (AUG-CC-PVTZ AUX)
    Blend: AUG-CC-PVTZ-JKFIT
	 Reference Energy          =    -243.6570696752781942 [Eh]
	 Singles Energy            =      -0.0000000000000000 [Eh]
	 Same-Spin Energy          =      -0.2453076337313883 [Eh]
	 Opposite-Spin Energy      =      -0.8093782781888356 [Eh]
	 Correlation Energy        =      -1.0546859119202239 [Eh]
	 Total Energy              =    -244.7117555871984109 [Eh]

	 ================> DF-SCS-MP2 Energies <==================
	-----------------------------------------------------------
	 SCS Same-Spin Scale       =       0.3333333333333333 [-]
	 SCS Opposite-Spin Scale   =       1.2000000000000000 [-]
	 SCS Same-Spin Energy      =      -0.0817692112437961 [Eh]
	 SCS Opposite-Spin Energy  =      -0.9712539338266026 [Eh]
	 SCS Correlation Energy    =      -1.0530231450703988 [Eh]
	 SCS Total Energy          =    -244.7100928203485921 [Eh]
	-----------------------------------------------------------

  Dipole Moment: [D]
     X:    -1.1671      Y:     0.0108      Z:    -0.0830     Total:     1.1701

*** Psi4 exiting successfully. Buy a developer a beer!
