                               Psi4 1.3.2 release

  ==> Input File <==

--------------------------------------------------------------------------
#psi4
#
memory 32 gb

molecule  {
1 1
  C        1.9603260    -0.0474630     0.0649610
  C       -0.5119490    -0.0070210    -0.0238890
  N        0.6418760    -0.6705780    -0.0750100
  N       -0.5227960     1.3301210    -0.0115770
  N       -1.6711500    -0.6772890     0.0386260
  H        0.6032940    -1.6549680    -0.3141340
  H        0.2902210     1.8677740    -0.2812470
  H       -1.3594750     1.8446160     0.2321210
  H       -1.6988330    -1.6603540     0.2762120
  H       -2.5498026    -0.2331109    -0.1996433
  H        1.9599500     0.6280700     0.9221430
  H        2.2491870     0.4866410    -0.8442620
  H        2.6839440    -0.8393840     0.2497200
units angstrom
no_reorient  #important for SAPT in psi4, default
symmetry c1  #important for SAPT in psi4, default
}

set PROPERTIES_ORIGIN ["COM"]
properties('MP2/aug-cc-pvtz', properties = ['dipole'])
--------------------------------------------------------------------------

    Molecular point group: c1
  Charge       = 1
  Multiplicity = 1
  Basis Set: AUG-CC-PVTZ
    Blend: AUG-CC-PVTZ
  Basis Set: (AUG-CC-PVTZ AUX)
    Blend: AUG-CC-PVTZ-JKFIT

    Orbital Energies [Eh]
    ---------------------

    Doubly Occupied:

       1A    -15.790275     2A    -15.790160     3A    -15.786468
       4A    -11.595207     5A    -11.436222     6A     -1.538001
       7A     -1.402305     8A     -1.388286     9A     -1.144541
      10A     -1.042644    11A     -0.975553    12A     -0.938273
      13A     -0.873375    14A     -0.862472    15A     -0.817233
      16A     -0.793460    17A     -0.741472    18A     -0.727398
      19A     -0.624224    20A     -0.593633

  @DF-RHF Final Energy:  -243.65706150953795

   => Energetics <=

    Nuclear Repulsion Energy =            192.8126026217151718
    One-Electron Energy =                -703.2169278851627041
    Two-Electron Energy =                 266.7472637539095786
    Total Energy =                       -243.6570615095379253
  Basis Set: (AUG-CC-PVTZ AUX)
    Blend: AUG-CC-PVTZ-RI
    Molecular point group: c1

    Geometry (in Angstrom), charge = 1, multiplicity = 1:

       Center              X                  Y                   Z               Mass
    ------------   -----------------  -----------------  -----------------  -----------------
         C            1.989455767372    -0.041258413358     0.066817409204    12.000000000000
         C           -0.482819232628    -0.000816413358    -0.022032590796    12.000000000000
         N            0.671005767372    -0.664373413358    -0.073153590796    14.003074004430
         N           -0.493666232628     1.336325586642    -0.009720590796    14.003074004430
         N           -1.642020232628    -0.671084413358     0.040482409204    14.003074004430
         H            0.632423767372    -1.648763413358    -0.312277590796     1.007825032230
         H            0.319350767372     1.873978586642    -0.279390590796     1.007825032230
         H           -1.330345232628     1.850820586642     0.233977409204     1.007825032230
         H           -1.669703232628    -1.654149413358     0.278068409204     1.007825032230
         H           -2.520672832628    -0.226906313358    -0.197786890796     1.007825032230
         H            1.989079767372     0.634274586642     0.923999409204     1.007825032230
         H            2.278316767372     0.492845586642    -0.842405590796     1.007825032230
         H            2.713073767372    -0.833179413358     0.251576409204     1.007825032230

  Basis Set: AUG-CC-PVTZ
    Blend: AUG-CC-PVTZ
  Basis Set: (AUG-CC-PVTZ AUX)
    Blend: AUG-CC-PVTZ-JKFIT
	 Reference Energy          =    -243.6570615095379537 [Eh]
	 Singles Energy            =      -0.0000000000000000 [Eh]
	 Same-Spin Energy          =      -0.2453171751734411 [Eh]
	 Opposite-Spin Energy      =      -0.8093978833048623 [Eh]
	 Correlation Energy        =      -1.0547150584783034 [Eh]
	 Total Energy              =    -244.7117765680162620 [Eh]

	 ================> DF-SCS-MP2 Energies <==================
	-----------------------------------------------------------
	 SCS Same-Spin Scale       =       0.3333333333333333 [-]
	 SCS Opposite-Spin Scale   =       1.2000000000000000 [-]
	 SCS Same-Spin Energy      =      -0.0817723917244804 [Eh]
	 SCS Opposite-Spin Energy  =      -0.9712774599658347 [Eh]
	 SCS Correlation Energy    =      -1.0530498516903151 [Eh]
	 SCS Total Energy          =    -244.7101113612282575 [Eh]
	-----------------------------------------------------------

  Dipole Moment: [D]
     X:    -1.1734      Y:     0.0053      Z:    -0.2255     Total:     1.1949

*** Psi4 exiting successfully. Buy a developer a beer!
