                               Psi4 1.3.2 release

  ==> Input File <==

--------------------------------------------------------------------------
#psi4
#
memory 32 gb

molecule  {
1 1
  C        1.9603260    -0.0474630     0.0649610
  C       -0.5119490    -0.0070210    -0.0238890
  N        0.6418760    -0.6705780    -0.0750100
  N       -0.5227960     1.3301210    -0.0115770
  N       -1.6564265    -0.6782181     0.3382630
  H        0.6032940    -1.6549680    -0.3141340
  H        0.2902210     1.8677740    -0.2812470
  H       -1.3594750     1.8446160     0.2321210
  H       -1.6988330    -1.6603540     0.2762120
  H       -2.5540630    -0.2212690    -0.1512530
  H        1.9599500     0.6280700     0.9221430
  H        2.2491870     0.4866410    -0.8442620
  H        2.6839440    -0.8393840     0.2497200
units angstrom
no_reorient  #important for SAPT in psi4, default
symmetry c1  #important for SAPT in psi4, default
}

set PROPERTIES_ORIGIN ["COM"]
properties('MP2/aug-cc-pvtz', properties = ['dipole'])
--------------------------------------------------------------------------

    Molecular point group: c1
  Charge       = 1
  Multiplicity = 1
  Basis Set: AUG-CC-PVTZ
    Blend: AUG-CC-PVTZ
  Basis Set: (AUG-CC-PVTZ AUX)
    Blend: AUG-CC-PVTZ-JKFIT

    Orbital Energies [Eh]
    ---------------------

    Doubly Occupied:

       1A    -15.795942     2A    -15.794559     3A    -15.792933
       4A    -11.598776     5A    -11.438476     6A     -1.535520
       7A     -1.403097     8A     -1.381975     9A     -1.144464
      10A     -1.044422    11A     -0.976711    12A     -0.913555
      13A     -0.866723    14A     -0.845891    15A     -0.828477
      16A     -0.782000    17A     -0.741761    18A     -0.729016
      19A     -0.628093    20A     -0.599382

  @DF-RHF Final Energy:  -243.63852865372087

   => Energetics <=

    Nuclear Repulsion Energy =            191.9400391198069826
    One-Electron Energy =                -701.4735881627482286
    Two-Electron Energy =                 265.8950203892203490
    Total Energy =                       -243.6385286537208685
  Basis Set: (AUG-CC-PVTZ AUX)
    Blend: AUG-CC-PVTZ-RI
    Molecular point group: c1

    Geometry (in Angstrom), charge = 1, multiplicity = 1:

       Center              X                  Y                   Z               Mass
    ------------   -----------------  -----------------  -----------------  -----------------
         C            1.986730297468    -0.041243891063     0.009513458646    12.000000000000
         C           -0.485544702532    -0.000801891063    -0.079336541354    12.000000000000
         N            0.668280297468    -0.664358891063    -0.130457541354    14.003074004430
         N           -0.496391702532     1.336340108937    -0.067024541354    14.003074004430
         N           -1.630022202532    -0.671998991063     0.282815458646    14.003074004430
         H            0.629698297468    -1.648748891063    -0.369581541354     1.007825032230
         H            0.316625297468     1.873993108937    -0.336694541354     1.007825032230
         H           -1.333070702532     1.850835108937     0.176673458646     1.007825032230
         H           -1.672428702532    -1.654134891063     0.220764458646     1.007825032230
         H           -2.527658702532    -0.215049891063    -0.206700541354     1.007825032230
         H            1.986354297468     0.634289108937     0.866695458646     1.007825032230
         H            2.275591297468     0.492860108937    -0.899709541354     1.007825032230
         H            2.710348297468    -0.833164891063     0.194272458646     1.007825032230

  Basis Set: AUG-CC-PVTZ
    Blend: AUG-CC-PVTZ
  Basis Set: (AUG-CC-PVTZ AUX)
    Blend: AUG-CC-PVTZ-JKFIT
	 Reference Energy          =    -243.6385286537208685 [Eh]
	 Singles Energy            =      -0.0000000000000000 [Eh]
	 Same-Spin Energy          =      -0.2460100132864297 [Eh]
	 Opposite-Spin Energy      =      -0.8122737728360976 [Eh]
	 Correlation Energy        =      -1.0582837861225274 [Eh]
	 Total Energy              =    -244.6968124398433986 [Eh]

	 ================> DF-SCS-MP2 Energies <==================
	-----------------------------------------------------------
	 SCS Same-Spin Scale       =       0.3333333333333333 [-]
	 SCS Opposite-Spin Scale   =       1.2000000000000000 [-]
	 SCS Same-Spin Energy      =      -0.0820033377621432 [Eh]
	 SCS Opposite-Spin Energy  =      -0.9747285274033171 [Eh]
	 SCS Correlation Energy    =      -1.0567318651654602 [Eh]
	 SCS Total Energy          =    -244.6952605188863288 [Eh]
	-----------------------------------------------------------

  Dipole Moment: [D]
     X:    -0.8931      Y:     0.1022      Z:    -1.0477     Total:     1.3805

*** Psi4 exiting successfully. Buy a developer a beer!
