                               Psi4 1.3.2 release

  ==> Input File <==

--------------------------------------------------------------------------
#psi4
#
memory 32 gb

molecule  {
1 1
  C        1.9603260    -0.0474630     0.0649610
  C       -0.5119490    -0.0070210    -0.0238890
  N        0.6418760    -0.6705780    -0.0750100
  N       -0.5227960     1.3301210    -0.0115770
  N       -1.6711500    -0.6772890     0.0386260
  H        0.5956053    -1.6946688    -0.1182648
  H        0.2902210     1.8677740    -0.2812470
  H       -1.3594750     1.8446160     0.2321210
  H       -1.6988330    -1.6603540     0.2762120
  H       -2.5540630    -0.2212690    -0.1512530
  H        1.9599500     0.6280700     0.9221430
  H        2.2491870     0.4866410    -0.8442620
  H        2.6839440    -0.8393840     0.2497200
units angstrom
no_reorient  #important for SAPT in psi4, default
symmetry c1  #important for SAPT in psi4, default
}

set PROPERTIES_ORIGIN ["COM"]
properties('MP2/aug-cc-pvtz', properties = ['dipole'])
--------------------------------------------------------------------------

    Molecular point group: c1
  Charge       = 1
  Multiplicity = 1
  Basis Set: AUG-CC-PVTZ
    Blend: AUG-CC-PVTZ
  Basis Set: (AUG-CC-PVTZ AUX)
    Blend: AUG-CC-PVTZ-JKFIT

    Orbital Energies [Eh]
    ---------------------

    Doubly Occupied:

       1A    -15.791596     2A    -15.789562     3A    -15.786573
       4A    -11.595034     5A    -11.436438     6A     -1.537732
       7A     -1.401384     8A     -1.388278     9A     -1.144671
      10A     -1.041364    11A     -0.974718    12A     -0.938205
      13A     -0.870681    14A     -0.862151    15A     -0.816514
      16A     -0.797391    17A     -0.741856    18A     -0.726648
      19A     -0.624287    20A     -0.592777

  @DF-RHF Final Energy:  -243.65642575434543

   => Energetics <=

    Nuclear Repulsion Energy =            192.7630790354423880
    One-Electron Energy =                -703.1232876329770534
    Two-Electron Energy =                 266.7037828431892308
    Total Energy =                       -243.6564257543454346
  Basis Set: (AUG-CC-PVTZ AUX)
    Blend: AUG-CC-PVTZ-RI
    Molecular point group: c1

    Geometry (in Angstrom), charge = 1, multiplicity = 1:

       Center              X                  Y                   Z               Mass
    ------------   -----------------  -----------------  -----------------  -----------------
         C            1.989618347443    -0.040879363728     0.063494001855    12.000000000000
         C           -0.482656652557    -0.000437363728    -0.025355998145    12.000000000000
         N            0.671168347443    -0.663994363728    -0.076476998145    14.003074004430
         N           -0.493503652557     1.336704636272    -0.013043998145    14.003074004430
         N           -1.641857652557    -0.670705363728     0.037159001855    14.003074004430
         H            0.624897647443    -1.688085163728    -0.119731798145     1.007825032230
         H            0.319513347443     1.874357636272    -0.282713998145     1.007825032230
         H           -1.330182652557     1.851199636272     0.230654001855     1.007825032230
         H           -1.669540652557    -1.653770363728     0.274745001855     1.007825032230
         H           -2.524770652557    -0.214685363728    -0.152719998145     1.007825032230
         H            1.989242347443     0.634653636272     0.920676001855     1.007825032230
         H            2.278479347443     0.493224636272    -0.845728998145     1.007825032230
         H            2.713236347443    -0.832800363728     0.248253001855     1.007825032230

  Basis Set: AUG-CC-PVTZ
    Blend: AUG-CC-PVTZ
  Basis Set: (AUG-CC-PVTZ AUX)
    Blend: AUG-CC-PVTZ-JKFIT
	 Reference Energy          =    -243.6564257543454346 [Eh]
	 Singles Energy            =      -0.0000000000000000 [Eh]
	 Same-Spin Energy          =      -0.2453076172444004 [Eh]
	 Opposite-Spin Energy      =      -0.8094238959677640 [Eh]
	 Correlation Energy        =      -1.0547315132121644 [Eh]
	 Total Energy              =    -244.7111572675576099 [Eh]

	 ================> DF-SCS-MP2 Energies <==================
	-----------------------------------------------------------
	 SCS Same-Spin Scale       =       0.3333333333333333 [-]
	 SCS Opposite-Spin Scale   =       1.2000000000000000 [-]
	 SCS Same-Spin Energy      =      -0.0817692057481335 [Eh]
	 SCS Opposite-Spin Energy  =      -0.9713086751613167 [Eh]
	 SCS Correlation Energy    =      -1.0530778809094501 [Eh]
	 SCS Total Energy          =    -244.7095036352548902 [Eh]
	-----------------------------------------------------------

  Dipole Moment: [D]
     X:    -1.1752      Y:    -0.0484      Z:     0.1050     Total:     1.1809

*** Psi4 exiting successfully. Buy a developer a beer!
