                               Psi4 1.3.2 release

  ==> Input File <==

--------------------------------------------------------------------------
#psi4
#
memory 32 gb

molecule  {
1 1
  C        1.9603260    -0.0474630     0.0649610
  C       -0.5119490    -0.0070210    -0.0238890
  N        0.6418760    -0.6705780    -0.0750100
  N       -0.5227960     1.3301210    -0.0115770
  N       -1.6711500    -0.6772890     0.0386260
  H        0.5975275    -1.6847436    -0.1672321
  H        0.2902210     1.8677740    -0.2812470
  H       -1.3594750     1.8446160     0.2321210
  H       -1.6988330    -1.6603540     0.2762120
  H       -2.5540630    -0.2212690    -0.1512530
  H        1.9599500     0.6280700     0.9221430
  H        2.2491870     0.4866410    -0.8442620
  H        2.6839440    -0.8393840     0.2497200
units angstrom
no_reorient  #important for SAPT in psi4, default
symmetry c1  #important for SAPT in psi4, default
}

set PROPERTIES_ORIGIN ["COM"]
properties('MP2/aug-cc-pvtz', properties = ['dipole'])
--------------------------------------------------------------------------

    Molecular point group: c1
  Charge       = 1
  Multiplicity = 1
  Basis Set: AUG-CC-PVTZ
    Blend: AUG-CC-PVTZ
  Basis Set: (AUG-CC-PVTZ AUX)
    Blend: AUG-CC-PVTZ-JKFIT

    Orbital Energies [Eh]
    ---------------------

    Doubly Occupied:

       1A    -15.791024     2A    -15.789653     3A    -15.786587
       4A    -11.595078     5A    -11.436445     6A     -1.537898
       7A     -1.401928     8A     -1.388301     9A     -1.144712
      10A     -1.042157    11A     -0.975348    12A     -0.938374
      13A     -0.871187    14A     -0.862573    15A     -0.816601
      16A     -0.796976    17A     -0.741955    18A     -0.727038
      19A     -0.624283    20A     -0.592907

  @DF-RHF Final Energy:  -243.65695612988785

   => Energetics <=

    Nuclear Repulsion Energy =            192.7949027463310472
    One-Electron Energy =                -703.1816690312397213
    Two-Electron Energy =                 266.7298101550208571
    Total Energy =                       -243.6569561298878170
  Basis Set: (AUG-CC-PVTZ AUX)
    Blend: AUG-CC-PVTZ-RI
    Molecular point group: c1

    Geometry (in Angstrom), charge = 1, multiplicity = 1:

       Center              X                  Y                   Z               Mass
    ------------   -----------------  -----------------  -----------------  -----------------
         C            1.989592193890    -0.041014406511     0.064160253463    12.000000000000
         C           -0.482682806110    -0.000572406511    -0.024689746537    12.000000000000
         N            0.671142193890    -0.664129406511    -0.075810746537    14.003074004430
         N           -0.493529806110     1.336569593489    -0.012377746537    14.003074004430
         N           -1.641883806110    -0.670840406511     0.037825253463    14.003074004430
         H            0.626793693890    -1.678295006511    -0.168032846537     1.007825032230
         H            0.319487193890     1.874222593489    -0.282047746537     1.007825032230
         H           -1.330208806110     1.851064593489     0.231320253463     1.007825032230
         H           -1.669566806110    -1.653905406511     0.275411253463     1.007825032230
         H           -2.524796806110    -0.214820406511    -0.152053746537     1.007825032230
         H            1.989216193890     0.634518593489     0.921342253463     1.007825032230
         H            2.278453193890     0.493089593489    -0.845062746537     1.007825032230
         H            2.713210193890    -0.832935406511     0.248919253463     1.007825032230

  Basis Set: AUG-CC-PVTZ
    Blend: AUG-CC-PVTZ
  Basis Set: (AUG-CC-PVTZ AUX)
    Blend: AUG-CC-PVTZ-JKFIT
	 Reference Energy          =    -243.6569561298878455 [Eh]
	 Singles Energy            =      -0.0000000000000000 [Eh]
	 Same-Spin Energy          =      -0.2452726611428593 [Eh]
	 Opposite-Spin Energy      =      -0.8093290559520661 [Eh]
	 Correlation Energy        =      -1.0546017170949253 [Eh]
	 Total Energy              =    -244.7115578469827710 [Eh]

	 ================> DF-SCS-MP2 Energies <==================
	-----------------------------------------------------------
	 SCS Same-Spin Scale       =       0.3333333333333333 [-]
	 SCS Opposite-Spin Scale   =       1.2000000000000000 [-]
	 SCS Same-Spin Energy      =      -0.0817575537142864 [Eh]
	 SCS Opposite-Spin Energy  =      -0.9711948671424793 [Eh]
	 SCS Correlation Energy    =      -1.0529524208567658 [Eh]
	 SCS Total Energy          =    -244.7099085507446148 [Eh]
	-----------------------------------------------------------

  Dipole Moment: [D]
     X:    -1.1761      Y:    -0.0350      Z:     0.0405     Total:     1.1773

*** Psi4 exiting successfully. Buy a developer a beer!
