                               Psi4 1.3.2 release

  ==> Input File <==

--------------------------------------------------------------------------
#psi4
#
memory 32 gb

molecule  {
1 1
  C        1.9603260    -0.0474630     0.0649610
  C       -0.5119490    -0.0070210    -0.0238890
  N        0.6418760    -0.6705780    -0.0750100
  N       -0.5227960     1.3301210    -0.0115770
  N       -1.6711500    -0.6772890     0.0386260
  H        0.6032940    -1.6549680    -0.3141340
  H        0.2902210     1.8677740    -0.2812470
  H       -1.3594750     1.8446160     0.2321210
  H       -1.6988330    -1.6603540     0.2762120
  H       -2.5455421    -0.2449528    -0.2480335
  H        1.9599500     0.6280700     0.9221430
  H        2.2491870     0.4866410    -0.8442620
  H        2.6839440    -0.8393840     0.2497200
units angstrom
no_reorient  #important for SAPT in psi4, default
symmetry c1  #important for SAPT in psi4, default
}

set PROPERTIES_ORIGIN ["COM"]
properties('MP2/aug-cc-pvtz', properties = ['dipole'])
--------------------------------------------------------------------------

    Molecular point group: c1
  Charge       = 1
  Multiplicity = 1
  Basis Set: AUG-CC-PVTZ
    Blend: AUG-CC-PVTZ
  Basis Set: (AUG-CC-PVTZ AUX)
    Blend: AUG-CC-PVTZ-JKFIT

    Orbital Energies [Eh]
    ---------------------

    Doubly Occupied:

       1A    -15.790569     2A    -15.790187     3A    -15.786293
       4A    -11.595157     5A    -11.436259     6A     -1.537887
       7A     -1.402156     8A     -1.387977     9A     -1.144407
      10A     -1.042592    11A     -0.975459    12A     -0.937164
      13A     -0.873629    14A     -0.862216    15A     -0.817264
      16A     -0.793068    17A     -0.740807    18A     -0.727346
      19A     -0.624186    20A     -0.593892

  @DF-RHF Final Energy:  -243.65671426724901

   => Energetics <=

    Nuclear Repulsion Energy =            192.7932215527191886
    One-Electron Energy =                -703.1828402404097460
    Two-Electron Energy =                 266.7329044204415709
    Total Energy =                       -243.6567142672490149
  Basis Set: (AUG-CC-PVTZ AUX)
    Blend: AUG-CC-PVTZ-RI
    Molecular point group: c1

    Geometry (in Angstrom), charge = 1, multiplicity = 1:

       Center              X                  Y                   Z               Mass
    ------------   -----------------  -----------------  -----------------  -----------------
         C            1.989397798790    -0.041097291856     0.067475808760    12.000000000000
         C           -0.482877201210    -0.000655291856    -0.021374191240    12.000000000000
         N            0.670947798790    -0.664212291856    -0.072495191240    14.003074004430
         N           -0.493724201210     1.336486708144    -0.009062191240    14.003074004430
         N           -1.642078201210    -0.670923291856     0.041140808760    14.003074004430
         H            0.632365798790    -1.648602291856    -0.311619191240     1.007825032230
         H            0.319292798790     1.874139708144    -0.278732191240     1.007825032230
         H           -1.330403201210     1.850981708144     0.234635808760     1.007825032230
         H           -1.669761201210    -1.653988291856     0.278726808760     1.007825032230
         H           -2.516470301210    -0.238587091856    -0.245518691240     1.007825032230
         H            1.989021798790     0.634435708144     0.924657808760     1.007825032230
         H            2.278258798790     0.493006708144    -0.841747191240     1.007825032230
         H            2.713015798790    -0.833018291856     0.252234808760     1.007825032230

  Basis Set: AUG-CC-PVTZ
    Blend: AUG-CC-PVTZ
  Basis Set: (AUG-CC-PVTZ AUX)
    Blend: AUG-CC-PVTZ-JKFIT
	 Reference Energy          =    -243.6567142672490149 [Eh]
	 Singles Energy            =      -0.0000000000000000 [Eh]
	 Same-Spin Energy          =      -0.2453726639232691 [Eh]
	 Opposite-Spin Energy      =      -0.8095211355113067 [Eh]
	 Correlation Energy        =      -1.0548937994345757 [Eh]
	 Total Energy              =    -244.7116080666835956 [Eh]

	 ================> DF-SCS-MP2 Energies <==================
	-----------------------------------------------------------
	 SCS Same-Spin Scale       =       0.3333333333333333 [-]
	 SCS Opposite-Spin Scale   =       1.2000000000000000 [-]
	 SCS Same-Spin Energy      =      -0.0817908879744230 [Eh]
	 SCS Opposite-Spin Energy  =      -0.9714253626135679 [Eh]
	 SCS Correlation Energy    =      -1.0532162505879910 [Eh]
	 SCS Total Energy          =    -244.7099305178369946 [Eh]
	-----------------------------------------------------------

  Dipole Moment: [D]
     X:    -1.1536      Y:    -0.0068      Z:    -0.2979     Total:     1.1914

*** Psi4 exiting successfully. Buy a developer a beer!
