                               Psi4 1.3.2 release

  ==> Input File <==

--------------------------------------------------------------------------
#psi4
#
memory 32 gb

molecule  {
1 1
  C        1.9603260    -0.0474630     0.0649610
  C       -0.5119490    -0.0070210    -0.0238890
  N        0.6418760    -0.6705780    -0.0750100
  N       -0.5227960     1.3301210    -0.0115770
  N       -1.6711500    -0.6772890     0.0386260
  H        0.6013718    -1.6648932    -0.2651667
  H        0.2902210     1.8677740    -0.2812470
  H       -1.3594750     1.8446160     0.2321210
  H       -1.6988330    -1.6603540     0.2762120
  H       -2.5540630    -0.2212690    -0.1512530
  H        1.9599500     0.6280700     0.9221430
  H        2.2491870     0.4866410    -0.8442620
  H        2.6839440    -0.8393840     0.2497200
units angstrom
no_reorient  #important for SAPT in psi4, default
symmetry c1  #important for SAPT in psi4, default
}

set PROPERTIES_ORIGIN ["COM"]
properties('MP2/aug-cc-pvtz', properties = ['dipole'])
--------------------------------------------------------------------------

    Molecular point group: c1
  Charge       = 1
  Multiplicity = 1
  Basis Set: AUG-CC-PVTZ
    Blend: AUG-CC-PVTZ
  Basis Set: (AUG-CC-PVTZ AUX)
    Blend: AUG-CC-PVTZ-JKFIT

    Orbital Energies [Eh]
    ---------------------

    Doubly Occupied:

       1A    -15.790224     2A    -15.789945     3A    -15.786683
       4A    -11.595178     5A    -11.436322     6A     -1.538069
       7A     -1.402433     8A     -1.388376     9A     -1.144671
      10A     -1.042817    11A     -0.975798    12A     -0.938677
      13A     -0.872453    14A     -0.862682    15A     -0.816957
      16A     -0.795141    17A     -0.742064    18A     -0.727433
      19A     -0.624272    20A     -0.593212

  @DF-RHF Final Energy:  -243.65733725354121

   => Energetics <=

    Nuclear Repulsion Energy =            192.8241011157657567
    One-Electron Energy =                -703.2360606808166494
    Two-Electron Energy =                 266.7546223115096495
    Total Energy =                       -243.6573372535412432
  Basis Set: (AUG-CC-PVTZ AUX)
    Blend: AUG-CC-PVTZ-RI
    Molecular point group: c1

    Geometry (in Angstrom), charge = 1, multiplicity = 1:

       Center              X                  Y                   Z               Mass
    ------------   -----------------  -----------------  -----------------  -----------------
         C            1.989539888146    -0.041284492077     0.065492756679    12.000000000000
         C           -0.482735111854    -0.000842492077    -0.023357243321    12.000000000000
         N            0.671089888146    -0.664399492077    -0.074478243321    14.003074004430
         N           -0.493582111854     1.336299507923    -0.011045243321    14.003074004430
         N           -1.641936111854    -0.671110492077     0.039157756679    14.003074004430
         H            0.630585688146    -1.658714692077    -0.264634943321     1.007825032230
         H            0.319434888146     1.873952507923    -0.280715243321     1.007825032230
         H           -1.330261111854     1.850794507923     0.232652756679     1.007825032230
         H           -1.669619111854    -1.654175492077     0.276743756679     1.007825032230
         H           -2.524849111854    -0.215090492077    -0.150721243321     1.007825032230
         H            1.989163888146     0.634248507923     0.922674756679     1.007825032230
         H            2.278400888146     0.492819507923    -0.843730243321     1.007825032230
         H            2.713157888146    -0.833205492077     0.250251756679     1.007825032230

  Basis Set: AUG-CC-PVTZ
    Blend: AUG-CC-PVTZ
  Basis Set: (AUG-CC-PVTZ AUX)
    Blend: AUG-CC-PVTZ-JKFIT
	 Reference Energy          =    -243.6573372535412147 [Eh]
	 Singles Energy            =      -0.0000000000000000 [Eh]
	 Same-Spin Energy          =      -0.2452575829883644 [Eh]
	 Opposite-Spin Energy      =      -0.8092766959009211 [Eh]
	 Correlation Energy        =      -1.0545342788892855 [Eh]
	 Total Energy              =    -244.7118715324305072 [Eh]

	 ================> DF-SCS-MP2 Energies <==================
	-----------------------------------------------------------
	 SCS Same-Spin Scale       =       0.3333333333333333 [-]
	 SCS Opposite-Spin Scale   =       1.2000000000000000 [-]
	 SCS Same-Spin Energy      =      -0.0817525276627881 [Eh]
	 SCS Opposite-Spin Energy  =      -0.9711320350811052 [Eh]
	 SCS Correlation Energy    =      -1.0528845627438934 [Eh]
	 SCS Total Energy          =    -244.7102218162850988 [Eh]
	-----------------------------------------------------------

  Dipole Moment: [D]
     X:    -1.1838      Y:    -0.0019      Z:    -0.0886     Total:     1.1871

*** Psi4 exiting successfully. Buy a developer a beer!
