                               Psi4 1.3.2 release

  ==> Input File <==

--------------------------------------------------------------------------
#psi4
#
memory 32 gb

molecule  {
1 1
  C        1.9603260    -0.0474630     0.0649610
  C       -0.5119490    -0.0070210    -0.0238890
  N        0.6418760    -0.6705780    -0.0750100
  N       -0.5227960     1.3301210    -0.0115770
  N       -1.6711500    -0.6772890     0.0386260
  H        0.6032940    -1.6549680    -0.3141340
  H        0.2902210     1.8677740    -0.2812470
  H       -1.2703505     1.8458044     0.5185742
  H       -1.6988330    -1.6603540     0.2762120
  H       -2.5540630    -0.2212690    -0.1512530
  H        1.9599500     0.6280700     0.9221430
  H        2.2491870     0.4866410    -0.8442620
  H        2.6839440    -0.8393840     0.2497200
units angstrom
no_reorient  #important for SAPT in psi4, default
symmetry c1  #important for SAPT in psi4, default
}

set PROPERTIES_ORIGIN ["COM"]
properties('MP2/aug-cc-pvtz', properties = ['dipole'])
--------------------------------------------------------------------------

    Molecular point group: c1
  Charge       = 1
  Multiplicity = 1
  Basis Set: AUG-CC-PVTZ
    Blend: AUG-CC-PVTZ
  Basis Set: (AUG-CC-PVTZ AUX)
    Blend: AUG-CC-PVTZ-JKFIT

    Orbital Energies [Eh]
    ---------------------

    Doubly Occupied:

       1A    -15.791664     2A    -15.789692     3A    -15.786746
       4A    -11.594747     5A    -11.436719     6A     -1.536875
       7A     -1.401216     8A     -1.384890     9A     -1.144504
      10A     -1.038944    11A     -0.970831    12A     -0.937523
      13A     -0.874544    14A     -0.858592    15A     -0.810776
      16A     -0.793122    17A     -0.738126    18A     -0.727855
      19A     -0.624683    20A     -0.593934

  @DF-RHF Final Energy:  -243.65283638279823

   => Energetics <=

    Nuclear Repulsion Energy =            192.6464603768399115
    One-Electron Energy =                -702.9266268842883392
    Two-Electron Energy =                 266.6273301246502001
    Total Energy =                       -243.6528363827982275
  Basis Set: (AUG-CC-PVTZ AUX)
    Blend: AUG-CC-PVTZ-RI
    Molecular point group: c1

    Geometry (in Angstrom), charge = 1, multiplicity = 1:

       Center              X                  Y                   Z               Mass
    ------------   -----------------  -----------------  -----------------  -----------------
         C            1.988301102053    -0.041435704291     0.062261511282    12.000000000000
         C           -0.483973897947    -0.000993704291    -0.026588488718    12.000000000000
         N            0.669851102053    -0.664550704291    -0.077709488718    14.003074004430
         N           -0.494820897947     1.336148295709    -0.014276488718    14.003074004430
         N           -1.643174897947    -0.671261704291     0.035926511282    14.003074004430
         H            0.631269102053    -1.648940704291    -0.316833488718     1.007825032230
         H            0.318196102053     1.873801295709    -0.283946488718     1.007825032230
         H           -1.242375397947     1.851831695709     0.515874711282     1.007825032230
         H           -1.670857897947    -1.654326704291     0.273512511282     1.007825032230
         H           -2.526087897947    -0.215241704291    -0.153952488718     1.007825032230
         H            1.987925102053     0.634097295709     0.919443511282     1.007825032230
         H            2.277162102053     0.492668295709    -0.846961488718     1.007825032230
         H            2.711919102053    -0.833356704291     0.247020511282     1.007825032230

  Basis Set: AUG-CC-PVTZ
    Blend: AUG-CC-PVTZ
  Basis Set: (AUG-CC-PVTZ AUX)
    Blend: AUG-CC-PVTZ-JKFIT
	 Reference Energy          =    -243.6528363827982275 [Eh]
	 Singles Energy            =      -0.0000000000000000 [Eh]
	 Same-Spin Energy          =      -0.2456852340519460 [Eh]
	 Opposite-Spin Energy      =      -0.8103249129717257 [Eh]
	 Correlation Energy        =      -1.0560101470236716 [Eh]
	 Total Energy              =    -244.7088465298218978 [Eh]

	 ================> DF-SCS-MP2 Energies <==================
	-----------------------------------------------------------
	 SCS Same-Spin Scale       =       0.3333333333333333 [-]
	 SCS Opposite-Spin Scale   =       1.2000000000000000 [-]
	 SCS Same-Spin Energy      =      -0.0818950780173153 [Eh]
	 SCS Opposite-Spin Energy  =      -0.9723898955660708 [Eh]
	 SCS Correlation Energy    =      -1.0542849735833861 [Eh]
	 SCS Total Energy          =    -244.7071213563816059 [Eh]
	-----------------------------------------------------------

  Dipole Moment: [D]
     X:    -1.0346      Y:    -0.0516      Z:     0.2628     Total:     1.0687

*** Psi4 exiting successfully. Buy a developer a beer!
