                               Psi4 1.3.2 release

  ==> Input File <==

--------------------------------------------------------------------------
#psi4
#
memory 32 gb

molecule  {
1 1
  C        1.9603260    -0.0474630     0.0649610
  C       -0.5119490    -0.0070210    -0.0238890
  N        0.6418760    -0.6705780    -0.0750100
  N       -0.5227960     1.3301210    -0.0115770
  N       -1.6613343    -0.6779084     0.2383840
  H        0.6032940    -1.6549680    -0.3141340
  H        0.2902210     1.8677740    -0.2812470
  H       -1.3594750     1.8446160     0.2321210
  H       -1.6988330    -1.6603540     0.2762120
  H       -2.5540630    -0.2212690    -0.1512530
  H        1.9599500     0.6280700     0.9221430
  H        2.2491870     0.4866410    -0.8442620
  H        2.6839440    -0.8393840     0.2497200
units angstrom
no_reorient  #important for SAPT in psi4, default
symmetry c1  #important for SAPT in psi4, default
}

set PROPERTIES_ORIGIN ["COM"]
properties('MP2/aug-cc-pvtz', properties = ['dipole'])
--------------------------------------------------------------------------

    Molecular point group: c1
  Charge       = 1
  Multiplicity = 1
  Basis Set: AUG-CC-PVTZ
    Blend: AUG-CC-PVTZ
  Basis Set: (AUG-CC-PVTZ AUX)
    Blend: AUG-CC-PVTZ-JKFIT

    Orbital Energies [Eh]
    ---------------------

    Doubly Occupied:

       1A    -15.793091     2A    -15.792136     3A    -15.789192
       4A    -11.596976     5A    -11.437197     6A     -1.536848
       7A     -1.402225     8A     -1.386288     9A     -1.144114
      10A     -1.044471    11A     -0.978198    12A     -0.921995
      13A     -0.869117    14A     -0.856776    15A     -0.825198
      16A     -0.786975    17A     -0.742458    18A     -0.728200
      19A     -0.624878    20A     -0.596945

  @DF-RHF Final Energy:  -243.64906136576033

   => Energetics <=

    Nuclear Repulsion Energy =            192.4255985808243565
    One-Electron Energy =                -702.4427630993901630
    Two-Electron Energy =                 266.3681031528054746
    Total Energy =                       -243.6490613657603035
  Basis Set: (AUG-CC-PVTZ AUX)
    Blend: AUG-CC-PVTZ-RI
    Molecular point group: c1

    Geometry (in Angstrom), charge = 1, multiplicity = 1:

       Center              X                  Y                   Z               Mass
    ------------   -----------------  -----------------  -----------------  -----------------
         C            1.987658103542    -0.041302438995     0.028395308527    12.000000000000
         C           -0.484616896458    -0.000860438995    -0.060454691473    12.000000000000
         N            0.669208103542    -0.664417438995    -0.111575691473    14.003074004430
         N           -0.495463896458     1.336281561005    -0.048142691473    14.003074004430
         N           -1.634002196458    -0.671747838995     0.201818308527    14.003074004430
         H            0.630626103542    -1.648807438995    -0.350699691473     1.007825032230
         H            0.317553103542     1.873934561005    -0.317812691473     1.007825032230
         H           -1.332142896458     1.850776561005     0.195555308527     1.007825032230
         H           -1.671500896458    -1.654193438995     0.239646308527     1.007825032230
         H           -2.526730896458    -0.215108438995    -0.187818691473     1.007825032230
         H            1.987282103542     0.634230561005     0.885577308527     1.007825032230
         H            2.276519103542     0.492801561005    -0.880827691473     1.007825032230
         H            2.711276103542    -0.833223438995     0.213154308527     1.007825032230

  Basis Set: AUG-CC-PVTZ
    Blend: AUG-CC-PVTZ
  Basis Set: (AUG-CC-PVTZ AUX)
    Blend: AUG-CC-PVTZ-JKFIT
	 Reference Energy          =    -243.6490613657603319 [Eh]
	 Singles Energy            =      -0.0000000000000000 [Eh]
	 Same-Spin Energy          =      -0.2456032184008018 [Eh]
	 Opposite-Spin Energy      =      -0.8106269788451350 [Eh]
	 Correlation Energy        =      -1.0562301972459369 [Eh]
	 Total Energy              =    -244.7052915630062557 [Eh]

	 ================> DF-SCS-MP2 Energies <==================
	-----------------------------------------------------------
	 SCS Same-Spin Scale       =       0.3333333333333333 [-]
	 SCS Opposite-Spin Scale   =       1.2000000000000000 [-]
	 SCS Same-Spin Energy      =      -0.0818677394669339 [Eh]
	 SCS Opposite-Spin Energy  =      -0.9727523746141620 [Eh]
	 SCS Correlation Energy    =      -1.0546201140810960 [Eh]
	 SCS Total Energy          =    -244.7036814798414355 [Eh]
	-----------------------------------------------------------

  Dipole Moment: [D]
     X:    -1.0496      Y:     0.0439      Z:    -0.7570     Total:     1.2948

*** Psi4 exiting successfully. Buy a developer a beer!
