                               Psi4 1.3.2 release

  ==> Input File <==

--------------------------------------------------------------------------
#psi4
#
memory 32 gb

molecule  {
1 1
  C        1.9603260    -0.0474630     0.0649610
  C       -0.5119490    -0.0070210    -0.0238890
  N        0.6418760    -0.6705780    -0.0750100
  N       -0.5227960     1.3301210    -0.0115770
  N       -1.6711500    -0.6772890     0.0386260
  H        0.6032940    -1.6549680    -0.3141340
  H        0.2902210     1.8677740    -0.2812470
  H       -1.3594750     1.8446160     0.2321210
  H       -1.6988330    -1.6603540     0.2762120
  H       -2.5327609    -0.2804785    -0.3932043
  H        1.9599500     0.6280700     0.9221430
  H        2.2491870     0.4866410    -0.8442620
  H        2.6839440    -0.8393840     0.2497200
units angstrom
no_reorient  #important for SAPT in psi4, default
symmetry c1  #important for SAPT in psi4, default
}

set PROPERTIES_ORIGIN ["COM"]
properties('MP2/aug-cc-pvtz', properties = ['dipole'])
--------------------------------------------------------------------------

    Molecular point group: c1
  Charge       = 1
  Multiplicity = 1
  Basis Set: AUG-CC-PVTZ
    Blend: AUG-CC-PVTZ
  Basis Set: (AUG-CC-PVTZ AUX)
    Blend: AUG-CC-PVTZ-JKFIT

    Orbital Energies [Eh]
    ---------------------

    Doubly Occupied:

       1A    -15.791564     2A    -15.790295     3A    -15.786479
       4A    -11.594877     5A    -11.436401     6A     -1.537300
       7A     -1.401431     8A     -1.386013     9A     -1.143562
      10A     -1.042183    11A     -0.974963    12A     -0.930835
      13A     -0.874099    14A     -0.859978    15A     -0.817293
      16A     -0.791402    17A     -0.738499    18A     -0.727029
      19A     -0.624109    20A     -0.594699

  @DF-RHF Final Energy:  -243.65426129670143

   => Energetics <=

    Nuclear Repulsion Energy =            192.6730340201444562
    One-Electron Energy =                -702.9685693270753291
    Two-Electron Energy =                 266.6412740102294947
    Total Energy =                       -243.6542612967014065
  Basis Set: (AUG-CC-PVTZ AUX)
    Blend: AUG-CC-PVTZ-RI
    Molecular point group: c1

    Geometry (in Angstrom), charge = 1, multiplicity = 1:

       Center              X                  Y                   Z               Mass
    ------------   -----------------  -----------------  -----------------  -----------------
         C            1.989223897123    -0.040613927350     0.069451010148    12.000000000000
         C           -0.483051102877    -0.000171927350    -0.019398989852    12.000000000000
         N            0.670773897123    -0.663728927350    -0.070519989852    14.003074004430
         N           -0.493898102877     1.336970072650    -0.007086989852    14.003074004430
         N           -1.642252102877    -0.670439927350     0.043116010148    14.003074004430
         H            0.632191897123    -1.648118927350    -0.309643989852     1.007825032230
         H            0.319118897123     1.874623072650    -0.276756989852     1.007825032230
         H           -1.330577102877     1.851465072650     0.236611010148     1.007825032230
         H           -1.669935102877    -1.653504927350     0.280702010148     1.007825032230
         H           -2.503863002877    -0.273629427350    -0.388714289852     1.007825032230
         H            1.988847897123     0.634919072650     0.926633010148     1.007825032230
         H            2.278084897123     0.493490072650    -0.839771989852     1.007825032230
         H            2.712841897123    -0.832534927350     0.254210010148     1.007825032230

  Basis Set: AUG-CC-PVTZ
    Blend: AUG-CC-PVTZ
  Basis Set: (AUG-CC-PVTZ AUX)
    Blend: AUG-CC-PVTZ-JKFIT
	 Reference Energy          =    -243.6542612967014350 [Eh]
	 Singles Energy            =      -0.0000000000000000 [Eh]
	 Same-Spin Energy          =      -0.2456256278482539 [Eh]
	 Opposite-Spin Energy      =      -0.8101428835746953 [Eh]
	 Correlation Energy        =      -1.0557685114229491 [Eh]
	 Total Energy              =    -244.7100298081243750 [Eh]

	 ================> DF-SCS-MP2 Energies <==================
	-----------------------------------------------------------
	 SCS Same-Spin Scale       =       0.3333333333333333 [-]
	 SCS Opposite-Spin Scale   =       1.2000000000000000 [-]
	 SCS Same-Spin Energy      =      -0.0818752092827513 [Eh]
	 SCS Opposite-Spin Energy  =      -0.9721714602896343 [Eh]
	 SCS Correlation Energy    =      -1.0540466695723856 [Eh]
	 SCS Total Energy          =    -244.7083079662738214 [Eh]
	-----------------------------------------------------------

  Dipole Moment: [D]
     X:    -1.0811      Y:    -0.0419      Z:    -0.5128     Total:     1.1973

*** Psi4 exiting successfully. Buy a developer a beer!
