                               Psi4 1.3.2 release

  ==> Input File <==

--------------------------------------------------------------------------
#psi4
#
memory 32 gb

molecule  {
1 1
  C        1.9603260    -0.0474630     0.0649610
  C       -0.5119490    -0.0070210    -0.0238890
  N        0.6418760    -0.6705780    -0.0750100
  N       -0.5227960     1.3301210    -0.0115770
  N       -1.6711500    -0.6772890     0.0386260
  H        0.6032940    -1.6549680    -0.3141340
  H        0.2902210     1.8677740    -0.2812470
  H       -1.3594750     1.8446160     0.2321210
  H       -1.6988330    -1.6603540     0.2762120
  H       -2.5285004    -0.2923204    -0.4415946
  H        1.9599500     0.6280700     0.9221430
  H        2.2491870     0.4866410    -0.8442620
  H        2.6839440    -0.8393840     0.2497200
units angstrom
no_reorient  #important for SAPT in psi4, default
symmetry c1  #important for SAPT in psi4, default
}

set PROPERTIES_ORIGIN ["COM"]
properties('MP2/aug-cc-pvtz', properties = ['dipole'])
--------------------------------------------------------------------------

    Molecular point group: c1
  Charge       = 1
  Multiplicity = 1
  Basis Set: AUG-CC-PVTZ
    Blend: AUG-CC-PVTZ
  Basis Set: (AUG-CC-PVTZ AUX)
    Blend: AUG-CC-PVTZ-JKFIT

    Orbital Energies [Eh]
    ---------------------

    Doubly Occupied:

       1A    -15.791915     2A    -15.790328     3A    -15.786762
       4A    -11.594742     5A    -11.436454     6A     -1.537037
       7A     -1.401158     8A     -1.385012     9A     -1.143168
      10A     -1.041975    11A     -0.974735    12A     -0.927959
      13A     -0.874117    14A     -0.858709    15A     -0.817281
      16A     -0.790655    17A     -0.737660    18A     -0.726827
      19A     -0.624089    20A     -0.594964

  @DF-RHF Final Energy:  -243.65273654663136

   => Energetics <=

    Nuclear Repulsion Energy =            192.6144186251453903
    One-Electron Energy =                -702.8632141115384684
    Two-Electron Energy =                 266.5960589397616900
    Total Energy =                       -243.6527365466313881
  Basis Set: (AUG-CC-PVTZ AUX)
    Blend: AUG-CC-PVTZ-RI
    Molecular point group: c1

    Geometry (in Angstrom), charge = 1, multiplicity = 1:

       Center              X                  Y                   Z               Mass
    ------------   -----------------  -----------------  -----------------  -----------------
         C            1.989165928541    -0.040452805848     0.070109411064    12.000000000000
         C           -0.483109071459    -0.000010805848    -0.018740588936    12.000000000000
         N            0.670715928541    -0.663567805848    -0.069861588936    14.003074004430
         N           -0.493956071459     1.337131194152    -0.006428588936    14.003074004430
         N           -1.642310071459    -0.670278805848     0.043774411064    14.003074004430
         H            0.632133928541    -1.647957805848    -0.308985588936     1.007825032230
         H            0.319060928541     1.874784194152    -0.276098588936     1.007825032230
         H           -1.330635071459     1.851626194152     0.237269411064     1.007825032230
         H           -1.669993071459    -1.653343805848     0.281360411064     1.007825032230
         H           -2.499660471459    -0.285310205848    -0.436446188936     1.007825032230
         H            1.988789928541     0.635080194152     0.927291411064     1.007825032230
         H            2.278026928541     0.493651194152    -0.839113588936     1.007825032230
         H            2.712783928541    -0.832373805848     0.254868411064     1.007825032230

  Basis Set: AUG-CC-PVTZ
    Blend: AUG-CC-PVTZ
  Basis Set: (AUG-CC-PVTZ AUX)
    Blend: AUG-CC-PVTZ-JKFIT
	 Reference Energy          =    -243.6527365466313597 [Eh]
	 Singles Energy            =      -0.0000000000000000 [Eh]
	 Same-Spin Energy          =      -0.2457365212766003 [Eh]
	 Opposite-Spin Energy      =      -0.8104307380331357 [Eh]
	 Correlation Energy        =      -1.0561672593097360 [Eh]
	 Total Energy              =    -244.7089038059411052 [Eh]

	 ================> DF-SCS-MP2 Energies <==================
	-----------------------------------------------------------
	 SCS Same-Spin Scale       =       0.3333333333333333 [-]
	 SCS Opposite-Spin Scale   =       1.2000000000000000 [-]
	 SCS Same-Spin Energy      =      -0.0819121737588668 [Eh]
	 SCS Opposite-Spin Energy  =      -0.9725168856397628 [Eh]
	 SCS Correlation Energy    =      -1.0544290593986296 [Eh]
	 SCS Total Energy          =    -244.7071656060300029 [Eh]
	-----------------------------------------------------------

  Dipole Moment: [D]
     X:    -1.0537      Y:    -0.0533      Z:    -0.5833     Total:     1.2055

*** Psi4 exiting successfully. Buy a developer a beer!
