                               Psi4 1.3.2 release

  ==> Input File <==

--------------------------------------------------------------------------
#psi4
#
memory 32 gb

molecule  {
1 1
  C        1.9603260    -0.0474630     0.0649610
  C       -0.5119490    -0.0070210    -0.0238890
  N        0.6418760    -0.6705780    -0.0750100
  N       -0.5227960     1.3301210    -0.0115770
  N       -1.6588804    -0.6780633     0.2883235
  H        0.6032940    -1.6549680    -0.3141340
  H        0.2902210     1.8677740    -0.2812470
  H       -1.3594750     1.8446160     0.2321210
  H       -1.6988330    -1.6603540     0.2762120
  H       -2.5540630    -0.2212690    -0.1512530
  H        1.9599500     0.6280700     0.9221430
  H        2.2491870     0.4866410    -0.8442620
  H        2.6839440    -0.8393840     0.2497200
units angstrom
no_reorient  #important for SAPT in psi4, default
symmetry c1  #important for SAPT in psi4, default
}

set PROPERTIES_ORIGIN ["COM"]
properties('MP2/aug-cc-pvtz', properties = ['dipole'])
--------------------------------------------------------------------------

    Molecular point group: c1
  Charge       = 1
  Multiplicity = 1
  Basis Set: AUG-CC-PVTZ
    Blend: AUG-CC-PVTZ
  Basis Set: (AUG-CC-PVTZ AUX)
    Blend: AUG-CC-PVTZ-JKFIT

    Orbital Energies [Eh]
    ---------------------

    Doubly Occupied:

       1A    -15.794431     2A    -15.793278     3A    -15.790797
       4A    -11.597825     5A    -11.437791     6A     -1.536232
       7A     -1.402571     8A     -1.384461     9A     -1.144248
      10A     -1.044514    11A     -0.977685    12A     -0.917558
      13A     -0.867881    14A     -0.852021    15A     -0.826937
      16A     -0.784693    17A     -0.742198    18A     -0.728611
      19A     -0.626210    20A     -0.598177

  @DF-RHF Final Energy:  -243.64437072346453

   => Energetics <=

    Nuclear Repulsion Energy =            192.2052378512527469
    One-Electron Energy =                -702.0029759052266627
    Two-Electron Energy =                 266.1533673305094112
    Total Energy =                       -243.6443707234645331
  Basis Set: (AUG-CC-PVTZ AUX)
    Blend: AUG-CC-PVTZ-RI
    Molecular point group: c1

    Geometry (in Angstrom), charge = 1, multiplicity = 1:

       Center              X                  Y                   Z               Mass
    ------------   -----------------  -----------------  -----------------  -----------------
         C            1.987194200505    -0.041273155577     0.018954383587    12.000000000000
         C           -0.485080799495    -0.000831155577    -0.069895616413    12.000000000000
         N            0.668744200505    -0.664388155577    -0.121016616413    14.003074004430
         N           -0.495927799495     1.336310844423    -0.057583616413    14.003074004430
         N           -1.632012199495    -0.671873455577     0.242316883587    14.003074004430
         H            0.630162200505    -1.648778155577    -0.360140616413     1.007825032230
         H            0.317089200505     1.873963844423    -0.327253616413     1.007825032230
         H           -1.332606799495     1.850805844423     0.186114383587     1.007825032230
         H           -1.671964799495    -1.654164155577     0.230205383587     1.007825032230
         H           -2.527194799495    -0.215079155577    -0.197259616413     1.007825032230
         H            1.986818200505     0.634259844423     0.876136383587     1.007825032230
         H            2.276055200505     0.492830844423    -0.890268616413     1.007825032230
         H            2.710812200505    -0.833194155577     0.203713383587     1.007825032230

  Basis Set: AUG-CC-PVTZ
    Blend: AUG-CC-PVTZ
  Basis Set: (AUG-CC-PVTZ AUX)
    Blend: AUG-CC-PVTZ-JKFIT
	 Reference Energy          =    -243.6443707234645331 [Eh]
	 Singles Energy            =      -0.0000000000000000 [Eh]
	 Same-Spin Energy          =      -0.2457845520863600 [Eh]
	 Opposite-Spin Energy      =      -0.8113613902021637 [Eh]
	 Correlation Energy        =      -1.0571459422885237 [Eh]
	 Total Energy              =    -244.7015166657530472 [Eh]

	 ================> DF-SCS-MP2 Energies <==================
	-----------------------------------------------------------
	 SCS Same-Spin Scale       =       0.3333333333333333 [-]
	 SCS Opposite-Spin Scale   =       1.2000000000000000 [-]
	 SCS Same-Spin Energy      =      -0.0819281840287867 [Eh]
	 SCS Opposite-Spin Energy  =      -0.9736336682425963 [Eh]
	 SCS Correlation Energy    =      -1.0555618522713830 [Eh]
	 SCS Total Energy          =    -244.6999325757359145 [Eh]
	-----------------------------------------------------------

  Dipole Moment: [D]
     X:    -0.9767      Y:     0.0700      Z:    -0.9042     Total:     1.3328

*** Psi4 exiting successfully. Buy a developer a beer!
