                               Psi4 1.3.2 release

  ==> Input File <==

--------------------------------------------------------------------------
#psi4
#
memory 32 gb

molecule  {
1 1
  C        1.9603260    -0.0474630     0.0649610
  C       -0.5119490    -0.0070210    -0.0238890
  N        0.6418760    -0.6705780    -0.0750100
  N       -0.5227960     1.3301210    -0.0115770
  N       -1.6711500    -0.6772890     0.0386260
  H        0.5936831    -1.7045940    -0.0692975
  H        0.2902210     1.8677740    -0.2812470
  H       -1.3594750     1.8446160     0.2321210
  H       -1.6988330    -1.6603540     0.2762120
  H       -2.5540630    -0.2212690    -0.1512530
  H        1.9599500     0.6280700     0.9221430
  H        2.2491870     0.4866410    -0.8442620
  H        2.6839440    -0.8393840     0.2497200
units angstrom
no_reorient  #important for SAPT in psi4, default
symmetry c1  #important for SAPT in psi4, default
}

set PROPERTIES_ORIGIN ["COM"]
properties('MP2/aug-cc-pvtz', properties = ['dipole'])
--------------------------------------------------------------------------

    Molecular point group: c1
  Charge       = 1
  Multiplicity = 1
  Basis Set: AUG-CC-PVTZ
    Blend: AUG-CC-PVTZ
  Basis Set: (AUG-CC-PVTZ AUX)
    Blend: AUG-CC-PVTZ-JKFIT

    Orbital Energies [Eh]
    ---------------------

    Doubly Occupied:

       1A    -15.792272     2A    -15.789506     3A    -15.786578
       4A    -11.594994     5A    -11.436388     6A     -1.537518
       7A     -1.400665     8A     -1.388262     9A     -1.144592
      10A     -1.040312    11A     -0.973827    12A     -0.938020
      13A     -0.870315    14A     -0.861431    15A     -0.816502
      16A     -0.797451    17A     -0.741730    18A     -0.726126
      19A     -0.624290    20A     -0.592662

  @DF-RHF Final Energy:  -243.65559106172259

   => Energetics <=

    Nuclear Repulsion Energy =            192.7204146464360974
    One-Electron Energy =                -703.0451275284441408
    Two-Electron Energy =                 266.6691218202854543
    Total Energy =                       -243.6555910617225891
  Basis Set: (AUG-CC-PVTZ AUX)
    Blend: AUG-CC-PVTZ-RI
    Molecular point group: c1

    Geometry (in Angstrom), charge = 1, multiplicity = 1:

       Center              X                  Y                   Z               Mass
    ------------   -----------------  -----------------  -----------------  -----------------
         C            1.989644500995    -0.040744320945     0.062827750247    12.000000000000
         C           -0.482630499005    -0.000302320945    -0.026022249753    12.000000000000
         N            0.671194500995    -0.663859320945    -0.077143249753    14.003074004430
         N           -0.493477499005     1.336839679055    -0.013710249753    14.003074004430
         N           -1.641831499005    -0.670570320945     0.036492750247    14.003074004430
         H            0.623001600995    -1.697875320945    -0.071430749753     1.007825032230
         H            0.319539500995     1.874492679055    -0.283380249753     1.007825032230
         H           -1.330156499005     1.851334679055     0.229987750247     1.007825032230
         H           -1.669514499005    -1.653635320945     0.274078750247     1.007825032230
         H           -2.524744499005    -0.214550320945    -0.153386249753     1.007825032230
         H            1.989268500995     0.634788679055     0.920009750247     1.007825032230
         H            2.278505500995     0.493359679055    -0.846395249753     1.007825032230
         H            2.713262500995    -0.832665320945     0.247586750247     1.007825032230

  Basis Set: AUG-CC-PVTZ
    Blend: AUG-CC-PVTZ
  Basis Set: (AUG-CC-PVTZ AUX)
    Blend: AUG-CC-PVTZ-JKFIT
	 Reference Energy          =    -243.6555910617225891 [Eh]
	 Singles Energy            =      -0.0000000000000000 [Eh]
	 Same-Spin Energy          =      -0.2453608778187339 [Eh]
	 Opposite-Spin Energy      =      -0.8095655021548508 [Eh]
	 Correlation Energy        =      -1.0549263799735846 [Eh]
	 Total Energy              =    -244.7105174416961688 [Eh]

	 ================> DF-SCS-MP2 Energies <==================
	-----------------------------------------------------------
	 SCS Same-Spin Scale       =       0.3333333333333333 [-]
	 SCS Opposite-Spin Scale   =       1.2000000000000000 [-]
	 SCS Same-Spin Energy      =      -0.0817869592729113 [Eh]
	 SCS Opposite-Spin Energy  =      -0.9714786025858209 [Eh]
	 SCS Correlation Energy    =      -1.0532655618587321 [Eh]
	 SCS Total Energy          =    -244.7088566235813119 [Eh]
	-----------------------------------------------------------

  Dipole Moment: [D]
     X:    -1.1763      Y:    -0.0598      Z:     0.1693     Total:     1.1899

*** Psi4 exiting successfully. Buy a developer a beer!
