                               Psi4 1.3.2 release

  ==> Input File <==

--------------------------------------------------------------------------
#psi4
#
memory 32 gb

molecule  {
1 1
  C        1.9603260    -0.0474630     0.0649610
  C       -0.5119490    -0.0070210    -0.0238890
  N        0.6418760    -0.6705780    -0.0750100
  N       -0.5227960     1.3301210    -0.0115770
  N       -1.6711500    -0.6772890     0.0386260
  H        0.6032940    -1.6549680    -0.3141340
  H        0.2902210     1.8677740    -0.2812470
  H       -1.3594750     1.8446160     0.2321210
  H       -1.6988330    -1.6603540     0.2762120
  H       -2.5412817    -0.2567947    -0.2964238
  H        1.9599500     0.6280700     0.9221430
  H        2.2491870     0.4866410    -0.8442620
  H        2.6839440    -0.8393840     0.2497200
units angstrom
no_reorient  #important for SAPT in psi4, default
symmetry c1  #important for SAPT in psi4, default
}

set PROPERTIES_ORIGIN ["COM"]
properties('MP2/aug-cc-pvtz', properties = ['dipole'])
--------------------------------------------------------------------------

    Molecular point group: c1
  Charge       = 1
  Multiplicity = 1
  Basis Set: AUG-CC-PVTZ
    Blend: AUG-CC-PVTZ
  Basis Set: (AUG-CC-PVTZ AUX)
    Blend: AUG-CC-PVTZ-JKFIT

    Orbital Energies [Eh]
    ---------------------

    Doubly Occupied:

       1A    -15.790886     2A    -15.790220     3A    -15.786239
       4A    -11.595085     5A    -11.436302     6A     -1.537730
       7A     -1.401948     8A     -1.387498     9A     -1.144193
      10A     -1.042496    11A     -0.975328    12A     -0.935517
      13A     -0.873846    14A     -0.861716    15A     -0.817285
      16A     -0.792598    17A     -0.740084    18A     -0.727274
      19A     -0.624155    20A     -0.594159

  @DF-RHF Final Energy:  -243.65617352889697

   => Energetics <=

    Nuclear Repulsion Energy =            192.7631443536117786
    One-Electron Energy =                -703.1295190950207825
    Two-Electron Energy =                 266.7102012125120609
    Total Energy =                       -243.6561735288969430
  Basis Set: (AUG-CC-PVTZ AUX)
    Blend: AUG-CC-PVTZ-RI
    Molecular point group: c1

    Geometry (in Angstrom), charge = 1, multiplicity = 1:

       Center              X                  Y                   Z               Mass
    ------------   -----------------  -----------------  -----------------  -----------------
         C            1.989339831567    -0.040936170354     0.068134209676    12.000000000000
         C           -0.482935168433    -0.000494170354    -0.020715790324    12.000000000000
         N            0.670889831567    -0.664051170354    -0.071836790324    14.003074004430
         N           -0.493782168433     1.336647829646    -0.008403790324    14.003074004430
         N           -1.642136168433    -0.670762170354     0.041799209676    14.003074004430
         H            0.632307831567    -1.648441170354    -0.310960790324     1.007825032230
         H            0.319234831567     1.874300829646    -0.278073790324     1.007825032230
         H           -1.330461168433     1.851142829646     0.235294209676     1.007825032230
         H           -1.669819168433    -1.653827170354     0.279385209676     1.007825032230
         H           -2.512267868433    -0.250267870354    -0.293250590324     1.007825032230
         H            1.988963831567     0.634596829646     0.925316209676     1.007825032230
         H            2.278200831567     0.493167829646    -0.841088790324     1.007825032230
         H            2.712957831567    -0.832857170354     0.252893209676     1.007825032230

  Basis Set: AUG-CC-PVTZ
    Blend: AUG-CC-PVTZ
  Basis Set: (AUG-CC-PVTZ AUX)
    Blend: AUG-CC-PVTZ-JKFIT
	 Reference Energy          =    -243.6561735288969714 [Eh]
	 Singles Energy            =      -0.0000000000000000 [Eh]
	 Same-Spin Energy          =      -0.2454429878507078 [Eh]
	 Opposite-Spin Energy      =      -0.8096870485626282 [Eh]
	 Correlation Energy        =      -1.0551300364133360 [Eh]
	 Total Energy              =    -244.7113035653103168 [Eh]

	 ================> DF-SCS-MP2 Energies <==================
	-----------------------------------------------------------
	 SCS Same-Spin Scale       =       0.3333333333333333 [-]
	 SCS Opposite-Spin Scale   =       1.2000000000000000 [-]
	 SCS Same-Spin Energy      =      -0.0818143292835692 [Eh]
	 SCS Opposite-Spin Energy  =      -0.9716244582751538 [Eh]
	 SCS Correlation Energy    =      -1.0534387875587230 [Eh]
	 SCS Total Energy          =    -244.7096123164556900 [Eh]
	-----------------------------------------------------------

  Dipole Moment: [D]
     X:    -1.1314      Y:    -0.0187      Z:    -0.3699     Total:     1.1905

*** Psi4 exiting successfully. Buy a developer a beer!
