                               Psi4 1.3.2 release

  ==> Input File <==

--------------------------------------------------------------------------
#psi4
#
memory 32 gb

molecule  {
1 1
  C        1.9603260    -0.0474630     0.0649610
  C       -0.5119490    -0.0070210    -0.0238890
  N        0.6418760    -0.6705780    -0.0750100
  N       -0.5227960     1.3301210    -0.0115770
  N       -1.6711500    -0.6772890     0.0386260
  H        0.6032940    -1.6549680    -0.3141340
  H        0.2902210     1.8677740    -0.2812470
  H       -1.3594750     1.8446160     0.2321210
  H       -1.6988330    -1.6603540     0.2762120
  H       -2.5370213    -0.2686366    -0.3448141
  H        1.9599500     0.6280700     0.9221430
  H        2.2491870     0.4866410    -0.8442620
  H        2.6839440    -0.8393840     0.2497200
units angstrom
no_reorient  #important for SAPT in psi4, default
symmetry c1  #important for SAPT in psi4, default
}

set PROPERTIES_ORIGIN ["COM"]
properties('MP2/aug-cc-pvtz', properties = ['dipole'])
--------------------------------------------------------------------------

    Molecular point group: c1
  Charge       = 1
  Multiplicity = 1
  Basis Set: AUG-CC-PVTZ
    Blend: AUG-CC-PVTZ
  Basis Set: (AUG-CC-PVTZ AUX)
    Blend: AUG-CC-PVTZ-JKFIT

    Orbital Energies [Eh]
    ---------------------

    Doubly Occupied:

       1A    -15.791219     2A    -15.790257     3A    -15.786303
       4A    -11.594991     5A    -11.436350     6A     -1.537533
       7A     -1.401700     8A     -1.386843     9A     -1.143908
      10A     -1.042358    11A     -0.975162    12A     -0.933384
      13A     -0.874006    14A     -0.860973    15A     -0.817294
      16A     -0.792046    17A     -0.739311    18A     -0.727172
      19A     -0.624130    20A     -0.594430

  @DF-RHF Final Energy:  -243.65538034778703

   => Energetics <=

    Nuclear Repulsion Energy =            192.7228657469314044
    One-Electron Energy =                -703.0577505630720907
    Two-Electron Energy =                 266.6795044683536844
    Total Energy =                       -243.6553803477870019
  Basis Set: (AUG-CC-PVTZ AUX)
    Blend: AUG-CC-PVTZ-RI
    Molecular point group: c1

    Geometry (in Angstrom), charge = 1, multiplicity = 1:

       Center              X                  Y                   Z               Mass
    ------------   -----------------  -----------------  -----------------  -----------------
         C            1.989281864345    -0.040775048852     0.068792610592    12.000000000000
         C           -0.482993135655    -0.000333048852    -0.020057389408    12.000000000000
         N            0.670831864345    -0.663890048852    -0.071178389408    14.003074004430
         N           -0.493840135655     1.336808951148    -0.007745389408    14.003074004430
         N           -1.642194135655    -0.670601048852     0.042457610592    14.003074004430
         H            0.632249864345    -1.648280048852    -0.310302389408     1.007825032230
         H            0.319176864345     1.874461951148    -0.277415389408     1.007825032230
         H           -1.330519135655     1.851303951148     0.235952610592     1.007825032230
         H           -1.669877135655    -1.653666048852     0.280043610592     1.007825032230
         H           -2.508065435655    -0.261948648852    -0.340982489408     1.007825032230
         H            1.988905864345     0.634757951148     0.925974610592     1.007825032230
         H            2.278142864345     0.493328951148    -0.840430389408     1.007825032230
         H            2.712899864345    -0.832696048852     0.253551610592     1.007825032230

  Basis Set: AUG-CC-PVTZ
    Blend: AUG-CC-PVTZ
  Basis Set: (AUG-CC-PVTZ AUX)
    Blend: AUG-CC-PVTZ-JKFIT
	 Reference Energy          =    -243.6553803477870304 [Eh]
	 Singles Energy            =      -0.0000000000000000 [Eh]
	 Same-Spin Energy          =      -0.2455275333951243 [Eh]
	 Opposite-Spin Energy      =      -0.8098946442061044 [Eh]
	 Correlation Energy        =      -1.0554221776012287 [Eh]
	 Total Energy              =    -244.7108025253882602 [Eh]

	 ================> DF-SCS-MP2 Energies <==================
	-----------------------------------------------------------
	 SCS Same-Spin Scale       =       0.3333333333333333 [-]
	 SCS Opposite-Spin Scale   =       1.2000000000000000 [-]
	 SCS Same-Spin Energy      =      -0.0818425111317081 [Eh]
	 SCS Opposite-Spin Energy  =      -0.9718735730473251 [Eh]
	 SCS Correlation Energy    =      -1.0537160841790332 [Eh]
	 SCS Total Energy          =    -244.7090964319660600 [Eh]
	-----------------------------------------------------------

  Dipole Moment: [D]
     X:    -1.1071      Y:    -0.0303      Z:    -0.4416     Total:     1.1924

*** Psi4 exiting successfully. Buy a developer a beer!
