                               Psi4 1.3.2 release

  ==> Input File <==

--------------------------------------------------------------------------
#psi4
#
memory 32 gb

molecule  {
1 1
  C        1.9603260    -0.0474630     0.0649610
  C       -0.5119490    -0.0070210    -0.0238890
  N        0.6418760    -0.6705780    -0.0750100
  N       -0.5227960     1.3301210    -0.0115770
  N       -1.6711500    -0.6772890     0.0386260
  H        0.6032940    -1.6549680    -0.3141340
  H        0.2902210     1.8677740    -0.2812470
  H       -1.3149127     1.8452102     0.3753476
  H       -1.6988330    -1.6603540     0.2762120
  H       -2.5540630    -0.2212690    -0.1512530
  H        1.9599500     0.6280700     0.9221430
  H        2.2491870     0.4866410    -0.8442620
  H        2.6839440    -0.8393840     0.2497200
units angstrom
no_reorient  #important for SAPT in psi4, default
symmetry c1  #important for SAPT in psi4, default
}

set PROPERTIES_ORIGIN ["COM"]
properties('MP2/aug-cc-pvtz', properties = ['dipole'])
--------------------------------------------------------------------------

    Molecular point group: c1
  Charge       = 1
  Multiplicity = 1
  Basis Set: AUG-CC-PVTZ
    Blend: AUG-CC-PVTZ
  Basis Set: (AUG-CC-PVTZ AUX)
    Blend: AUG-CC-PVTZ-JKFIT

    Orbital Energies [Eh]
    ---------------------

    Doubly Occupied:

       1A    -15.790763     2A    -15.789427     3A    -15.786737
       4A    -11.595078     5A    -11.436429     6A     -1.537672
       7A     -1.401984     8A     -1.387473     9A     -1.144627
      10A     -1.041600    11A     -0.973965    12A     -0.938532
      13A     -0.875389    14A     -0.861250    15A     -0.814319
      16A     -0.793593    17A     -0.740408    18A     -0.727632
      19A     -0.624429    20A     -0.593682

  @DF-RHF Final Energy:  -243.65618898604805

   => Energetics <=

    Nuclear Repulsion Energy =            192.7801317915994446
    One-Electron Energy =                -703.1626644588694717
    Two-Electron Energy =                 266.7263436812219766
    Total Energy =                       -243.6561889860480505
  Basis Set: (AUG-CC-PVTZ AUX)
    Blend: AUG-CC-PVTZ-RI
    Molecular point group: c1

    Geometry (in Angstrom), charge = 1, multiplicity = 1:

       Center              X                  Y                   Z               Mass
    ------------   -----------------  -----------------  -----------------  -----------------
         C            1.988907417643    -0.041427619575     0.064210259785    12.000000000000
         C           -0.483367582357    -0.000985619575    -0.024639740215    12.000000000000
         N            0.670457417643    -0.664542619575    -0.075760740215    14.003074004430
         N           -0.494214582357     1.336156380425    -0.012327740215    14.003074004430
         N           -1.642568582357    -0.671253619575     0.037875259785    14.003074004430
         H            0.631875417643    -1.648932619575    -0.314884740215     1.007825032230
         H            0.318802417643     1.873809380425    -0.281997740215     1.007825032230
         H           -1.286331282357     1.851245580425     0.374596859785     1.007825032230
         H           -1.670251582357    -1.654318619575     0.275461259785     1.007825032230
         H           -2.525481582357    -0.215233619575    -0.152003740215     1.007825032230
         H            1.988531417643     0.634105380425     0.921392259785     1.007825032230
         H            2.277768417643     0.492676380425    -0.845012740215     1.007825032230
         H            2.712525417643    -0.833348619575     0.248969259785     1.007825032230

  Basis Set: AUG-CC-PVTZ
    Blend: AUG-CC-PVTZ
  Basis Set: (AUG-CC-PVTZ AUX)
    Blend: AUG-CC-PVTZ-JKFIT
	 Reference Energy          =    -243.6561889860480505 [Eh]
	 Singles Energy            =      -0.0000000000000000 [Eh]
	 Same-Spin Energy          =      -0.2454153766511230 [Eh]
	 Opposite-Spin Energy      =      -0.8096297116084901 [Eh]
	 Correlation Energy        =      -1.0550450882596130 [Eh]
	 Total Energy              =    -244.7112340743076686 [Eh]

	 ================> DF-SCS-MP2 Energies <==================
	-----------------------------------------------------------
	 SCS Same-Spin Scale       =       0.3333333333333333 [-]
	 SCS Opposite-Spin Scale   =       1.2000000000000000 [-]
	 SCS Same-Spin Energy      =      -0.0818051255503743 [Eh]
	 SCS Opposite-Spin Energy  =      -0.9715556539301881 [Eh]
	 SCS Correlation Energy    =      -1.0533607794805624 [Eh]
	 SCS Total Energy          =    -244.7095497655286067 [Eh]
	-----------------------------------------------------------

  Dipole Moment: [D]
     X:    -1.1166      Y:    -0.0091      Z:     0.0566     Total:     1.1181

*** Psi4 exiting successfully. Buy a developer a beer!
