                               Psi4 1.3.2 release

  ==> Input File <==

--------------------------------------------------------------------------
#psi4
#
memory 32 gb

molecule  {
0 1
  O        2.9378530    -0.0680150     0.1840270
  C       -1.9436970     0.3335570     0.3437070
  C       -2.8302210    -0.7631530    -0.2519080
  C       -0.5859380     0.3423530    -0.2788660
  C        0.6557523     0.1019682     0.4173015
  C        1.8486100     0.1294800    -0.3471130
  H       -1.8508390     0.1975730     1.4263050
  H       -2.4196650     1.3090330     0.1828770
  H       -2.9395310    -0.6342920    -1.3325490
  H       -3.8284810    -0.7404210     0.1934590
  H       -2.3959700    -1.7495570    -0.0705440
  H       -0.5478170     0.5276110    -1.3553930
  H        0.6030990    -0.0751360     1.4392450
  H        1.7772940     0.3293450    -1.4382350
units angstrom
no_reorient  #important for SAPT in psi4, default
symmetry c1  #important for SAPT in psi4, default
}

set PROPERTIES_ORIGIN ["COM"]
properties('MP2/aug-cc-pvtz', properties = ['dipole'])
--------------------------------------------------------------------------

    Molecular point group: c1
  Charge       = 0
  Multiplicity = 1
  Basis Set: AUG-CC-PVTZ
    Blend: AUG-CC-PVTZ
  Basis Set: (AUG-CC-PVTZ AUX)
    Blend: AUG-CC-PVTZ-JKFIT

    Orbital Energies [Eh]
    ---------------------

    Doubly Occupied:

       1A    -20.538306     2A    -11.323341     3A    -11.293741
       4A    -11.254703     5A    -11.248668     6A    -11.238902
       7A     -1.367974     8A     -1.108558     9A     -1.031258
      10A     -0.911606    11A     -0.812164    12A     -0.790700
      13A     -0.679033    14A     -0.646493    15A     -0.625495
      16A     -0.600245    17A     -0.564266    18A     -0.545558
      19A     -0.525326    20A     -0.520238    21A     -0.509399
      22A     -0.422474    23A     -0.360523

  @DF-RHF Final Energy:  -268.91871229410265

   => Energetics <=

    Nuclear Repulsion Energy =            209.5201829135095011
    One-Electron Energy =                -779.0398473477928292
    Two-Electron Energy =                 300.6009521401806523
    Total Energy =                       -268.9187122941026473
  Basis Set: (AUG-CC-PVTZ AUX)
    Blend: AUG-CC-PVTZ-RI
    Molecular point group: c1

    Geometry (in Angstrom), charge = 0, multiplicity = 1:

       Center              X                  Y                   Z               Mass
    ------------   -----------------  -----------------  -----------------  -----------------
         O            2.925574642953    -0.065637863055     0.177143052278    15.994914619570
         C           -1.955975357047     0.335934136945     0.336823052278    12.000000000000
         C           -2.842499357047    -0.760775863055    -0.258791947722    12.000000000000
         C           -0.598216357047     0.344730136945    -0.285749947722    12.000000000000
         C            0.643473942953     0.104345336945     0.410417552278    12.000000000000
         C            1.836331642953     0.131857136945    -0.353996947722    12.000000000000
         H           -1.863117357047     0.199950136945     1.419421052278     1.007825032230
         H           -2.431943357047     1.311410136945     0.175993052278     1.007825032230
         H           -2.951809357047    -0.631914863055    -1.339432947722     1.007825032230
         H           -3.840759357047    -0.738043863055     0.186575052278     1.007825032230
         H           -2.408248357047    -1.747179863055    -0.077427947722     1.007825032230
         H           -0.560095357047     0.529988136945    -1.362276947722     1.007825032230
         H            0.590820642953    -0.072758863055     1.432361052278     1.007825032230
         H            1.765015642953     0.331722136945    -1.445118947722     1.007825032230

  Basis Set: AUG-CC-PVTZ
    Blend: AUG-CC-PVTZ
  Basis Set: (AUG-CC-PVTZ AUX)
    Blend: AUG-CC-PVTZ-JKFIT
	 Reference Energy          =    -268.9187122941026473 [Eh]
	 Singles Energy            =      -0.0000000000000000 [Eh]
	 Same-Spin Energy          =      -0.2708656840145373 [Eh]
	 Opposite-Spin Energy      =      -0.9165520416616117 [Eh]
	 Correlation Energy        =      -1.1874177256761489 [Eh]
	 Total Energy              =    -270.1061300197787887 [Eh]

	 ================> DF-SCS-MP2 Energies <==================
	-----------------------------------------------------------
	 SCS Same-Spin Scale       =       0.3333333333333333 [-]
	 SCS Opposite-Spin Scale   =       1.2000000000000000 [-]
	 SCS Same-Spin Energy      =      -0.0902885613381791 [Eh]
	 SCS Opposite-Spin Energy  =      -1.0998624499939340 [Eh]
	 SCS Correlation Energy    =      -1.1901510113321132 [Eh]
	 SCS Total Energy          =    -270.1088633054347383 [Eh]
	-----------------------------------------------------------

  Dipole Moment: [D]
     X:    -4.1686      Y:     0.4099      Z:    -0.7384     Total:     4.2533

*** Psi4 exiting successfully. Buy a developer a beer!
