                               Psi4 1.3.2 release

  ==> Input File <==

--------------------------------------------------------------------------
#psi4
#
memory 32 gb

molecule  {
0 1
  O        2.9378530    -0.0680150     0.1840270
  C       -1.9739280     0.3481226     0.2730710
  C       -2.8302210    -0.7631530    -0.2519080
  C       -0.5859380     0.3423530    -0.2788660
  C        0.5697440     0.1186190     0.3690800
  C        1.8486100     0.1294800    -0.3471130
  H       -1.8508390     0.1975730     1.4263050
  H       -2.4196650     1.3090330     0.1828770
  H       -2.9395310    -0.6342920    -1.3325490
  H       -3.8284810    -0.7404210     0.1934590
  H       -2.3959700    -1.7495570    -0.0705440
  H       -0.6048885     0.5317751    -1.3551765
  H        0.6030990    -0.0751360     1.4392450
  H        1.7772940     0.3293450    -1.4382350
units angstrom
no_reorient  #important for SAPT in psi4, default
symmetry c1  #important for SAPT in psi4, default
}

set PROPERTIES_ORIGIN ["COM"]
properties('MP2/aug-cc-pvtz', properties = ['dipole'])
--------------------------------------------------------------------------

    Molecular point group: c1
  Charge       = 0
  Multiplicity = 1
  Basis Set: AUG-CC-PVTZ
    Blend: AUG-CC-PVTZ
  Basis Set: (AUG-CC-PVTZ AUX)
    Blend: AUG-CC-PVTZ-JKFIT

    Orbital Energies [Eh]
    ---------------------

    Doubly Occupied:

       1A    -20.550026     2A    -11.332571     3A    -11.275331
       4A    -11.251700     5A    -11.247946     6A    -11.234769
       7A     -1.373988     8A     -1.118078     9A     -1.037011
      10A     -0.907964    11A     -0.816582    12A     -0.780472
      13A     -0.680282    14A     -0.653308    15A     -0.617569
      16A     -0.606397    17A     -0.563986    18A     -0.555350
      19A     -0.529025    20A     -0.518806    21A     -0.481781
      22A     -0.425129    23A     -0.383934

  @DF-RHF Final Energy:  -268.92815288666742

   => Energetics <=

    Nuclear Repulsion Energy =            210.1552625990603644
    One-Electron Energy =                -780.2828211267525376
    Two-Electron Energy =                 301.1994056410247254
    Total Energy =                       -268.9281528866674194
  Basis Set: (AUG-CC-PVTZ AUX)
    Blend: AUG-CC-PVTZ-RI
    Molecular point group: c1

    Geometry (in Angstrom), charge = 0, multiplicity = 1:

       Center              X                  Y                   Z               Mass
    ------------   -----------------  -----------------  -----------------  -----------------
         O            2.942853165741    -0.070144223787     0.194108481341    15.994914619570
         C           -1.968927834259     0.345993376213     0.283152481341    12.000000000000
         C           -2.825220834259    -0.765282223787    -0.241826518659    12.000000000000
         C           -0.580937834259     0.340223776213    -0.268784518659    12.000000000000
         C            0.574744165741     0.116489776213     0.379161481341    12.000000000000
         C            1.853610165741     0.127350776213    -0.337031518659    12.000000000000
         H           -1.845838834259     0.195443776213     1.436386481341     1.007825032230
         H           -2.414664834259     1.306903776213     0.192958481341     1.007825032230
         H           -2.934530834259    -0.636421223787    -1.322467518659     1.007825032230
         H           -3.823480834259    -0.742550223787     0.203540481341     1.007825032230
         H           -2.390969834259    -1.751686223787    -0.060462518659     1.007825032230
         H           -0.599888334259     0.529645876213    -1.345095018659     1.007825032230
         H            0.608099165741    -0.077265223787     1.449326481341     1.007825032230
         H            1.782294165741     0.327215776213    -1.428153518659     1.007825032230

  Basis Set: AUG-CC-PVTZ
    Blend: AUG-CC-PVTZ
  Basis Set: (AUG-CC-PVTZ AUX)
    Blend: AUG-CC-PVTZ-JKFIT
	 Reference Energy          =    -268.9281528866674194 [Eh]
	 Singles Energy            =      -0.0000000000000000 [Eh]
	 Same-Spin Energy          =      -0.2696782996630853 [Eh]
	 Opposite-Spin Energy      =      -0.9146177776380031 [Eh]
	 Correlation Energy        =      -1.1842960773010884 [Eh]
	 Total Energy              =    -270.1124489639685180 [Eh]

	 ================> DF-SCS-MP2 Energies <==================
	-----------------------------------------------------------
	 SCS Same-Spin Scale       =       0.3333333333333333 [-]
	 SCS Opposite-Spin Scale   =       1.2000000000000000 [-]
	 SCS Same-Spin Energy      =      -0.0898927665543618 [Eh]
	 SCS Opposite-Spin Energy  =      -1.0975413331656036 [Eh]
	 SCS Correlation Energy    =      -1.1874340997199655 [Eh]
	 SCS Total Energy          =    -270.1155869863873704 [Eh]
	-----------------------------------------------------------

  Dipole Moment: [D]
     X:    -3.9206      Y:     0.4094      Z:    -0.8172     Total:     4.0257

*** Psi4 exiting successfully. Buy a developer a beer!
