                               Psi4 1.3.2 release

  ==> Input File <==

--------------------------------------------------------------------------
#psi4
#
memory 32 gb

molecule  {
0 1
  O        2.9378530    -0.0680150     0.1840270
  C       -1.9097445     0.3190155     0.4126366
  C       -2.8302210    -0.7631530    -0.2519080
  C       -0.5859380     0.3423530    -0.2788660
  C        0.5697440     0.1186190     0.3690800
  C        1.8486100     0.1294800    -0.3471130
  H       -1.8508390     0.1975730     1.4263050
  H       -2.4196650     1.3090330     0.1828770
  H       -2.9395310    -0.6342920    -1.3325490
  H       -3.8284810    -0.7404210     0.1934590
  H       -2.3959700    -1.7495570    -0.0705440
  H       -0.4908500     0.5229392    -1.3526588
  H        0.6030990    -0.0751360     1.4392450
  H        1.7772940     0.3293450    -1.4382350
units angstrom
no_reorient  #important for SAPT in psi4, default
symmetry c1  #important for SAPT in psi4, default
}

set PROPERTIES_ORIGIN ["COM"]
properties('MP2/aug-cc-pvtz', properties = ['dipole'])
--------------------------------------------------------------------------

    Molecular point group: c1
  Charge       = 0
  Multiplicity = 1
  Basis Set: AUG-CC-PVTZ
    Blend: AUG-CC-PVTZ
  Basis Set: (AUG-CC-PVTZ AUX)
    Blend: AUG-CC-PVTZ-JKFIT

    Orbital Energies [Eh]
    ---------------------

    Doubly Occupied:

       1A    -20.548144     2A    -11.330773     3A    -11.274397
       4A    -11.251258     5A    -11.242424     6A    -11.237620
       7A     -1.372347     8A     -1.116774     9A     -1.027837
      10A     -0.904996    11A     -0.821541    12A     -0.783020
      13A     -0.679071    14A     -0.648651    15A     -0.617188
      16A     -0.604775    17A     -0.556996    18A     -0.539063
      19A     -0.529782    20A     -0.522324    21A     -0.509399
      22A     -0.422864    23A     -0.377591

  @DF-RHF Final Energy:  -268.92852040881252

   => Energetics <=

    Nuclear Repulsion Energy =            210.0117564340996523
    One-Electron Energy =                -780.0428857512559944
    Two-Electron Energy =                 301.1026089083438251
    Total Energy =                       -268.9285204088125170
  Basis Set: (AUG-CC-PVTZ AUX)
    Blend: AUG-CC-PVTZ-RI
    Molecular point group: c1

    Geometry (in Angstrom), charge = 0, multiplicity = 1:

       Center              X                  Y                   Z               Mass
    ------------   -----------------  -----------------  -----------------  -----------------
         O            2.932323079808    -0.065882971932     0.174153994184    15.994914619570
         C           -1.915274420192     0.321147528068     0.402763594184    12.000000000000
         C           -2.835750920192    -0.761020971932    -0.261781005816    12.000000000000
         C           -0.591467920192     0.344485028068    -0.288739005816    12.000000000000
         C            0.564214079808     0.120751028068     0.359206994184    12.000000000000
         C            1.843080079808     0.131612028068    -0.356986005816    12.000000000000
         H           -1.856368920192     0.199705028068     1.416431994184     1.007825032230
         H           -2.425194920192     1.311165028068     0.173003994184     1.007825032230
         H           -2.945060920192    -0.632159971932    -1.342422005816     1.007825032230
         H           -3.834010920192    -0.738288971932     0.183585994184     1.007825032230
         H           -2.401499920192    -1.747424971932    -0.080417005816     1.007825032230
         H           -0.496379920192     0.525071228068    -1.362531805816     1.007825032230
         H            0.597569079808    -0.073003971932     1.429371994184     1.007825032230
         H            1.771764079808     0.331477028068    -1.448108005816     1.007825032230

  Basis Set: AUG-CC-PVTZ
    Blend: AUG-CC-PVTZ
  Basis Set: (AUG-CC-PVTZ AUX)
    Blend: AUG-CC-PVTZ-JKFIT
	 Reference Energy          =    -268.9285204088125170 [Eh]
	 Singles Energy            =      -0.0000000000000000 [Eh]
	 Same-Spin Energy          =      -0.2695089089212617 [Eh]
	 Opposite-Spin Energy      =      -0.9140487635332356 [Eh]
	 Correlation Energy        =      -1.1835576724544974 [Eh]
	 Total Energy              =    -270.1120780812669864 [Eh]

	 ================> DF-SCS-MP2 Energies <==================
	-----------------------------------------------------------
	 SCS Same-Spin Scale       =       0.3333333333333333 [-]
	 SCS Opposite-Spin Scale   =       1.2000000000000000 [-]
	 SCS Same-Spin Energy      =      -0.0898363029737539 [Eh]
	 SCS Opposite-Spin Energy  =      -1.0968585162398827 [Eh]
	 SCS Correlation Energy    =      -1.1866948192136366 [Eh]
	 SCS Total Energy          =    -270.1152152280261589 [Eh]
	-----------------------------------------------------------

  Dipole Moment: [D]
     X:    -3.9718      Y:     0.3944      Z:    -0.7430     Total:     4.0599

*** Psi4 exiting successfully. Buy a developer a beer!
