                               Psi4 1.3.2 release

  ==> Input File <==

--------------------------------------------------------------------------
#psi4
#
memory 32 gb

molecule  {
0 1
  O        2.9378530    -0.0680150     0.1840270
  C       -1.9436970     0.3335570     0.3437070
  C       -2.8302210    -0.7631530    -0.2519080
  C       -0.5651847     0.3355847    -0.2315179
  C        0.5697440     0.1186190     0.3690800
  C        1.8486100     0.1294800    -0.3471130
  H       -1.8128622     0.1962034     1.4222008
  H       -2.4196650     1.3090330     0.1828770
  H       -2.9395310    -0.6342920    -1.3325490
  H       -3.8284810    -0.7404210     0.1934590
  H       -2.3959700    -1.7495570    -0.0705440
  H       -0.5478170     0.5276110    -1.3553930
  H        0.6030990    -0.0751360     1.4392450
  H        1.7772940     0.3293450    -1.4382350
units angstrom
no_reorient  #important for SAPT in psi4, default
symmetry c1  #important for SAPT in psi4, default
}

set PROPERTIES_ORIGIN ["COM"]
properties('MP2/aug-cc-pvtz', properties = ['dipole'])
--------------------------------------------------------------------------

    Molecular point group: c1
  Charge       = 0
  Multiplicity = 1
  Basis Set: AUG-CC-PVTZ
    Blend: AUG-CC-PVTZ
  Basis Set: (AUG-CC-PVTZ AUX)
    Blend: AUG-CC-PVTZ-JKFIT

    Orbital Energies [Eh]
    ---------------------

    Doubly Occupied:

       1A    -20.551291     2A    -11.333358     3A    -11.270500
       4A    -11.250248     5A    -11.239773     6A    -11.236070
       7A     -1.374961     8A     -1.121903     9A     -1.035746
      10A     -0.906066    11A     -0.820595    12A     -0.775352
      13A     -0.679816    14A     -0.651106    15A     -0.617996
      16A     -0.606663    17A     -0.554688    18A     -0.548457
      19A     -0.528955    20A     -0.517746    21A     -0.496665
      22A     -0.425966    23A     -0.390305

  @DF-RHF Final Energy:  -268.93295167475617

   => Energetics <=

    Nuclear Repulsion Energy =            210.5441082087159259
    One-Electron Energy =                -781.0856692197505708
    Two-Electron Energy =                 301.6086093362785050
    Total Energy =                       -268.9329516747561684
  Basis Set: (AUG-CC-PVTZ AUX)
    Blend: AUG-CC-PVTZ-RI
    Molecular point group: c1

    Geometry (in Angstrom), charge = 0, multiplicity = 1:

       Center              X                  Y                   Z               Mass
    ------------   -----------------  -----------------  -----------------  -----------------
         O            2.934435076567    -0.067032261676     0.177316946492    15.994914619570
         C           -1.947114923433     0.334539738324     0.336996946492    12.000000000000
         C           -2.833638923433    -0.762170261676    -0.258618053508    12.000000000000
         C           -0.568602623433     0.336567438324    -0.238227953508    12.000000000000
         C            0.566326076567     0.119601738324     0.362369946492    12.000000000000
         C            1.845192076567     0.130462738324    -0.353823053508    12.000000000000
         H           -1.816280123433     0.197186138324     1.415490746492     1.007825032230
         H           -2.423082923433     1.310015738324     0.176166946492     1.007825032230
         H           -2.942948923433    -0.633309261676    -1.339259053508     1.007825032230
         H           -3.831898923433    -0.739438261676     0.186748946492     1.007825032230
         H           -2.399387923433    -1.748574261676    -0.077254053508     1.007825032230
         H           -0.551234923433     0.528593738324    -1.362103053508     1.007825032230
         H            0.599681076567    -0.074153261676     1.432534946492     1.007825032230
         H            1.773876076567     0.330327738324    -1.444945053508     1.007825032230

  Basis Set: AUG-CC-PVTZ
    Blend: AUG-CC-PVTZ
  Basis Set: (AUG-CC-PVTZ AUX)
    Blend: AUG-CC-PVTZ-JKFIT
	 Reference Energy          =    -268.9329516747561684 [Eh]
	 Singles Energy            =      -0.0000000000000000 [Eh]
	 Same-Spin Energy          =      -0.2692506677356590 [Eh]
	 Opposite-Spin Energy      =      -0.9134422539964103 [Eh]
	 Correlation Energy        =      -1.1826929217320694 [Eh]
	 Total Energy              =    -270.1156445964882096 [Eh]

	 ================> DF-SCS-MP2 Energies <==================
	-----------------------------------------------------------
	 SCS Same-Spin Scale       =       0.3333333333333333 [-]
	 SCS Opposite-Spin Scale   =       1.2000000000000000 [-]
	 SCS Same-Spin Energy      =      -0.0897502225785530 [Eh]
	 SCS Opposite-Spin Energy  =      -1.0961307047956923 [Eh]
	 SCS Correlation Energy    =      -1.1858809273742452 [Eh]
	 SCS Total Energy          =    -270.1188326021303965 [Eh]
	-----------------------------------------------------------

  Dipole Moment: [D]
     X:    -3.8936      Y:     0.3869      Z:    -0.7523     Total:     3.9844

*** Psi4 exiting successfully. Buy a developer a beer!
