                               Psi4 1.3.2 release

  ==> Input File <==

--------------------------------------------------------------------------
#psi4
#
memory 32 gb

molecule  {
0 1
  O        2.9565768    -0.0628347     0.1458260
  C       -1.9436970     0.3335570     0.3437070
  C       -2.8302210    -0.7631530    -0.2519080
  C       -0.5859380     0.3423530    -0.2788660
  C        0.5459636     0.1288262     0.3249440
  C        1.8486100     0.1294800    -0.3471130
  H       -1.8508390     0.1975730     1.4263050
  H       -2.4196650     1.3090330     0.1828770
  H       -2.9395310    -0.6342920    -1.3325490
  H       -3.8284810    -0.7404210     0.1934590
  H       -2.3959700    -1.7495570    -0.0705440
  H       -0.5478170     0.5276110    -1.3553930
  H        0.6030990    -0.0751360     1.4392450
  H        1.7772940     0.3293450    -1.4382350
units angstrom
no_reorient  #important for SAPT in psi4, default
symmetry c1  #important for SAPT in psi4, default
}

set PROPERTIES_ORIGIN ["COM"]
properties('MP2/aug-cc-pvtz', properties = ['dipole'])
--------------------------------------------------------------------------

    Molecular point group: c1
  Charge       = 0
  Multiplicity = 1
  Basis Set: AUG-CC-PVTZ
    Blend: AUG-CC-PVTZ
  Basis Set: (AUG-CC-PVTZ AUX)
    Blend: AUG-CC-PVTZ-JKFIT

    Orbital Energies [Eh]
    ---------------------

    Doubly Occupied:

       1A    -20.552686     2A    -11.333366     3A    -11.268337
       4A    -11.250978     5A    -11.245006     6A    -11.235829
       7A     -1.374785     8A     -1.124355     9A     -1.035961
      10A     -0.907116    11A     -0.823633    12A     -0.774546
      13A     -0.681663    14A     -0.651608    15A     -0.616661
      16A     -0.607328    17A     -0.553215    18A     -0.546618
      19A     -0.528028    20A     -0.516298    21A     -0.505743
      22A     -0.423250    23A     -0.392105

  @DF-RHF Final Energy:  -268.93256821778289

   => Energetics <=

    Nuclear Repulsion Energy =            210.3691042845659638
    One-Electron Energy =                -780.7051161171552849
    Two-Electron Energy =                 301.4034436148064060
    Total Energy =                       -268.9325682177828867
  Basis Set: (AUG-CC-PVTZ AUX)
    Blend: AUG-CC-PVTZ-RI
    Molecular point group: c1

    Geometry (in Angstrom), charge = 0, multiplicity = 1:

       Center              X                  Y                   Z               Mass
    ------------   -----------------  -----------------  -----------------  -----------------
         O            2.956408946328    -0.065277530155     0.159396044237    15.994914619570
         C           -1.943864853672     0.331114169845     0.357277044237    12.000000000000
         C           -2.830388853672    -0.765595830155    -0.238337955763    12.000000000000
         C           -0.586105853672     0.339910169845    -0.265295955763    12.000000000000
         C            0.545795746328     0.126383369845     0.338514044237    12.000000000000
         C            1.848442146328     0.127037169845    -0.333542955763    12.000000000000
         H           -1.851006853672     0.195130169845     1.439875044237     1.007825032230
         H           -2.419832853672     1.306590169845     0.196447044237     1.007825032230
         H           -2.939698853672    -0.636734830155    -1.318978955763     1.007825032230
         H           -3.828648853672    -0.742863830155     0.207029044237     1.007825032230
         H           -2.396137853672    -1.751999830155    -0.056973955763     1.007825032230
         H           -0.547984853672     0.525168169845    -1.341822955763     1.007825032230
         H            0.602931146328    -0.077578830155     1.452815044237     1.007825032230
         H            1.777126146328     0.326902169845    -1.424664955763     1.007825032230

  Basis Set: AUG-CC-PVTZ
    Blend: AUG-CC-PVTZ
  Basis Set: (AUG-CC-PVTZ AUX)
    Blend: AUG-CC-PVTZ-JKFIT
	 Reference Energy          =    -268.9325682177828867 [Eh]
	 Singles Energy            =      -0.0000000000000000 [Eh]
	 Same-Spin Energy          =      -0.2692496548664072 [Eh]
	 Opposite-Spin Energy      =      -0.9134650520604904 [Eh]
	 Correlation Energy        =      -1.1827147069268977 [Eh]
	 Total Energy              =    -270.1152829247097884 [Eh]

	 ================> DF-SCS-MP2 Energies <==================
	-----------------------------------------------------------
	 SCS Same-Spin Scale       =       0.3333333333333333 [-]
	 SCS Opposite-Spin Scale   =       1.2000000000000000 [-]
	 SCS Same-Spin Energy      =      -0.0897498849554691 [Eh]
	 SCS Opposite-Spin Energy  =      -1.0961580624725884 [Eh]
	 SCS Correlation Energy    =      -1.1859079474280574 [Eh]
	 SCS Total Energy          =    -270.1184761652109501 [Eh]
	-----------------------------------------------------------

  Dipole Moment: [D]
     X:    -3.9675      Y:     0.3945      Z:    -0.7071     Total:     4.0493

*** Psi4 exiting successfully. Buy a developer a beer!
