                               Psi4 1.3.2 release

  ==> Input File <==

--------------------------------------------------------------------------
#psi4
#
memory 32 gb

molecule  {
0 1
  O        2.9378530    -0.0680150     0.1840270
  C       -1.9436970     0.3335570     0.3437070
  C       -2.8302210    -0.7631530    -0.2519080
  C       -0.5917807     0.3410747    -0.2687802
  C        0.5697440     0.1186190     0.3690800
  C        1.8547034     0.1269407    -0.3361566
  H       -1.8508390     0.1975730     1.4263050
  H       -2.4196650     1.3090330     0.1828770
  H       -2.9395310    -0.6342920    -1.3325490
  H       -3.8284810    -0.7404210     0.1934590
  H       -2.3959700    -1.7495570    -0.0705440
  H       -0.5478170     0.5276110    -1.3553930
  H        0.6030990    -0.0751360     1.4392450
  H        1.7772940     0.3293450    -1.4382350
units angstrom
no_reorient  #important for SAPT in psi4, default
symmetry c1  #important for SAPT in psi4, default
}

set PROPERTIES_ORIGIN ["COM"]
properties('MP2/aug-cc-pvtz', properties = ['dipole'])
--------------------------------------------------------------------------

    Molecular point group: c1
  Charge       = 0
  Multiplicity = 1
  Basis Set: AUG-CC-PVTZ
    Blend: AUG-CC-PVTZ
  Basis Set: (AUG-CC-PVTZ AUX)
    Blend: AUG-CC-PVTZ-JKFIT

    Orbital Energies [Eh]
    ---------------------

    Doubly Occupied:

       1A    -20.549916     2A    -11.331529     3A    -11.274788
       4A    -11.250096     5A    -11.244418     6A    -11.235893
       7A     -1.380572     8A     -1.117547     9A     -1.032077
      10A     -0.906654    11A     -0.816790    12A     -0.778736
      13A     -0.679301    14A     -0.651585    15A     -0.617037
      16A     -0.608317    17A     -0.555790    18A     -0.548903
      19A     -0.530514    20A     -0.518282    21A     -0.505820
      22A     -0.422867    23A     -0.381125

  @DF-RHF Final Energy:  -268.93648236393176

   => Energetics <=

    Nuclear Repulsion Energy =            210.2558265281004992
    One-Electron Energy =                -780.5075049457002478
    Two-Electron Energy =                 301.3151960536680463
    Total Energy =                       -268.9364823639317592
  Basis Set: (AUG-CC-PVTZ AUX)
    Blend: AUG-CC-PVTZ-RI
    Molecular point group: c1

    Geometry (in Angstrom), charge = 0, multiplicity = 1:

       Center              X                  Y                   Z               Mass
    ------------   -----------------  -----------------  -----------------  -----------------
         O            2.937817346077    -0.067469922928     0.181023152713    15.994914619570
         C           -1.943732653923     0.334102077072     0.340703152713    12.000000000000
         C           -2.830256653923    -0.762607922928    -0.254911847287    12.000000000000
         C           -0.591816353923     0.341619777072    -0.271784047287    12.000000000000
         C            0.569708346077     0.119164077072     0.366076152713    12.000000000000
         C            1.854667746077     0.127485777072    -0.339160447287    12.000000000000
         H           -1.850874653923     0.198118077072     1.423301152713     1.007825032230
         H           -2.419700653923     1.309578077072     0.179873152713     1.007825032230
         H           -2.939566653923    -0.633746922928    -1.335552847287     1.007825032230
         H           -3.828516653923    -0.739875922928     0.190455152713     1.007825032230
         H           -2.396005653923    -1.749011922928    -0.073547847287     1.007825032230
         H           -0.547852653923     0.528156077072    -1.358396847287     1.007825032230
         H            0.603063346077    -0.074590922928     1.436241152713     1.007825032230
         H            1.777258346077     0.329890077072    -1.441238847287     1.007825032230

  Basis Set: AUG-CC-PVTZ
    Blend: AUG-CC-PVTZ
  Basis Set: (AUG-CC-PVTZ AUX)
    Blend: AUG-CC-PVTZ-JKFIT
	 Reference Energy          =    -268.9364823639317592 [Eh]
	 Singles Energy            =      -0.0000000000000000 [Eh]
	 Same-Spin Energy          =      -0.2693010488086854 [Eh]
	 Opposite-Spin Energy      =      -0.9134328286222283 [Eh]
	 Correlation Energy        =      -1.1827338774309137 [Eh]
	 Total Energy              =    -270.1192162413626647 [Eh]

	 ================> DF-SCS-MP2 Energies <==================
	-----------------------------------------------------------
	 SCS Same-Spin Scale       =       0.3333333333333333 [-]
	 SCS Opposite-Spin Scale   =       1.2000000000000000 [-]
	 SCS Same-Spin Energy      =      -0.0897670162695618 [Eh]
	 SCS Opposite-Spin Energy  =      -1.0961193943466738 [Eh]
	 SCS Correlation Energy    =      -1.1858864106162357 [Eh]
	 SCS Total Energy          =    -270.1223687745480220 [Eh]
	-----------------------------------------------------------

  Dipole Moment: [D]
     X:    -3.9281      Y:     0.3950      Z:    -0.7260     Total:     4.0141

*** Psi4 exiting successfully. Buy a developer a beer!
