                               Psi4 1.4a3.dev225

  ==> Input File <==

--------------------------------------------------------------------------
#psi4
#
memory 32 gb

molecule  {
0 1
  O        3.0568210     0.0670890     0.3064100
  C       -1.7873110     0.5014740    -0.3308760
  C       -2.7589810    -0.3710180     0.4711220
  C       -0.4385240    -0.1343210    -0.4437030
  C        0.7079740     0.3780980     0.0389610
  C        1.9329790    -0.3615006    -0.1262863
  H       -1.6911510     1.4872370     0.1370160
  H       -2.1942130     0.6629350    -1.3374030
  H       -2.8765390    -1.3546870     0.0071490
  H       -3.7457810     0.0968040     0.5260030
  H       -2.3920550    -0.5186010     1.4901810
  H       -0.4015900    -1.1050250    -0.9450900
  H        0.7410060     1.3377710     0.5508970
  H        1.9051690    -1.3201300    -0.6368870
units angstrom
no_reorient  #important for SAPT in psi4, default
symmetry c1  #important for SAPT in psi4, default
}

set PROPERTIES_ORIGIN ["COM"]
properties('MP2/aug-cc-pvtz', properties = ['dipole'])
--------------------------------------------------------------------------

    Molecular point group: c1
  Charge       = 0
  Multiplicity = 1
  Basis Set: AUG-CC-PVTZ
    Blend: AUG-CC-PVTZ
  Basis Set: (AUG-CC-PVTZ AUX)
    Blend: AUG-CC-PVTZ-JKFIT

    Orbital Energies [Eh]
    ---------------------

    Doubly Occupied:

       1A    -20.544373     2A    -11.332969     3A    -11.279082
       4A    -11.253077     5A    -11.247186     6A    -11.237934
       7A     -1.339195     8A     -1.121039     9A     -1.037289
      10A     -0.910572    11A     -0.821658    12A     -0.787147
      13A     -0.681197    14A     -0.645690    15A     -0.618179
      16A     -0.594902    17A     -0.561066    18A     -0.546712
      19A     -0.518016    20A     -0.511294    21A     -0.508264
      22A     -0.427442    23A     -0.379322

  @DF-RHF Final Energy:  -268.92653668415915

   => Energetics <=

    Nuclear Repulsion Energy =            209.6727682832058122
    One-Electron Energy =                -779.3913999289073899
    Two-Electron Energy =                 300.7920949615424888
    Total Energy =                       -268.9265366841591458
  Basis Set: (AUG-CC-PVTZ AUX)
    Blend: AUG-CC-PVTZ-RI
    Molecular point group: c1

    Geometry (in Angstrom), charge = 0, multiplicity = 1:

       Center              X                  Y                   Z               Mass
    ------------   -----------------  -----------------  -----------------  -----------------
         O            2.937513356972     0.061062282062     0.306387973019    15.994914619570
         C           -1.906618643028     0.495447282062    -0.330898026981    12.000000000000
         C           -2.878288643028    -0.377044717938     0.471099973019    12.000000000000
         C           -0.557831643028    -0.140347717938    -0.443725026981    12.000000000000
         C            0.588666356972     0.372071282062     0.038938973019    12.000000000000
         C            1.813671356972    -0.367527317938    -0.126308326981    12.000000000000
         H           -1.810458643028     1.481210282062     0.136993973019     1.007825032230
         H           -2.313520643028     0.656908282062    -1.337425026981     1.007825032230
         H           -2.995846643028    -1.360713717938     0.007126973019     1.007825032230
         H           -3.865088643028     0.090777282062     0.525980973019     1.007825032230
         H           -2.511362643028    -0.524627717938     1.490158973019     1.007825032230
         H           -0.520897643028    -1.111051717938    -0.945112026981     1.007825032230
         H            0.621698356972     1.331744282062     0.550874973019     1.007825032230
         H            1.785861356972    -1.326156717938    -0.636909026981     1.007825032230

  Basis Set: AUG-CC-PVTZ
    Blend: AUG-CC-PVTZ
  Basis Set: (AUG-CC-PVTZ AUX)
    Blend: AUG-CC-PVTZ-JKFIT
	 Reference Energy          =    -268.9265366841591458 [Eh]
	 Singles Energy            =      -0.0000000000000000 [Eh]
	 Same-Spin Energy          =      -0.2709559741154812 [Eh]
	 Opposite-Spin Energy      =      -0.9172277437826704 [Eh]
	 Correlation Energy        =      -1.1881837178981516 [Eh]
	 Total Energy              =    -270.1147204020572872 [Eh]

	 ================> DF-SCS-MP2 Energies <==================
	-----------------------------------------------------------
	 SCS Same-Spin Scale       =       0.3333333333333333 [-]
	 SCS Opposite-Spin Scale   =       1.2000000000000000 [-]
	 SCS Same-Spin Energy      =      -0.0903186580384937 [Eh]
	 SCS Opposite-Spin Energy  =      -1.1006732925392044 [Eh]
	 SCS Correlation Energy    =      -1.1909919505776982 [Eh]
	 SCS Total Energy          =    -270.1175286347368569 [Eh]
	-----------------------------------------------------------

  Dipole Moment: [D]
     X:    -4.1824      Y:    -0.5337      Z:    -0.9350     Total:     4.3187

*** Psi4 exiting successfully. Buy a developer a beer!
