                               Psi4 1.4a3.dev225

  ==> Input File <==

--------------------------------------------------------------------------
#psi4
#
memory 32 gb

molecule  {
0 1
  O        3.0568210     0.0670890     0.3064100
  C       -1.7873110     0.5014740    -0.3308760
  C       -2.7589810    -0.3710180     0.4711220
  C       -0.4385240    -0.1343210    -0.4437030
  C        0.7250177     0.3857156     0.0461362
  C        1.9769390    -0.3447360    -0.1093610
  H       -1.6911510     1.4872370     0.1370160
  H       -2.1942130     0.6629350    -1.3374030
  H       -2.8765390    -1.3546870     0.0071490
  H       -3.7457810     0.0968040     0.5260030
  H       -2.3920550    -0.5186010     1.4901810
  H       -0.4015900    -1.1050250    -0.9450900
  H        0.7410060     1.3377710     0.5508970
  H        1.9051690    -1.3201300    -0.6368870
units angstrom
no_reorient  #important for SAPT in psi4, default
symmetry c1  #important for SAPT in psi4, default
}

set PROPERTIES_ORIGIN ["COM"]
properties('MP2/aug-cc-pvtz', properties = ['dipole'])
--------------------------------------------------------------------------

    Molecular point group: c1
  Charge       = 0
  Multiplicity = 1
  Basis Set: AUG-CC-PVTZ
    Blend: AUG-CC-PVTZ
  Basis Set: (AUG-CC-PVTZ AUX)
    Blend: AUG-CC-PVTZ-JKFIT

    Orbital Energies [Eh]
    ---------------------

    Doubly Occupied:

       1A    -20.547135     2A    -11.330353     3A    -11.278876
       4A    -11.251673     5A    -11.246369     6A    -11.236507
       7A     -1.371870     8A     -1.113913     9A     -1.031368
      10A     -0.906840    11A     -0.816255    12A     -0.783531
      13A     -0.678871    14A     -0.648437    15A     -0.617820
      16A     -0.605035    17A     -0.559746    18A     -0.546732
      19A     -0.526210    20A     -0.517513    21A     -0.507614
      22A     -0.424126    23A     -0.376347

  @DF-RHF Final Energy:  -268.93453297160852

   => Energetics <=

    Nuclear Repulsion Energy =            209.7601894577645965
    One-Electron Energy =                -779.5431565658843738
    Two-Electron Energy =                 300.8484341365112869
    Total Energy =                       -268.9345329716085189
  Basis Set: (AUG-CC-PVTZ AUX)
    Blend: AUG-CC-PVTZ-RI
    Molecular point group: c1

    Geometry (in Angstrom), charge = 0, multiplicity = 1:

       Center              X                  Y                   Z               Mass
    ------------   -----------------  -----------------  -----------------  -----------------
         O            2.928804505644     0.057581493933     0.302947400210    15.994914619570
         C           -1.915327494356     0.491966493933    -0.334338599790    12.000000000000
         C           -2.886997494356    -0.380525506067     0.467659400210    12.000000000000
         C           -0.566540494356    -0.143828506067    -0.447165599790    12.000000000000
         C            0.597001205644     0.376208093933     0.042673600210    12.000000000000
         C            1.848922505644    -0.354243506067    -0.112823599790    12.000000000000
         H           -1.819167494356     1.477729493933     0.133553400210     1.007825032230
         H           -2.322229494356     0.653427493933    -1.340865599790     1.007825032230
         H           -3.004555494356    -1.364194506067     0.003686400210     1.007825032230
         H           -3.873797494356     0.087296493933     0.522540400210     1.007825032230
         H           -2.520071494356    -0.528108506067     1.486718400210     1.007825032230
         H           -0.529606494356    -1.114532506067    -0.948552599790     1.007825032230
         H            0.612989505644     1.328263493933     0.547434400210     1.007825032230
         H            1.777152505644    -1.329637506067    -0.640349599790     1.007825032230

  Basis Set: AUG-CC-PVTZ
    Blend: AUG-CC-PVTZ
  Basis Set: (AUG-CC-PVTZ AUX)
    Blend: AUG-CC-PVTZ-JKFIT
	 Reference Energy          =    -268.9345329716085189 [Eh]
	 Singles Energy            =      -0.0000000000000000 [Eh]
	 Same-Spin Energy          =      -0.2696222025138807 [Eh]
	 Opposite-Spin Energy      =      -0.9143847130074794 [Eh]
	 Correlation Energy        =      -1.1840069155213602 [Eh]
	 Total Energy              =    -270.1185398871298844 [Eh]

	 ================> DF-SCS-MP2 Energies <==================
	-----------------------------------------------------------
	 SCS Same-Spin Scale       =       0.3333333333333333 [-]
	 SCS Opposite-Spin Scale   =       1.2000000000000000 [-]
	 SCS Same-Spin Energy      =      -0.0898740675046269 [Eh]
	 SCS Opposite-Spin Energy  =      -1.0972616556089752 [Eh]
	 SCS Correlation Energy    =      -1.1871357231136019 [Eh]
	 SCS Total Energy          =    -270.1216686947221319 [Eh]
	-----------------------------------------------------------

  Dipole Moment: [D]
     X:    -3.9671      Y:    -0.4762      Z:    -0.8683     Total:     4.0888

*** Psi4 exiting successfully. Buy a developer a beer!
