                               Psi4 1.3.2 release

  ==> Input File <==

--------------------------------------------------------------------------
#psi4
#
memory 32 gb

molecule  {
0 1
  O        2.9329683    -0.0692248     0.1934865
  C       -1.9436970     0.3335570     0.3437070
  C       -2.8302210    -0.7631530    -0.2519080
  C       -0.5859380     0.3423530    -0.2788660
  C        0.5697440     0.1186190     0.3690800
  C        1.8486100     0.1294800    -0.3471130
  H       -1.8508390     0.1975730     1.4263050
  H       -2.4196650     1.3090330     0.1828770
  H       -2.9395310    -0.6342920    -1.3325490
  H       -3.8284810    -0.7404210     0.1934590
  H       -2.3959700    -1.7495570    -0.0705440
  H       -0.5478170     0.5276110    -1.3553930
  H        0.6030990    -0.0751360     1.4392450
  H        1.7676589     0.3301165    -1.4374208
units angstrom
no_reorient  #important for SAPT in psi4, default
symmetry c1  #important for SAPT in psi4, default
}

set PROPERTIES_ORIGIN ["COM"]
properties('MP2/aug-cc-pvtz', properties = ['dipole'])
--------------------------------------------------------------------------

    Molecular point group: c1
  Charge       = 0
  Multiplicity = 1
  Basis Set: AUG-CC-PVTZ
    Blend: AUG-CC-PVTZ
  Basis Set: (AUG-CC-PVTZ AUX)
    Blend: AUG-CC-PVTZ-JKFIT

    Orbital Energies [Eh]
    ---------------------

    Doubly Occupied:

       1A    -20.549323     2A    -11.331868     3A    -11.274079
       4A    -11.250317     5A    -11.244556     6A    -11.235578
       7A     -1.373333     8A     -1.116657     9A     -1.032057
      10A     -0.905863    11A     -0.817613    12A     -0.781774
      13A     -0.679344    14A     -0.649268    15A     -0.616223
      16A     -0.606750    17A     -0.558124    18A     -0.547111
      19A     -0.526848    20A     -0.516679    21A     -0.506798
      22A     -0.424237    23A     -0.380687

  @DF-RHF Final Energy:  -268.93593954456372

   => Energetics <=

    Nuclear Repulsion Energy =            210.1287685526604037
    One-Electron Energy =                -780.2792404336096297
    Two-Electron Energy =                 301.2145323363855027
    Total Energy =                       -268.9359395445637233
  Basis Set: (AUG-CC-PVTZ AUX)
    Blend: AUG-CC-PVTZ-RI
    Molecular point group: c1

    Geometry (in Angstrom), charge = 0, multiplicity = 1:

       Center              X                  Y                   Z               Mass
    ------------   -----------------  -----------------  -----------------  -----------------
         O            2.934013444796    -0.069003764025     0.191676858063    15.994914619570
         C           -1.942651855204     0.333778035975     0.341897358063    12.000000000000
         C           -2.829175855204    -0.762931964025    -0.253717641937    12.000000000000
         C           -0.584892855204     0.342574035975    -0.280675641937    12.000000000000
         C            0.570789144796     0.118840035975     0.367270358063    12.000000000000
         C            1.849655144796     0.129701035975    -0.348922641937    12.000000000000
         H           -1.849793855204     0.197794035975     1.424495358063     1.007825032230
         H           -2.418619855204     1.309254035975     0.181067358063     1.007825032230
         H           -2.938485855204    -0.634070964025    -1.334358641937     1.007825032230
         H           -3.827435855204    -0.740199964025     0.191649358063     1.007825032230
         H           -2.394924855204    -1.749335964025    -0.072353641937     1.007825032230
         H           -0.546771855204     0.527832035975    -1.357202641937     1.007825032230
         H            0.604144144796    -0.074914964025     1.437435358063     1.007825032230
         H            1.768704044796     0.330337535975    -1.439230441937     1.007825032230

  Basis Set: AUG-CC-PVTZ
    Blend: AUG-CC-PVTZ
  Basis Set: (AUG-CC-PVTZ AUX)
    Blend: AUG-CC-PVTZ-JKFIT
	 Reference Energy          =    -268.9359395445637233 [Eh]
	 Singles Energy            =      -0.0000000000000000 [Eh]
	 Same-Spin Energy          =      -0.2694467150115025 [Eh]
	 Opposite-Spin Energy      =      -0.9139306127037956 [Eh]
	 Correlation Energy        =      -1.1833773277152981 [Eh]
	 Total Energy              =    -270.1193168722790006 [Eh]

	 ================> DF-SCS-MP2 Energies <==================
	-----------------------------------------------------------
	 SCS Same-Spin Scale       =       0.3333333333333333 [-]
	 SCS Opposite-Spin Scale   =       1.2000000000000000 [-]
	 SCS Same-Spin Energy      =      -0.0898155716705008 [Eh]
	 SCS Opposite-Spin Energy  =      -1.0967167352445546 [Eh]
	 SCS Correlation Energy    =      -1.1865323069150555 [Eh]
	 SCS Total Energy          =    -270.1224718514787924 [Eh]
	-----------------------------------------------------------

  Dipole Moment: [D]
     X:    -3.9304      Y:     0.4087      Z:    -0.7872     Total:     4.0293

*** Psi4 exiting successfully. Buy a developer a beer!
