                               Psi4 1.3.2 release

  ==> Input File <==

--------------------------------------------------------------------------
#psi4
#
memory 32 gb

molecule  {
0 1
  O        2.9378530    -0.0680150     0.1840270
  C       -1.9436970     0.3335570     0.3437070
  C       -2.8302210    -0.7631530    -0.2519080
  C       -0.5859380     0.3423530    -0.2788660
  C        0.5697440     0.1186190     0.3690800
  C        1.8361261     0.1344974    -0.3688718
  H       -1.8508390     0.1975730     1.4263050
  H       -2.4196650     1.3090330     0.1828770
  H       -2.9395310    -0.6342920    -1.3325490
  H       -3.8284810    -0.7404210     0.1934590
  H       -2.3959700    -1.7495570    -0.0705440
  H       -0.5478170     0.5276110    -1.3553930
  H        0.5841896    -0.0735361     1.4399555
  H        1.7772940     0.3293450    -1.4382350
units angstrom
no_reorient  #important for SAPT in psi4, default
symmetry c1  #important for SAPT in psi4, default
}

set PROPERTIES_ORIGIN ["COM"]
properties('MP2/aug-cc-pvtz', properties = ['dipole'])
--------------------------------------------------------------------------

    Molecular point group: c1
  Charge       = 0
  Multiplicity = 1
  Basis Set: AUG-CC-PVTZ
    Blend: AUG-CC-PVTZ
  Basis Set: (AUG-CC-PVTZ AUX)
    Blend: AUG-CC-PVTZ-JKFIT

    Orbital Energies [Eh]
    ---------------------

    Doubly Occupied:

       1A    -20.547817     2A    -11.332863     3A    -11.274458
       4A    -11.250755     5A    -11.246034     6A    -11.236025
       7A     -1.358864     8A     -1.117713     9A     -1.032972
      10A     -0.906611    11A     -0.820131    12A     -0.784763
      13A     -0.680029    14A     -0.646785    15A     -0.617095
      16A     -0.602748    17A     -0.558928    18A     -0.546397
      19A     -0.520117    20A     -0.515990    21A     -0.507319
      22A     -0.426703    23A     -0.379956

  @DF-RHF Final Energy:  -268.93280568159781

   => Energetics <=

    Nuclear Repulsion Energy =            209.8546233696575314
    One-Electron Energy =                -779.7527087335538454
    Two-Electron Energy =                 300.9652796822985579
    Total Energy =                       -268.9328056815978130
  Basis Set: (AUG-CC-PVTZ AUX)
    Blend: AUG-CC-PVTZ-RI
    Molecular point group: c1

    Geometry (in Angstrom), charge = 0, multiplicity = 1:

       Center              X                  Y                   Z               Mass
    ------------   -----------------  -----------------  -----------------  -----------------
         O            2.939862048052    -0.068750384519     0.187124878906    15.994914619570
         C           -1.941687951948     0.332821615481     0.346804878906    12.000000000000
         C           -2.828211951948    -0.763888384519    -0.248810121094    12.000000000000
         C           -0.583928951948     0.341617615481    -0.275768121094    12.000000000000
         C            0.571753048052     0.117883615481     0.372177878906    12.000000000000
         C            1.838135148052     0.133762015481    -0.365773921094    12.000000000000
         H           -1.848829951948     0.196837615481     1.429402878906     1.007825032230
         H           -2.417655951948     1.308297615481     0.185974878906     1.007825032230
         H           -2.937521951948    -0.635027384519    -1.329451121094     1.007825032230
         H           -3.826471951948    -0.741156384519     0.196556878906     1.007825032230
         H           -2.393960951948    -1.750292384519    -0.067446121094     1.007825032230
         H           -0.545807951948     0.526875615481    -1.352295121094     1.007825032230
         H            0.586198648052    -0.074271484519     1.443053378906     1.007825032230
         H            1.779303048052     0.328609615481    -1.435137121094     1.007825032230

  Basis Set: AUG-CC-PVTZ
    Blend: AUG-CC-PVTZ
  Basis Set: (AUG-CC-PVTZ AUX)
    Blend: AUG-CC-PVTZ-JKFIT
	 Reference Energy          =    -268.9328056815978130 [Eh]
	 Singles Energy            =      -0.0000000000000000 [Eh]
	 Same-Spin Energy          =      -0.2699412596298825 [Eh]
	 Opposite-Spin Energy      =      -0.9151855719908293 [Eh]
	 Correlation Energy        =      -1.1851268316207118 [Eh]
	 Total Energy              =    -270.1179325132185340 [Eh]

	 ================> DF-SCS-MP2 Energies <==================
	-----------------------------------------------------------
	 SCS Same-Spin Scale       =       0.3333333333333333 [-]
	 SCS Opposite-Spin Scale   =       1.2000000000000000 [-]
	 SCS Same-Spin Energy      =      -0.0899804198766275 [Eh]
	 SCS Opposite-Spin Energy  =      -1.0982226863889950 [Eh]
	 SCS Correlation Energy    =      -1.1882031062656224 [Eh]
	 SCS Total Energy          =    -270.1210087878634454 [Eh]
	-----------------------------------------------------------

  Dipole Moment: [D]
     X:    -4.0104      Y:     0.4254      Z:    -0.8416     Total:     4.1198

*** Psi4 exiting successfully. Buy a developer a beer!
