                               Psi4 1.3.2 release

  ==> Input File <==

--------------------------------------------------------------------------
#psi4
#
memory 32 gb

molecule  {
0 1
  O        2.9378530    -0.0680150     0.1840270
  C       -1.9436970     0.3335570     0.3437070
  C       -2.8302210    -0.7631530    -0.2519080
  C       -0.5859380     0.3423530    -0.2788660
  C        0.5328907     0.1116850     0.4285988
  C        1.8486100     0.1294800    -0.3471130
  H       -1.8508390     0.1975730     1.4263050
  H       -2.4196650     1.3090330     0.1828770
  H       -2.9395310    -0.6342920    -1.3325490
  H       -3.8284810    -0.7404210     0.1934590
  H       -2.3959700    -1.7495570    -0.0705440
  H       -0.6047884     0.5329614    -1.3549688
  H        0.6030990    -0.0751360     1.4392450
  H        1.7772940     0.3293450    -1.4382350
units angstrom
no_reorient  #important for SAPT in psi4, default
symmetry c1  #important for SAPT in psi4, default
}

set PROPERTIES_ORIGIN ["COM"]
properties('MP2/aug-cc-pvtz', properties = ['dipole'])
--------------------------------------------------------------------------

    Molecular point group: c1
  Charge       = 0
  Multiplicity = 1
  Basis Set: AUG-CC-PVTZ
    Blend: AUG-CC-PVTZ
  Basis Set: (AUG-CC-PVTZ AUX)
    Blend: AUG-CC-PVTZ-JKFIT

    Orbital Energies [Eh]
    ---------------------

    Doubly Occupied:

       1A    -20.550602     2A    -11.335733     3A    -11.271530
       4A    -11.245911     5A    -11.245782     6A    -11.233471
       7A     -1.373531     8A     -1.114474     9A     -1.025479
      10A     -0.899137    11A     -0.810498    12A     -0.791169
      13A     -0.678197    14A     -0.647364    15A     -0.618987
      16A     -0.606177    17A     -0.571387    18A     -0.543318
      19A     -0.523909    20A     -0.512278    21A     -0.505448
      22A     -0.419061    23A     -0.380713

  @DF-RHF Final Energy:  -268.93015949518656

   => Energetics <=

    Nuclear Repulsion Energy =            209.6467466477225798
    One-Electron Energy =                -779.3454995100233873
    Two-Electron Energy =                 300.7685933671142493
    Total Energy =                       -268.9301594951865582
  Basis Set: (AUG-CC-PVTZ AUX)
    Blend: AUG-CC-PVTZ-RI
    Molecular point group: c1

    Geometry (in Angstrom), charge = 0, multiplicity = 1:

       Center              X                  Y                   Z               Mass
    ------------   -----------------  -----------------  -----------------  -----------------
         O            2.943797361115    -0.067089177280     0.175525170527    15.994914619570
         C           -1.937752638885     0.334482822720     0.335205170527    12.000000000000
         C           -2.824276638885    -0.762227177280    -0.260409829473    12.000000000000
         C           -0.579993638885     0.343278822720    -0.287367829473    12.000000000000
         C            0.538835061115     0.112610822720     0.420096970527    12.000000000000
         C            1.854554361115     0.130405822720    -0.355614829473    12.000000000000
         H           -1.844894638885     0.198498822720     1.417803170527     1.007825032230
         H           -2.413720638885     1.309958822720     0.174375170527     1.007825032230
         H           -2.933586638885    -0.633366177280    -1.341050829473     1.007825032230
         H           -3.822536638885    -0.739495177280     0.184957170527     1.007825032230
         H           -2.390025638885    -1.748631177280    -0.079045829473     1.007825032230
         H           -0.598844038885     0.533887222720    -1.363470629473     1.007825032230
         H            0.609043361115    -0.074210177280     1.430743170527     1.007825032230
         H            1.783238361115     0.330270822720    -1.446736829473     1.007825032230

  Basis Set: AUG-CC-PVTZ
    Blend: AUG-CC-PVTZ
  Basis Set: (AUG-CC-PVTZ AUX)
    Blend: AUG-CC-PVTZ-JKFIT
	 Reference Energy          =    -268.9301594951865582 [Eh]
	 Singles Energy            =      -0.0000000000000000 [Eh]
	 Same-Spin Energy          =      -0.2689974281212011 [Eh]
	 Opposite-Spin Energy      =      -0.9138056150015142 [Eh]
	 Correlation Energy        =      -1.1828030431227154 [Eh]
	 Total Energy              =    -270.1129625383092616 [Eh]

	 ================> DF-SCS-MP2 Energies <==================
	-----------------------------------------------------------
	 SCS Same-Spin Scale       =       0.3333333333333333 [-]
	 SCS Opposite-Spin Scale   =       1.2000000000000000 [-]
	 SCS Same-Spin Energy      =      -0.0896658093737337 [Eh]
	 SCS Opposite-Spin Energy  =      -1.0965667380018171 [Eh]
	 SCS Correlation Energy    =      -1.1862325473755508 [Eh]
	 SCS Total Energy          =    -270.1163920425620972 [Eh]
	-----------------------------------------------------------

  Dipole Moment: [D]
     X:    -3.7646      Y:     0.4081      Z:    -0.7907     Total:     3.8683

*** Psi4 exiting successfully. Buy a developer a beer!
