                               Psi4 1.3.2 release

  ==> Input File <==

--------------------------------------------------------------------------
#psi4
#
memory 32 gb

molecule  {
0 1
  O        2.9654069    -0.0604435     0.1264459
  C       -1.9436970     0.3335570     0.3437070
  C       -2.8302210    -0.7631530    -0.2519080
  C       -0.5859380     0.3423530    -0.2788660
  C        0.5697440     0.1186190     0.3690800
  C        1.8486100     0.1294800    -0.3471130
  H       -1.8508390     0.1975730     1.4263050
  H       -2.4196650     1.3090330     0.1828770
  H       -2.9395310    -0.6342920    -1.3325490
  H       -3.8284810    -0.7404210     0.1934590
  H       -2.3959700    -1.7495570    -0.0705440
  H       -0.5478170     0.5276110    -1.3553930
  H        0.6030990    -0.0751360     1.4392450
  H        1.8351932     0.3243986    -1.4413734
units angstrom
no_reorient  #important for SAPT in psi4, default
symmetry c1  #important for SAPT in psi4, default
}

set PROPERTIES_ORIGIN ["COM"]
properties('MP2/aug-cc-pvtz', properties = ['dipole'])
--------------------------------------------------------------------------

    Molecular point group: c1
  Charge       = 0
  Multiplicity = 1
  Basis Set: AUG-CC-PVTZ
    Blend: AUG-CC-PVTZ
  Basis Set: (AUG-CC-PVTZ AUX)
    Blend: AUG-CC-PVTZ-JKFIT

    Orbital Energies [Eh]
    ---------------------

    Doubly Occupied:

       1A    -20.547164     2A    -11.330143     3A    -11.276476
       4A    -11.251552     5A    -11.248014     6A    -11.236477
       7A     -1.371997     8A     -1.118135     9A     -1.033059
      10A     -0.906232    11A     -0.817253    12A     -0.781356
      13A     -0.681217    14A     -0.649446    15A     -0.618179
      16A     -0.604917    17A     -0.559906    18A     -0.547677
      19A     -0.525713    20A     -0.517273    21A     -0.507813
      22A     -0.421689    23A     -0.382570

  @DF-RHF Final Energy:  -268.93479918241923

   => Energetics <=

    Nuclear Repulsion Energy =            209.7910120029963537
    One-Electron Energy =                -779.5831027875971131
    Two-Electron Energy =                 300.8572916021815331
    Total Energy =                       -268.9347991824192263
  Basis Set: (AUG-CC-PVTZ AUX)
    Blend: AUG-CC-PVTZ-RI
    Molecular point group: c1

    Geometry (in Angstrom), charge = 0, multiplicity = 1:

       Center              X                  Y                   Z               Mass
    ------------   -----------------  -----------------  -----------------  -----------------
         O            2.959469737547    -0.061824860922     0.137440493399    15.994914619570
         C           -1.949634162453     0.332175639078     0.354701593399    12.000000000000
         C           -2.836158162453    -0.764534360922    -0.240913406601    12.000000000000
         C           -0.591875162453     0.340971639078    -0.267871406601    12.000000000000
         C            0.563806837547     0.117237639078     0.380074593399    12.000000000000
         C            1.842672837547     0.128098639078    -0.336118406601    12.000000000000
         H           -1.856776162453     0.196191639078     1.437299593399     1.007825032230
         H           -2.425602162453     1.307651639078     0.193871593399     1.007825032230
         H           -2.945468162453    -0.635673360922    -1.321554406601     1.007825032230
         H           -3.834418162453    -0.741802360922     0.204453593399     1.007825032230
         H           -2.401907162453    -1.750938360922    -0.059549406601     1.007825032230
         H           -0.553754162453     0.526229639078    -1.344398406601     1.007825032230
         H            0.597161837547    -0.076517360922     1.450239593399     1.007825032230
         H            1.829256037547     0.323017239078    -1.430378806601     1.007825032230

  Basis Set: AUG-CC-PVTZ
    Blend: AUG-CC-PVTZ
  Basis Set: (AUG-CC-PVTZ AUX)
    Blend: AUG-CC-PVTZ-JKFIT
	 Reference Energy          =    -268.9347991824192263 [Eh]
	 Singles Energy            =      -0.0000000000000000 [Eh]
	 Same-Spin Energy          =      -0.2693124217711100 [Eh]
	 Opposite-Spin Energy      =      -0.9138007786572405 [Eh]
	 Correlation Energy        =      -1.1831132004283504 [Eh]
	 Total Energy              =    -270.1179123828475781 [Eh]

	 ================> DF-SCS-MP2 Energies <==================
	-----------------------------------------------------------
	 SCS Same-Spin Scale       =       0.3333333333333333 [-]
	 SCS Opposite-Spin Scale   =       1.2000000000000000 [-]
	 SCS Same-Spin Energy      =      -0.0897708072570367 [Eh]
	 SCS Opposite-Spin Energy  =      -1.0965609343886886 [Eh]
	 SCS Correlation Energy    =      -1.1863317416457253 [Eh]
	 SCS Total Energy          =    -270.1211309240649712 [Eh]
	-----------------------------------------------------------

  Dipole Moment: [D]
     X:    -4.0463      Y:     0.3931      Z:    -0.6636     Total:     4.1191

*** Psi4 exiting successfully. Buy a developer a beer!
