                               Psi4 1.3.2 release

  ==> Input File <==

--------------------------------------------------------------------------
#psi4
#
memory 32 gb

molecule  {
0 1
  O        2.9378530    -0.0680150     0.1840270
  C       -1.9436970     0.3335570     0.3437070
  C       -2.8302210    -0.7631530    -0.2519080
  C       -0.5859380     0.3423530    -0.2788660
  C        0.5697440     0.1186190     0.3690800
  C        2.0231048     0.1309619    -0.4448339
  H       -1.8508390     0.1975730     1.4263050
  H       -2.4196650     1.3090330     0.1828770
  H       -2.9395310    -0.6342920    -1.3325490
  H       -3.8284810    -0.7404210     0.1934590
  H       -2.3959700    -1.7495570    -0.0705440
  H       -0.5478170     0.5276110    -1.3553930
  H        0.6030990    -0.0751360     1.4392450
  H        1.7772940     0.3293450    -1.4382350
units angstrom
no_reorient  #important for SAPT in psi4, default
symmetry c1  #important for SAPT in psi4, default
}

set PROPERTIES_ORIGIN ["COM"]
properties('MP2/aug-cc-pvtz', properties = ['dipole'])
--------------------------------------------------------------------------

    Molecular point group: c1
  Charge       = 0
  Multiplicity = 1
  Basis Set: AUG-CC-PVTZ
    Blend: AUG-CC-PVTZ
  Basis Set: (AUG-CC-PVTZ AUX)
    Blend: AUG-CC-PVTZ-JKFIT

    Orbital Energies [Eh]
    ---------------------

    Doubly Occupied:

       1A    -20.569050     2A    -11.337045     3A    -11.249791
       4A    -11.237431     5A    -11.235442     6A    -11.225184
       7A     -1.458303     8A     -1.094060     9A     -1.004038
      10A     -0.884158    11A     -0.825042    12A     -0.770337
      13A     -0.692361    14A     -0.664250    15A     -0.613758
      16A     -0.610888    17A     -0.579028    18A     -0.547942
      19A     -0.535655    20A     -0.511445    21A     -0.494660
      22A     -0.397217    23A     -0.367928

  @DF-RHF Final Energy:  -268.90626789738087

   => Energetics <=

    Nuclear Repulsion Energy =            209.3520404599372853
    One-Electron Energy =                -778.7065923764462241
    Two-Electron Energy =                 300.4482840191280957
    Total Energy =                       -268.9062678973808715
  Basis Set: (AUG-CC-PVTZ AUX)
    Blend: AUG-CC-PVTZ-RI
    Molecular point group: c1

    Geometry (in Angstrom), charge = 0, multiplicity = 1:

       Center              X                  Y                   Z               Mass
    ------------   -----------------  -----------------  -----------------  -----------------
         O            2.912942363715    -0.068226476344     0.197977701061    15.994914619570
         C           -1.968607636285     0.333345523656     0.357657701061    12.000000000000
         C           -2.855131636285    -0.763364476344    -0.237957298939    12.000000000000
         C           -0.610848636285     0.342141523656    -0.264915298939    12.000000000000
         C            0.544833363715     0.118407523656     0.383030701061    12.000000000000
         C            1.998194163715     0.130750423656    -0.430883198939    12.000000000000
         H           -1.875749636285     0.197361523656     1.440255701061     1.007825032230
         H           -2.444575636285     1.308821523656     0.196827701061     1.007825032230
         H           -2.964441636285    -0.634503476344    -1.318598298939     1.007825032230
         H           -3.853391636285    -0.740632476344     0.207409701061     1.007825032230
         H           -2.420880636285    -1.749768476344    -0.056593298939     1.007825032230
         H           -0.572727636285     0.527399523656    -1.341442298939     1.007825032230
         H            0.578188363715    -0.075347476344     1.453195701061     1.007825032230
         H            1.752383363715     0.329133523656    -1.424284298939     1.007825032230

  Basis Set: AUG-CC-PVTZ
    Blend: AUG-CC-PVTZ
  Basis Set: (AUG-CC-PVTZ AUX)
    Blend: AUG-CC-PVTZ-JKFIT
	 Reference Energy          =    -268.9062678973808715 [Eh]
	 Singles Energy            =      -0.0000000000000000 [Eh]
	 Same-Spin Energy          =      -0.2666216494980732 [Eh]
	 Opposite-Spin Energy      =      -0.9093388632230682 [Eh]
	 Correlation Energy        =      -1.1759605127211414 [Eh]
	 Total Energy              =    -270.0822284101020045 [Eh]

	 ================> DF-SCS-MP2 Energies <==================
	-----------------------------------------------------------
	 SCS Same-Spin Scale       =       0.3333333333333333 [-]
	 SCS Opposite-Spin Scale   =       1.2000000000000000 [-]
	 SCS Same-Spin Energy      =      -0.0888738831660244 [Eh]
	 SCS Opposite-Spin Energy  =      -1.0912066358676817 [Eh]
	 SCS Correlation Energy    =      -1.1800805190337060 [Eh]
	 SCS Total Energy          =    -270.0863484164145802 [Eh]
	-----------------------------------------------------------

  Dipole Moment: [D]
     X:    -2.3997      Y:     0.3601      Z:    -1.0472     Total:     2.6428

*** Psi4 exiting successfully. Buy a developer a beer!
