                               Psi4 1.3.2 release

  ==> Input File <==

--------------------------------------------------------------------------
#psi4
#
memory 32 gb

molecule  {
0 1
  O        2.9378530    -0.0680150     0.1840270
  C       -1.9382943     0.3311307     0.3553189
  C       -2.8302210    -0.7631530    -0.2519080
  C       -0.5859380     0.3423530    -0.2788660
  C        0.5697440     0.1186190     0.3690800
  C        1.8486100     0.1294800    -0.3471130
  H       -1.8508390     0.1975730     1.4263050
  H       -2.4196650     1.3090330     0.1828770
  H       -2.9395310    -0.6342920    -1.3325490
  H       -3.8284810    -0.7404210     0.1934590
  H       -2.3959700    -1.7495570    -0.0705440
  H       -0.5383110     0.5268673    -1.3551421
  H        0.6030990    -0.0751360     1.4392450
  H        1.7772940     0.3293450    -1.4382350
units angstrom
no_reorient  #important for SAPT in psi4, default
symmetry c1  #important for SAPT in psi4, default
}

set PROPERTIES_ORIGIN ["COM"]
properties('MP2/aug-cc-pvtz', properties = ['dipole'])
--------------------------------------------------------------------------

    Molecular point group: c1
  Charge       = 0
  Multiplicity = 1
  Basis Set: AUG-CC-PVTZ
    Blend: AUG-CC-PVTZ
  Basis Set: (AUG-CC-PVTZ AUX)
    Blend: AUG-CC-PVTZ-JKFIT

    Orbital Energies [Eh]
    ---------------------

    Doubly Occupied:

       1A    -20.548862     2A    -11.331467     3A    -11.274364
       4A    -11.250492     5A    -11.244602     6A    -11.235966
       7A     -1.372969     8A     -1.116779     9A     -1.031432
      10A     -0.905681    11A     -0.817990    12A     -0.781965
      13A     -0.679494    14A     -0.648880    15A     -0.616495
      16A     -0.606389    17A     -0.558044    18A     -0.545557
      19A     -0.526203    20A     -0.516653    21A     -0.510198
      22A     -0.423810    23A     -0.380432

  @DF-RHF Final Energy:  -268.93593501139367

   => Energetics <=

    Nuclear Repulsion Energy =            210.0650956503897078
    One-Electron Energy =                -780.1526105725715752
    Two-Electron Energy =                 301.1515799107882003
    Total Energy =                       -268.9359350113936671
  Basis Set: (AUG-CC-PVTZ AUX)
    Blend: AUG-CC-PVTZ-RI
    Molecular point group: c1

    Geometry (in Angstrom), charge = 0, multiplicity = 1:

       Center              X                  Y                   Z               Mass
    ------------   -----------------  -----------------  -----------------  -----------------
         O            2.936967875511    -0.067659627329     0.182366408421    15.994914619570
         C           -1.939179424489     0.331486072671     0.353658308421    12.000000000000
         C           -2.831106124489    -0.762797627329    -0.253568591579    12.000000000000
         C           -0.586823124489     0.342708372671    -0.280526591579    12.000000000000
         C            0.568858875511     0.118974372671     0.367419408421    12.000000000000
         C            1.847724875511     0.129835372671    -0.348773591579    12.000000000000
         H           -1.851724124489     0.197928372671     1.424644408421     1.007825032230
         H           -2.420550124489     1.309388372671     0.181216408421     1.007825032230
         H           -2.940416124489    -0.633936627329    -1.334209591579     1.007825032230
         H           -3.829366124489    -0.740065627329     0.191798408421     1.007825032230
         H           -2.396855124489    -1.749201627329    -0.072204591579     1.007825032230
         H           -0.539196124489     0.527222672671    -1.356802691579     1.007825032230
         H            0.602213875511    -0.074780627329     1.437584408421     1.007825032230
         H            1.776408875511     0.329700372671    -1.439895591579     1.007825032230

  Basis Set: AUG-CC-PVTZ
    Blend: AUG-CC-PVTZ
  Basis Set: (AUG-CC-PVTZ AUX)
    Blend: AUG-CC-PVTZ-JKFIT
	 Reference Energy          =    -268.9359350113936671 [Eh]
	 Singles Energy            =      -0.0000000000000000 [Eh]
	 Same-Spin Energy          =      -0.2694084665987114 [Eh]
	 Opposite-Spin Energy      =      -0.9138568445296078 [Eh]
	 Correlation Energy        =      -1.1832653111283191 [Eh]
	 Total Energy              =    -270.1192003225219764 [Eh]

	 ================> DF-SCS-MP2 Energies <==================
	-----------------------------------------------------------
	 SCS Same-Spin Scale       =       0.3333333333333333 [-]
	 SCS Opposite-Spin Scale   =       1.2000000000000000 [-]
	 SCS Same-Spin Energy      =      -0.0898028221995705 [Eh]
	 SCS Opposite-Spin Energy  =      -1.0966282134355294 [Eh]
	 SCS Correlation Energy    =      -1.1864310356351000 [Eh]
	 SCS Total Energy          =    -270.1223660470287768 [Eh]
	-----------------------------------------------------------

  Dipole Moment: [D]
     X:    -3.9520      Y:     0.4053      Z:    -0.7643     Total:     4.0456

*** Psi4 exiting successfully. Buy a developer a beer!
