                               Psi4 1.4a3.dev225

  ==> Input File <==

--------------------------------------------------------------------------
#psi4
#
memory 32 gb

molecule  {
0 1
  O        3.0568210     0.0670890     0.3064100
  C       -1.7873110     0.5014740    -0.3308760
  C       -2.7589810    -0.3710180     0.4711220
  C       -0.4385240    -0.1343210    -0.4437030
  C        0.7079740     0.3780980     0.0389610
  C        1.9942284    -0.3545845    -0.1113819
  H       -1.6911510     1.4872370     0.1370160
  H       -2.1942130     0.6629350    -1.3374030
  H       -2.8765390    -1.3546870     0.0071490
  H       -3.7457810     0.0968040     0.5260030
  H       -2.3920550    -0.5186010     1.4901810
  H       -0.4015900    -1.1050250    -0.9450900
  H        0.7410060     1.3377710     0.5508970
  H        1.9051690    -1.3201300    -0.6368870
units angstrom
no_reorient  #important for SAPT in psi4, default
symmetry c1  #important for SAPT in psi4, default
}

set PROPERTIES_ORIGIN ["COM"]
properties('MP2/aug-cc-pvtz', properties = ['dipole'])
--------------------------------------------------------------------------

    Molecular point group: c1
  Charge       = 0
  Multiplicity = 1
  Basis Set: AUG-CC-PVTZ
    Blend: AUG-CC-PVTZ
  Basis Set: (AUG-CC-PVTZ AUX)
    Blend: AUG-CC-PVTZ-JKFIT

    Orbital Energies [Eh]
    ---------------------

    Doubly Occupied:

       1A    -20.551073     2A    -11.332172     3A    -11.272211
       4A    -11.249555     5A    -11.245444     6A    -11.234813
       7A     -1.381441     8A     -1.113410     9A     -1.028407
      10A     -0.902947    11A     -0.817047    12A     -0.781488
      13A     -0.678744    14A     -0.649717    15A     -0.615525
      16A     -0.609276    17A     -0.557682    18A     -0.546400
      19A     -0.529682    20A     -0.516188    21A     -0.505740
      22A     -0.423348    23A     -0.379972

  @DF-RHF Final Energy:  -268.93683235466074

   => Energetics <=

    Nuclear Repulsion Energy =            209.7962433770942994
    One-Electron Energy =                -779.6215847774255963
    Two-Electron Energy =                 300.8885090456706166
    Total Energy =                       -268.9368323546607371
  Basis Set: (AUG-CC-PVTZ AUX)
    Blend: AUG-CC-PVTZ-RI
    Molecular point group: c1

    Geometry (in Angstrom), charge = 0, multiplicity = 1:

       Center              X                  Y                   Z               Mass
    ------------   -----------------  -----------------  -----------------  -----------------
         O            2.928769429661     0.060074943808     0.304260229886    15.994914619570
         C           -1.915362570339     0.494459943808    -0.333025770114    12.000000000000
         C           -2.887032570339    -0.378032056192     0.468972229886    12.000000000000
         C           -0.566575570339    -0.141335056192    -0.445852770114    12.000000000000
         C            0.579922429661     0.371083943808     0.036811229886    12.000000000000
         C            1.866176829661    -0.361598556192    -0.113531670114    12.000000000000
         H           -1.819202570339     1.480222943808     0.134866229886     1.007825032230
         H           -2.322264570339     0.655920943808    -1.339552770114     1.007825032230
         H           -3.004590570339    -1.361701056192     0.004999229886     1.007825032230
         H           -3.873832570339     0.089789943808     0.523853229886     1.007825032230
         H           -2.520106570339    -0.525615056192     1.488031229886     1.007825032230
         H           -0.529641570339    -1.112039056192    -0.947239770114     1.007825032230
         H            0.612954429661     1.330756943808     0.548747229886     1.007825032230
         H            1.777117429661    -1.327144056192    -0.639036770114     1.007825032230

  Basis Set: AUG-CC-PVTZ
    Blend: AUG-CC-PVTZ
  Basis Set: (AUG-CC-PVTZ AUX)
    Blend: AUG-CC-PVTZ-JKFIT
	 Reference Energy          =    -268.9368323546607371 [Eh]
	 Singles Energy            =      -0.0000000000000000 [Eh]
	 Same-Spin Energy          =      -0.2689276791977430 [Eh]
	 Opposite-Spin Energy      =      -0.9131893905503580 [Eh]
	 Correlation Energy        =      -1.1821170697481009 [Eh]
	 Total Energy              =    -270.1189494244088110 [Eh]

	 ================> DF-SCS-MP2 Energies <==================
	-----------------------------------------------------------
	 SCS Same-Spin Scale       =       0.3333333333333333 [-]
	 SCS Opposite-Spin Scale   =       1.2000000000000000 [-]
	 SCS Same-Spin Energy      =      -0.0896425597325810 [Eh]
	 SCS Opposite-Spin Energy  =      -1.0958272686604296 [Eh]
	 SCS Correlation Energy    =      -1.1854698283930105 [Eh]
	 SCS Total Energy          =    -270.1223021830537618 [Eh]
	-----------------------------------------------------------

  Dipole Moment: [D]
     X:    -3.7783      Y:    -0.5129      Z:    -0.8609     Total:     3.9090

*** Psi4 exiting successfully. Buy a developer a beer!
