                               Psi4 1.3.2 release

  ==> Input File <==

--------------------------------------------------------------------------
#psi4
#
memory 32 gb

molecule  {
0 1
  O        2.9378530    -0.0680150     0.1840270
  C       -1.9489963     0.3359840     0.3320477
  C       -2.8302210    -0.7631530    -0.2519080
  C       -0.5859380     0.3423530    -0.2788660
  C        0.5697440     0.1186190     0.3690800
  C        1.8486100     0.1294800    -0.3471130
  H       -1.8508390     0.1975730     1.4263050
  H       -2.4196650     1.3090330     0.1828770
  H       -2.9395310    -0.6342920    -1.3325490
  H       -3.8284810    -0.7404210     0.1934590
  H       -2.3959700    -1.7495570    -0.0705440
  H       -0.5573259     0.5283406    -1.3555619
  H        0.6030990    -0.0751360     1.4392450
  H        1.7772940     0.3293450    -1.4382350
units angstrom
no_reorient  #important for SAPT in psi4, default
symmetry c1  #important for SAPT in psi4, default
}

set PROPERTIES_ORIGIN ["COM"]
properties('MP2/aug-cc-pvtz', properties = ['dipole'])
--------------------------------------------------------------------------

    Molecular point group: c1
  Charge       = 0
  Multiplicity = 1
  Basis Set: AUG-CC-PVTZ
    Blend: AUG-CC-PVTZ
  Basis Set: (AUG-CC-PVTZ AUX)
    Blend: AUG-CC-PVTZ-JKFIT

    Orbital Energies [Eh]
    ---------------------

    Doubly Occupied:

       1A    -20.549177     2A    -11.331768     3A    -11.274522
       4A    -11.250556     5A    -11.245525     6A    -11.235482
       7A     -1.373243     8A     -1.116995     9A     -1.032980
      10A     -0.906178    11A     -0.817217    12A     -0.781499
      13A     -0.679688    14A     -0.649799    15A     -0.616575
      16A     -0.606581    17A     -0.558817    18A     -0.548850
      19A     -0.527124    20A     -0.517170    21A     -0.503173
      22A     -0.424187    23A     -0.381482

  @DF-RHF Final Energy:  -268.93572855627605

   => Energetics <=

    Nuclear Repulsion Energy =            210.0897741968625496
    One-Electron Energy =                -780.1938355205389826
    Two-Electron Energy =                 301.1683327674003863
    Total Energy =                       -268.9357285562760467
  Basis Set: (AUG-CC-PVTZ AUX)
    Blend: AUG-CC-PVTZ-RI
    Molecular point group: c1

    Geometry (in Angstrom), charge = 0, multiplicity = 1:

       Center              X                  Y                   Z               Mass
    ------------   -----------------  -----------------  -----------------  -----------------
         O            2.938723669653    -0.068370145939     0.185693624142    15.994914619570
         C           -1.948125630347     0.335628854061     0.333714324142    12.000000000000
         C           -2.829350330347    -0.763508145939    -0.250241375858    12.000000000000
         C           -0.585067330347     0.341997854061    -0.277199375858    12.000000000000
         C            0.570614669653     0.118263854061     0.370746624142    12.000000000000
         C            1.849480669653     0.129124854061    -0.345446375858    12.000000000000
         H           -1.849968330347     0.197217854061     1.427971624142     1.007825032230
         H           -2.418794330347     1.308677854061     0.184543624142     1.007825032230
         H           -2.938660330347    -0.634647145939    -1.330882375858     1.007825032230
         H           -3.827610330347    -0.740776145939     0.195125624142     1.007825032230
         H           -2.395099330347    -1.749912145939    -0.068877375858     1.007825032230
         H           -0.556455230347     0.527985454061    -1.353895275858     1.007825032230
         H            0.603969669653    -0.075491145939     1.440911624142     1.007825032230
         H            1.778164669653     0.328989854061    -1.436568375858     1.007825032230

  Basis Set: AUG-CC-PVTZ
    Blend: AUG-CC-PVTZ
  Basis Set: (AUG-CC-PVTZ AUX)
    Blend: AUG-CC-PVTZ-JKFIT
	 Reference Energy          =    -268.9357285562760467 [Eh]
	 Singles Energy            =      -0.0000000000000000 [Eh]
	 Same-Spin Energy          =      -0.2694377969550728 [Eh]
	 Opposite-Spin Energy      =      -0.9139575275188796 [Eh]
	 Correlation Energy        =      -1.1833953244739523 [Eh]
	 Total Energy              =    -270.1191238807500099 [Eh]

	 ================> DF-SCS-MP2 Energies <==================
	-----------------------------------------------------------
	 SCS Same-Spin Scale       =       0.3333333333333333 [-]
	 SCS Opposite-Spin Scale   =       1.2000000000000000 [-]
	 SCS Same-Spin Energy      =      -0.0898125989850243 [Eh]
	 SCS Opposite-Spin Energy  =      -1.0967490330226555 [Eh]
	 SCS Correlation Energy    =      -1.1865616320076797 [Eh]
	 SCS Total Energy          =    -270.1222901882837277 [Eh]
	-----------------------------------------------------------

  Dipole Moment: [D]
     X:    -3.9433      Y:     0.4078      Z:    -0.7766     Total:     4.0397

*** Psi4 exiting successfully. Buy a developer a beer!
