                               Psi4 1.3.2 release

  ==> Input File <==

--------------------------------------------------------------------------
#psi4
#
memory 32 gb

molecule  {
0 1
  O        2.9378530    -0.0680150     0.1840270
  C       -1.9098820     0.3172648     0.4123119
  C       -2.8302210    -0.7631530    -0.2519080
  C       -0.5859380     0.3423530    -0.2788660
  C        0.5327476     0.1100840     0.4283012
  C        1.8486100     0.1294800    -0.3471130
  H       -1.8508390     0.1975730     1.4263050
  H       -2.4196650     1.3090330     0.1828770
  H       -2.9395310    -0.6342920    -1.3325490
  H       -3.8284810    -0.7404210     0.1934590
  H       -2.3959700    -1.7495570    -0.0705440
  H       -0.5478170     0.5276110    -1.3553930
  H        0.6030990    -0.0751360     1.4392450
  H        1.7772940     0.3293450    -1.4382350
units angstrom
no_reorient  #important for SAPT in psi4, default
symmetry c1  #important for SAPT in psi4, default
}

set PROPERTIES_ORIGIN ["COM"]
properties('MP2/aug-cc-pvtz', properties = ['dipole'])
--------------------------------------------------------------------------

    Molecular point group: c1
  Charge       = 0
  Multiplicity = 1
  Basis Set: AUG-CC-PVTZ
    Blend: AUG-CC-PVTZ
  Basis Set: (AUG-CC-PVTZ AUX)
    Blend: AUG-CC-PVTZ-JKFIT

    Orbital Energies [Eh]
    ---------------------

    Doubly Occupied:

       1A    -20.549725     2A    -11.334806     3A    -11.271504
       4A    -11.246638     5A    -11.243294     6A    -11.235203
       7A     -1.372756     8A     -1.114346     9A     -1.021006
      10A     -0.898173    11A     -0.813855    12A     -0.793266
      13A     -0.677364    14A     -0.646316    15A     -0.620418
      16A     -0.601578    17A     -0.572137    18A     -0.536484
      19A     -0.528169    20A     -0.518338    21A     -0.506140
      22A     -0.417672    23A     -0.377146

  @DF-RHF Final Energy:  -268.92356644067252

   => Energetics <=

    Nuclear Repulsion Energy =            209.5904376854996372
    One-Electron Energy =                -779.2353433070950359
    Two-Electron Energy =                 300.7213391809228824
    Total Energy =                       -268.9235664406725164
  Basis Set: (AUG-CC-PVTZ AUX)
    Blend: AUG-CC-PVTZ-RI
    Molecular point group: c1

    Geometry (in Angstrom), charge = 0, multiplicity = 1:

       Center              X                  Y                   Z               Mass
    ------------   -----------------  -----------------  -----------------  -----------------
         O            2.938307310598    -0.064470605135     0.165778747714    15.994914619570
         C           -1.909427689402     0.320809194865     0.394063647714    12.000000000000
         C           -2.829766689402    -0.759608605135    -0.270156252286    12.000000000000
         C           -0.585483689402     0.345897394865    -0.297114252286    12.000000000000
         C            0.533201910598     0.113628394865     0.410052947714    12.000000000000
         C            1.849064310598     0.133024394865    -0.365361252286    12.000000000000
         H           -1.850384689402     0.201117394865     1.408056747714     1.007825032230
         H           -2.419210689402     1.312577394865     0.164628747714     1.007825032230
         H           -2.939076689402    -0.630747605135    -1.350797252286     1.007825032230
         H           -3.828026689402    -0.736876605135     0.175210747714     1.007825032230
         H           -2.395515689402    -1.746012605135    -0.088792252286     1.007825032230
         H           -0.547362689402     0.531155394865    -1.373641252286     1.007825032230
         H            0.603553310598    -0.071591605135     1.420996747714     1.007825032230
         H            1.777748310598     0.332889394865    -1.456483252286     1.007825032230

  Basis Set: AUG-CC-PVTZ
    Blend: AUG-CC-PVTZ
  Basis Set: (AUG-CC-PVTZ AUX)
    Blend: AUG-CC-PVTZ-JKFIT
	 Reference Energy          =    -268.9235664406725164 [Eh]
	 Singles Energy            =      -0.0000000000000000 [Eh]
	 Same-Spin Energy          =      -0.2690446046186588 [Eh]
	 Opposite-Spin Energy      =      -0.9139035856945221 [Eh]
	 Correlation Energy        =      -1.1829481903131809 [Eh]
	 Total Energy              =    -270.1065146309857141 [Eh]

	 ================> DF-SCS-MP2 Energies <==================
	-----------------------------------------------------------
	 SCS Same-Spin Scale       =       0.3333333333333333 [-]
	 SCS Opposite-Spin Scale   =       1.2000000000000000 [-]
	 SCS Same-Spin Energy      =      -0.0896815348728862 [Eh]
	 SCS Opposite-Spin Energy  =      -1.0966843028334265 [Eh]
	 SCS Correlation Energy    =      -1.1863658377063129 [Eh]
	 SCS Total Energy          =    -270.1099322783788352 [Eh]
	-----------------------------------------------------------

  Dipole Moment: [D]
     X:    -3.7848      Y:     0.3957      Z:    -0.7647     Total:     3.8815

*** Psi4 exiting successfully. Buy a developer a beer!
