                               Psi4 1.4a3.dev225

  ==> Input File <==

--------------------------------------------------------------------------
#psi4
#
memory 32 gb

molecule  {
0 1
  O        3.0568210     0.0670890     0.3064100
  C       -1.7873110     0.5014740    -0.3308760
  C       -2.7589810    -0.3710180     0.4711220
  C       -0.4204847    -0.1428244    -0.4452120
  C        0.7079740     0.3780980     0.0389610
  C        1.9769390    -0.3447360    -0.1093610
  H       -1.6911510     1.4872370     0.1370160
  H       -2.1942130     0.6629350    -1.3374030
  H       -2.8765390    -1.3546870     0.0071490
  H       -3.7457810     0.0968040     0.5260030
  H       -2.3920550    -0.5186010     1.4901810
  H       -0.4015900    -1.1050250    -0.9450900
  H        0.7410060     1.3377710     0.5508970
  H        1.9051690    -1.3201300    -0.6368870
units angstrom
no_reorient  #important for SAPT in psi4, default
symmetry c1  #important for SAPT in psi4, default
}

set PROPERTIES_ORIGIN ["COM"]
properties('MP2/aug-cc-pvtz', properties = ['dipole'])
--------------------------------------------------------------------------

    Molecular point group: c1
  Charge       = 0
  Multiplicity = 1
  Basis Set: AUG-CC-PVTZ
    Blend: AUG-CC-PVTZ
  Basis Set: (AUG-CC-PVTZ AUX)
    Blend: AUG-CC-PVTZ-JKFIT

    Orbital Energies [Eh]
    ---------------------

    Doubly Occupied:

       1A    -20.549295     2A    -11.331778     3A    -11.272886
       4A    -11.251312     5A    -11.244543     6A    -11.235236
       7A     -1.373028     8A     -1.115320     9A     -1.032031
      10A     -0.903299    11A     -0.817607    12A     -0.782984
      13A     -0.679758    14A     -0.647991    15A     -0.615930
      16A     -0.605560    17A     -0.561552    18A     -0.545129
      19A     -0.526286    20A     -0.513629    21A     -0.506708
      22A     -0.423690    23A     -0.383766

  @DF-RHF Final Energy:  -268.93615112980922

   => Energetics <=

    Nuclear Repulsion Energy =            209.8762577908568971
    One-Electron Energy =                -779.7861802801719477
    Two-Electron Energy =                 300.9737713595058040
    Total Energy =                       -268.9361511298092182
  Basis Set: (AUG-CC-PVTZ AUX)
    Blend: AUG-CC-PVTZ-RI
    Molecular point group: c1

    Geometry (in Angstrom), charge = 0, multiplicity = 1:

       Center              X                  Y                   Z               Mass
    ------------   -----------------  -----------------  -----------------  -----------------
         O            2.928662374390     0.059882918145     0.304187151352    15.994914619570
         C           -1.915469625610     0.494267918145    -0.333098848648    12.000000000000
         C           -2.887139625610    -0.378224081855     0.468899151352    12.000000000000
         C           -0.548643325610    -0.150030481855    -0.447434848648    12.000000000000
         C            0.579815374390     0.370891918145     0.036738151352    12.000000000000
         C            1.848780374390    -0.351942081855    -0.111583848648    12.000000000000
         H           -1.819309625610     1.480030918145     0.134793151352     1.007825032230
         H           -2.322371625610     0.655728918145    -1.339625848648     1.007825032230
         H           -3.004697625610    -1.361893081855     0.004926151352     1.007825032230
         H           -3.873939625610     0.089597918145     0.523780151352     1.007825032230
         H           -2.520213625610    -0.525807081855     1.487958151352     1.007825032230
         H           -0.529748625610    -1.112231081855    -0.947312848648     1.007825032230
         H            0.612847374390     1.330564918145     0.548674151352     1.007825032230
         H            1.777010374390    -1.327336081855    -0.639109848648     1.007825032230

  Basis Set: AUG-CC-PVTZ
    Blend: AUG-CC-PVTZ
  Basis Set: (AUG-CC-PVTZ AUX)
    Blend: AUG-CC-PVTZ-JKFIT
	 Reference Energy          =    -268.9361511298092182 [Eh]
	 Singles Energy            =      -0.0000000000000000 [Eh]
	 Same-Spin Energy          =      -0.2690918578405769 [Eh]
	 Opposite-Spin Energy      =      -0.9135522975432622 [Eh]
	 Correlation Energy        =      -1.1826441553838389 [Eh]
	 Total Energy              =    -270.1187952851930731 [Eh]

	 ================> DF-SCS-MP2 Energies <==================
	-----------------------------------------------------------
	 SCS Same-Spin Scale       =       0.3333333333333333 [-]
	 SCS Opposite-Spin Scale   =       1.2000000000000000 [-]
	 SCS Same-Spin Energy      =      -0.0896972859468590 [Eh]
	 SCS Opposite-Spin Energy  =      -1.0962627570519146 [Eh]
	 SCS Correlation Energy    =      -1.1859600429987736 [Eh]
	 SCS Total Energy          =    -270.1221111728079904 [Eh]
	-----------------------------------------------------------

  Dipole Moment: [D]
     X:    -3.8789      Y:    -0.4900      Z:    -0.8648     Total:     4.0042

*** Psi4 exiting successfully. Buy a developer a beer!
