                               Psi4 1.3.2 release

  ==> Input File <==

--------------------------------------------------------------------------
#psi4
#
memory 32 gb

molecule  {
0 1
  O        2.9426593    -0.0667422     0.1745356
  C       -1.9436970     0.3335570     0.3437070
  C       -2.8302210    -0.7631530    -0.2519080
  C       -0.5859380     0.3423530    -0.2788660
  C        0.5636517     0.1211700     0.3581257
  C        1.8486100     0.1294800    -0.3471130
  H       -1.8508390     0.1975730     1.4263050
  H       -2.4196650     1.3090330     0.1828770
  H       -2.9395310    -0.6342920    -1.3325490
  H       -3.8284810    -0.7404210     0.1934590
  H       -2.3959700    -1.7495570    -0.0705440
  H       -0.5478170     0.5276110    -1.3553930
  H        0.6030990    -0.0751360     1.4392450
  H        1.7772940     0.3293450    -1.4382350
units angstrom
no_reorient  #important for SAPT in psi4, default
symmetry c1  #important for SAPT in psi4, default
}

set PROPERTIES_ORIGIN ["COM"]
properties('MP2/aug-cc-pvtz', properties = ['dipole'])
--------------------------------------------------------------------------

    Molecular point group: c1
  Charge       = 0
  Multiplicity = 1
  Basis Set: AUG-CC-PVTZ
    Blend: AUG-CC-PVTZ
  Basis Set: (AUG-CC-PVTZ AUX)
    Blend: AUG-CC-PVTZ-JKFIT

    Orbital Energies [Eh]
    ---------------------

    Doubly Occupied:

       1A    -20.549923     2A    -11.332002     3A    -11.272914
       4A    -11.250610     5A    -11.245009     6A    -11.235738
       7A     -1.373485     8A     -1.118648     9A     -1.033170
      10A     -0.906184    11A     -0.819015    12A     -0.779863
      13A     -0.680113    14A     -0.649854    15A     -0.616149
      16A     -0.606988    17A     -0.556605    18A     -0.547515
      19A     -0.527012    20A     -0.516725    21A     -0.506744
      22A     -0.423964    23A     -0.383721

  @DF-RHF Final Energy:  -268.93606164684383

   => Energetics <=

    Nuclear Repulsion Energy =            210.1464910359827627
    One-Electron Energy =                -780.3012048171308379
    Two-Electron Energy =                 301.2186521343042500
    Total Energy =                       -268.9360616468438252
  Basis Set: (AUG-CC-PVTZ AUX)
    Blend: AUG-CC-PVTZ-RI
    Molecular point group: c1

    Geometry (in Angstrom), charge = 0, multiplicity = 1:

       Center              X                  Y                   Z               Mass
    ------------   -----------------  -----------------  -----------------  -----------------
         O            2.942614600388    -0.067348495622     0.177905628188    15.994914619570
         C           -1.943741699612     0.332950704378     0.347077028188    12.000000000000
         C           -2.830265699612    -0.763759295622    -0.248537971812    12.000000000000
         C           -0.585982699612     0.341746704378    -0.275495971812    12.000000000000
         C            0.563607000388     0.120563704378     0.361495728188    12.000000000000
         C            1.848565300388     0.128873704378    -0.343742971812    12.000000000000
         H           -1.850883699612     0.196966704378     1.429675028188     1.007825032230
         H           -2.419709699612     1.308426704378     0.186247028188     1.007825032230
         H           -2.939575699612    -0.634898295622    -1.329178971812     1.007825032230
         H           -3.828525699612    -0.741027295622     0.196829028188     1.007825032230
         H           -2.396014699612    -1.750163295622    -0.067173971812     1.007825032230
         H           -0.547861699612     0.527004704378    -1.352022971812     1.007825032230
         H            0.603054300388    -0.075742295622     1.442615028188     1.007825032230
         H            1.777249300388     0.328738704378    -1.434864971812     1.007825032230

  Basis Set: AUG-CC-PVTZ
    Blend: AUG-CC-PVTZ
  Basis Set: (AUG-CC-PVTZ AUX)
    Blend: AUG-CC-PVTZ-JKFIT
	 Reference Energy          =    -268.9360616468438252 [Eh]
	 Singles Energy            =      -0.0000000000000000 [Eh]
	 Same-Spin Energy          =      -0.2693562834158969 [Eh]
	 Opposite-Spin Energy      =      -0.9137412238527305 [Eh]
	 Correlation Energy        =      -1.1830975072686274 [Eh]
	 Total Energy              =    -270.1191591541124808 [Eh]

	 ================> DF-SCS-MP2 Energies <==================
	-----------------------------------------------------------
	 SCS Same-Spin Scale       =       0.3333333333333333 [-]
	 SCS Opposite-Spin Scale   =       1.2000000000000000 [-]
	 SCS Same-Spin Energy      =      -0.0897854278052990 [Eh]
	 SCS Opposite-Spin Energy  =      -1.0964894686232765 [Eh]
	 SCS Correlation Energy    =      -1.1862748964285754 [Eh]
	 SCS Total Energy          =    -270.1223365432724108 [Eh]
	-----------------------------------------------------------

  Dipole Moment: [D]
     X:    -3.9543      Y:     0.4036      Z:    -0.7536     Total:     4.0456

*** Psi4 exiting successfully. Buy a developer a beer!
