                               Psi4 1.4a3.dev225

  ==> Input File <==

--------------------------------------------------------------------------
#psi4
#
memory 32 gb

molecule  {
0 1
  O        3.0568210     0.0670890     0.3064100
  C       -1.7873110     0.5014740    -0.3308760
  C       -2.7589810    -0.3710180     0.4711220
  C       -0.4565633    -0.1258176    -0.4421940
  C        0.7079740     0.3780980     0.0389610
  C        1.9769390    -0.3447360    -0.1093610
  H       -1.6911510     1.4872370     0.1370160
  H       -2.1942130     0.6629350    -1.3374030
  H       -2.8765390    -1.3546870     0.0071490
  H       -3.7457810     0.0968040     0.5260030
  H       -2.3920550    -0.5186010     1.4901810
  H       -0.4015900    -1.1050250    -0.9450900
  H        0.7410060     1.3377710     0.5508970
  H        1.9051690    -1.3201300    -0.6368870
units angstrom
no_reorient  #important for SAPT in psi4, default
symmetry c1  #important for SAPT in psi4, default
}

set PROPERTIES_ORIGIN ["COM"]
properties('MP2/aug-cc-pvtz', properties = ['dipole'])
--------------------------------------------------------------------------

    Molecular point group: c1
  Charge       = 0
  Multiplicity = 1
  Basis Set: AUG-CC-PVTZ
    Blend: AUG-CC-PVTZ
  Basis Set: (AUG-CC-PVTZ AUX)
    Blend: AUG-CC-PVTZ-JKFIT

    Orbital Energies [Eh]
    ---------------------

    Doubly Occupied:

       1A    -20.549045     2A    -11.332146     3A    -11.276852
       4A    -11.250383     5A    -11.246629     6A    -11.236617
       7A     -1.372748     8A     -1.117191     9A     -1.030924
      10A     -0.908086    11A     -0.817311    12A     -0.780356
      13A     -0.678695    14A     -0.650027    15A     -0.616740
      16A     -0.607237    17A     -0.555566    18A     -0.548480
      19A     -0.526683    20A     -0.519654    21A     -0.506739
      22A     -0.424275    23A     -0.377532

  @DF-RHF Final Energy:  -268.93460054295332

   => Energetics <=

    Nuclear Repulsion Energy =            209.8991190591034979
    One-Electron Energy =                -779.8076045106247420
    Two-Electron Energy =                 300.9738849085679817
    Total Energy =                       -268.9346005429533193
  Basis Set: (AUG-CC-PVTZ AUX)
    Blend: AUG-CC-PVTZ-RI
    Molecular point group: c1

    Geometry (in Angstrom), charge = 0, multiplicity = 1:

       Center              X                  Y                   Z               Mass
    ------------   -----------------  -----------------  -----------------  -----------------
         O            2.933812933512     0.057455037660     0.303756303496    15.994914619570
         C           -1.910319066488     0.491840037660    -0.333529696504    12.000000000000
         C           -2.881989066488    -0.380651962340     0.468468303496    12.000000000000
         C           -0.579571366488    -0.135451562340    -0.444847696504    12.000000000000
         C            0.584965933512     0.368464037660     0.036307303496    12.000000000000
         C            1.853930933512    -0.354369962340    -0.112014696504    12.000000000000
         H           -1.814159066488     1.477603037660     0.134362303496     1.007825032230
         H           -2.317221066488     0.653301037660    -1.340056696504     1.007825032230
         H           -2.999547066488    -1.364320962340     0.004495303496     1.007825032230
         H           -3.868789066488     0.087170037660     0.523349303496     1.007825032230
         H           -2.515063066488    -0.528234962340     1.487527303496     1.007825032230
         H           -0.524598066488    -1.114658962340    -0.947743696504     1.007825032230
         H            0.617997933512     1.328137037660     0.548243303496     1.007825032230
         H            1.782160933512    -1.329763962340    -0.639540696504     1.007825032230

  Basis Set: AUG-CC-PVTZ
    Blend: AUG-CC-PVTZ
  Basis Set: (AUG-CC-PVTZ AUX)
    Blend: AUG-CC-PVTZ-JKFIT
	 Reference Energy          =    -268.9346005429533193 [Eh]
	 Singles Energy            =      -0.0000000000000000 [Eh]
	 Same-Spin Energy          =      -0.2697336921583445 [Eh]
	 Opposite-Spin Energy      =      -0.9144378194196301 [Eh]
	 Correlation Energy        =      -1.1841715115779747 [Eh]
	 Total Energy              =    -270.1187720545312914 [Eh]

	 ================> DF-SCS-MP2 Energies <==================
	-----------------------------------------------------------
	 SCS Same-Spin Scale       =       0.3333333333333333 [-]
	 SCS Opposite-Spin Scale   =       1.2000000000000000 [-]
	 SCS Same-Spin Energy      =      -0.0899112307194482 [Eh]
	 SCS Opposite-Spin Energy  =      -1.0973253833035561 [Eh]
	 SCS Correlation Energy    =      -1.1872366140230042 [Eh]
	 SCS Total Energy          =    -270.1218371569763121 [Eh]
	-----------------------------------------------------------

  Dipole Moment: [D]
     X:    -3.9552      Y:    -0.4774      Z:    -0.8667     Total:     4.0771

*** Psi4 exiting successfully. Buy a developer a beer!
