                               Psi4 1.4a3.dev225

  ==> Input File <==

--------------------------------------------------------------------------
#psi4
#
memory 32 gb

molecule  {
0 1
  O        3.0568210     0.0670890     0.3064100
  C       -1.7873110     0.5014740    -0.3308760
  C       -2.7589810    -0.3710180     0.4711220
  C       -0.4385240    -0.1343210    -0.4437030
  C        0.7079740     0.3780980     0.0389610
  C        1.9769390    -0.3447360    -0.1093610
  H       -1.6911510     1.4872370     0.1370160
  H       -2.1942130     0.6629350    -1.3374030
  H       -2.8765390    -1.3546870     0.0071490
  H       -3.7457810     0.0968040     0.5260030
  H       -2.3920550    -0.5186010     1.4901810
  H       -0.4032793    -1.0606264    -0.9221573
  H        0.7410060     1.3377710     0.5508970
  H        1.9051690    -1.3201300    -0.6368870
units angstrom
no_reorient  #important for SAPT in psi4, default
symmetry c1  #important for SAPT in psi4, default
}

set PROPERTIES_ORIGIN ["COM"]
properties('MP2/aug-cc-pvtz', properties = ['dipole'])
--------------------------------------------------------------------------

    Molecular point group: c1
  Charge       = 0
  Multiplicity = 1
  Basis Set: AUG-CC-PVTZ
    Blend: AUG-CC-PVTZ
  Basis Set: (AUG-CC-PVTZ AUX)
    Blend: AUG-CC-PVTZ-JKFIT

    Orbital Energies [Eh]
    ---------------------

    Doubly Occupied:

       1A    -20.549208     2A    -11.331992     3A    -11.268990
       4A    -11.250299     5A    -11.245242     6A    -11.235860
       7A     -1.372905     8A     -1.117531     9A     -1.031579
      10A     -0.906517    11A     -0.819192    12A     -0.786823
      13A     -0.681918    14A     -0.648887    15A     -0.616504
      16A     -0.606798    17A     -0.561776    18A     -0.546551
      19A     -0.526393    20A     -0.516996    21A     -0.508012
      22A     -0.423973    23A     -0.380425

  @DF-RHF Final Energy:  -268.93512882894163

   => Energetics <=

    Nuclear Repulsion Energy =            210.1133137313688906
    One-Electron Energy =                -780.2281450391651560
    Two-Electron Energy =                 301.1797024788546651
    Total Energy =                       -268.9351288289416289
  Basis Set: (AUG-CC-PVTZ AUX)
    Blend: AUG-CC-PVTZ-RI
    Molecular point group: c1

    Geometry (in Angstrom), charge = 0, multiplicity = 1:

       Center              X                  Y                   Z               Mass
    ------------   -----------------  -----------------  -----------------  -----------------
         O            2.931257908165     0.058136651667     0.303696771055    15.994914619570
         C           -1.912874091835     0.492521651667    -0.333589228945    12.000000000000
         C           -2.884544091835    -0.379970348333     0.468408771055    12.000000000000
         C           -0.564087091835    -0.143273348333    -0.446416228945    12.000000000000
         C            0.582410908165     0.369145651667     0.036247771055    12.000000000000
         C            1.851375908165    -0.353688348333    -0.112074228945    12.000000000000
         H           -1.816714091835     1.478284651667     0.134302771055     1.007825032230
         H           -2.319776091835     0.653982651667    -1.340116228945     1.007825032230
         H           -3.002102091835    -1.363639348333     0.004435771055     1.007825032230
         H           -3.871344091835     0.087851651667     0.523289771055     1.007825032230
         H           -2.517618091835    -0.527553348333     1.487467771055     1.007825032230
         H           -0.528842391835    -1.069578748333    -0.924870528945     1.007825032230
         H            0.615442908165     1.328818651667     0.548183771055     1.007825032230
         H            1.779605908165    -1.329082348333    -0.639600228945     1.007825032230

  Basis Set: AUG-CC-PVTZ
    Blend: AUG-CC-PVTZ
  Basis Set: (AUG-CC-PVTZ AUX)
    Blend: AUG-CC-PVTZ-JKFIT
	 Reference Energy          =    -268.9351288289416289 [Eh]
	 Singles Energy            =      -0.0000000000000000 [Eh]
	 Same-Spin Energy          =      -0.2692797655007583 [Eh]
	 Opposite-Spin Energy      =      -0.9136552418796335 [Eh]
	 Correlation Energy        =      -1.1829350073803919 [Eh]
	 Total Energy              =    -270.1180638363219941 [Eh]

	 ================> DF-SCS-MP2 Energies <==================
	-----------------------------------------------------------
	 SCS Same-Spin Scale       =       0.3333333333333333 [-]
	 SCS Opposite-Spin Scale   =       1.2000000000000000 [-]
	 SCS Same-Spin Energy      =      -0.0897599218335861 [Eh]
	 SCS Opposite-Spin Energy  =      -1.0963862902555601 [Eh]
	 SCS Correlation Energy    =      -1.1861462120891462 [Eh]
	 SCS Total Energy          =    -270.1212750410307990 [Eh]
	-----------------------------------------------------------

  Dipole Moment: [D]
     X:    -3.9099      Y:    -0.5012      Z:    -0.8743     Total:     4.0377

*** Psi4 exiting successfully. Buy a developer a beer!
