                               Psi4 1.3.2 release

  ==> Input File <==

--------------------------------------------------------------------------
#psi4
#
memory 32 gb

molecule  {
0 1
  O        2.9378530    -0.0680150     0.1840270
  C       -1.9436970     0.3335570     0.3437070
  C       -2.8302210    -0.7631530    -0.2519080
  C       -0.6083455     0.3491106    -0.3254556
  C        0.5697440     0.1186190     0.3690800
  C        1.8486100     0.1294800    -0.3471130
  H       -1.8889289     0.1991083     1.4290902
  H       -2.4196650     1.3090330     0.1828770
  H       -2.9395310    -0.6342920    -1.3325490
  H       -3.8284810    -0.7404210     0.1934590
  H       -2.3959700    -1.7495570    -0.0705440
  H       -0.5478170     0.5276110    -1.3553930
  H        0.6030990    -0.0751360     1.4392450
  H        1.7772940     0.3293450    -1.4382350
units angstrom
no_reorient  #important for SAPT in psi4, default
symmetry c1  #important for SAPT in psi4, default
}

set PROPERTIES_ORIGIN ["COM"]
properties('MP2/aug-cc-pvtz', properties = ['dipole'])
--------------------------------------------------------------------------

    Molecular point group: c1
  Charge       = 0
  Multiplicity = 1
  Basis Set: AUG-CC-PVTZ
    Blend: AUG-CC-PVTZ
  Basis Set: (AUG-CC-PVTZ AUX)
    Blend: AUG-CC-PVTZ-JKFIT

    Orbital Energies [Eh]
    ---------------------

    Doubly Occupied:

       1A    -20.546880     2A    -11.330005     3A    -11.278840
       4A    -11.251309     5A    -11.250494     6A    -11.235502
       7A     -1.371360     8A     -1.113166     9A     -1.028528
      10A     -0.906372    11A     -0.817954    12A     -0.786336
      13A     -0.678640    14A     -0.648237    15A     -0.616529
      16A     -0.606210    17A     -0.564993    18A     -0.544543
      19A     -0.524759    20A     -0.520657    21A     -0.507685
      22A     -0.421946    23A     -0.371992

  @DF-RHF Final Energy:  -268.93044593334730

   => Energetics <=

    Nuclear Repulsion Energy =            209.6255679698585936
    One-Electron Energy =                -779.2661535892027587
    Two-Electron Energy =                 300.7101396859968645
    Total Energy =                       -268.9304459333473005
  Basis Set: (AUG-CC-PVTZ AUX)
    Blend: AUG-CC-PVTZ-RI
    Molecular point group: c1

    Geometry (in Angstrom), charge = 0, multiplicity = 1:

       Center              X                  Y                   Z               Mass
    ------------   -----------------  -----------------  -----------------  -----------------
         O            2.941508703776    -0.068998039884     0.190644833854    15.994914619570
         C           -1.940041296224     0.332573960116     0.350324833854    12.000000000000
         C           -2.826565296224    -0.764136039884    -0.245290166146    12.000000000000
         C           -0.604689796224     0.348127560116    -0.318837766146    12.000000000000
         C            0.573399703776     0.117635960116     0.375697833854    12.000000000000
         C            1.852265703776     0.128496960116    -0.340495166146    12.000000000000
         H           -1.885273196224     0.198125260116     1.435708033854     1.007825032230
         H           -2.416009296224     1.308049960116     0.189494833854     1.007825032230
         H           -2.935875296224    -0.635275039884    -1.325931166146     1.007825032230
         H           -3.824825296224    -0.741404039884     0.200076833854     1.007825032230
         H           -2.392314296224    -1.750540039884    -0.063926166146     1.007825032230
         H           -0.544161296224     0.526627960116    -1.348775166146     1.007825032230
         H            0.606754703776    -0.076119039884     1.445862833854     1.007825032230
         H            1.780949703776     0.328361960116    -1.431617166146     1.007825032230

  Basis Set: AUG-CC-PVTZ
    Blend: AUG-CC-PVTZ
  Basis Set: (AUG-CC-PVTZ AUX)
    Blend: AUG-CC-PVTZ-JKFIT
	 Reference Energy          =    -268.9304459333473005 [Eh]
	 Singles Energy            =      -0.0000000000000000 [Eh]
	 Same-Spin Energy          =      -0.2698129013881209 [Eh]
	 Opposite-Spin Energy      =      -0.9148626124058956 [Eh]
	 Correlation Energy        =      -1.1846755137940166 [Eh]
	 Total Energy              =    -270.1151214471412914 [Eh]

	 ================> DF-SCS-MP2 Energies <==================
	-----------------------------------------------------------
	 SCS Same-Spin Scale       =       0.3333333333333333 [-]
	 SCS Opposite-Spin Scale   =       1.2000000000000000 [-]
	 SCS Same-Spin Energy      =      -0.0899376337960403 [Eh]
	 SCS Opposite-Spin Energy  =      -1.0978351348870747 [Eh]
	 SCS Correlation Energy    =      -1.1877727686831150 [Eh]
	 SCS Total Energy          =    -270.1182187020303900 [Eh]
	-----------------------------------------------------------

  Dipole Moment: [D]
     X:    -3.9947      Y:     0.4226      Z:    -0.7738     Total:     4.0908

*** Psi4 exiting successfully. Buy a developer a beer!
