                               Psi4 1.4a3.dev225

  ==> Input File <==

--------------------------------------------------------------------------
#psi4
#
memory 32 gb

molecule  {
0 1
  O        3.0568210     0.0670890     0.3064100
  C       -1.7873110     0.5014740    -0.3308760
  C       -2.7589810    -0.3710180     0.4711220
  C       -0.4385240    -0.1343210    -0.4437030
  C        0.7079740     0.3780980     0.0389610
  C        1.9769390    -0.3447360    -0.1093610
  H       -1.6911510     1.4872370     0.1370160
  H       -2.1942130     0.6629350    -1.3374030
  H       -2.8765390    -1.3546870     0.0071490
  H       -3.7457810     0.0968040     0.5260030
  H       -2.3920550    -0.5186010     1.4901810
  H       -0.4015900    -1.1050250    -0.9450900
  H        0.7416131     1.3554091     0.5603060
  H        1.9051690    -1.3201300    -0.6368870
units angstrom
no_reorient  #important for SAPT in psi4, default
symmetry c1  #important for SAPT in psi4, default
}

set PROPERTIES_ORIGIN ["COM"]
properties('MP2/aug-cc-pvtz', properties = ['dipole'])
--------------------------------------------------------------------------

    Molecular point group: c1
  Charge       = 0
  Multiplicity = 1
  Basis Set: AUG-CC-PVTZ
    Blend: AUG-CC-PVTZ
  Basis Set: (AUG-CC-PVTZ AUX)
    Blend: AUG-CC-PVTZ-JKFIT

    Orbital Energies [Eh]
    ---------------------

    Doubly Occupied:

       1A    -20.549267     2A    -11.332182     3A    -11.274950
       4A    -11.250837     5A    -11.247790     6A    -11.235878
       7A     -1.372953     8A     -1.115748     9A     -1.031226
      10A     -0.905578    11A     -0.817586    12A     -0.779228
      13A     -0.679210    14A     -0.648523    15A     -0.615546
      16A     -0.605988    17A     -0.556476    18A     -0.546668
      19A     -0.526479    20A     -0.516601    21A     -0.506904
      22A     -0.424114    23A     -0.380734

  @DF-RHF Final Energy:  -268.93524438702445

   => Energetics <=

    Nuclear Repulsion Energy =            209.7958411892576862
    One-Electron Energy =                -779.6212374839569748
    Two-Electron Energy =                 300.8901519076748627
    Total Energy =                       -268.9352443870244542
  Basis Set: (AUG-CC-PVTZ AUX)
    Blend: AUG-CC-PVTZ-RI
    Molecular point group: c1

    Geometry (in Angstrom), charge = 0, multiplicity = 1:

       Center              X                  Y                   Z               Mass
    ------------   -----------------  -----------------  -----------------  -----------------
         O            2.931230375000     0.058457502240     0.303858916264    15.994914619570
         C           -1.912901625000     0.492842502240    -0.333427083736    12.000000000000
         C           -2.884571625000    -0.379649497760     0.468570916264    12.000000000000
         C           -0.564114625000    -0.142952497760    -0.446254083736    12.000000000000
         C            0.582383375000     0.369466502240     0.036409916264    12.000000000000
         C            1.851348375000    -0.353367497760    -0.111912083736    12.000000000000
         H           -1.816741625000     1.478605502240     0.134464916264     1.007825032230
         H           -2.319803625000     0.654303502240    -1.339954083736     1.007825032230
         H           -3.002129625000    -1.363318497760     0.004597916264     1.007825032230
         H           -3.871371625000     0.088172502240     0.523451916264     1.007825032230
         H           -2.517645625000    -0.527232497760     1.487629916264     1.007825032230
         H           -0.527180625000    -1.113656497760    -0.947641083736     1.007825032230
         H            0.616022475000     1.346777602240     0.557754916264     1.007825032230
         H            1.779578375000    -1.328761497760    -0.639438083736     1.007825032230

  Basis Set: AUG-CC-PVTZ
    Blend: AUG-CC-PVTZ
  Basis Set: (AUG-CC-PVTZ AUX)
    Blend: AUG-CC-PVTZ-JKFIT
	 Reference Energy          =    -268.9352443870244542 [Eh]
	 Singles Energy            =      -0.0000000000000000 [Eh]
	 Same-Spin Energy          =      -0.2694388474011622 [Eh]
	 Opposite-Spin Energy      =      -0.9140981436492278 [Eh]
	 Correlation Energy        =      -1.1835369910503899 [Eh]
	 Total Energy              =    -270.1187813780748570 [Eh]

	 ================> DF-SCS-MP2 Energies <==================
	-----------------------------------------------------------
	 SCS Same-Spin Scale       =       0.3333333333333333 [-]
	 SCS Opposite-Spin Scale   =       1.2000000000000000 [-]
	 SCS Same-Spin Energy      =      -0.0898129491337207 [Eh]
	 SCS Opposite-Spin Energy  =      -1.0969177723790733 [Eh]
	 SCS Correlation Energy    =      -1.1867307215127940 [Eh]
	 SCS Total Energy          =    -270.1219751085372422 [Eh]
	-----------------------------------------------------------

  Dipole Moment: [D]
     X:    -3.9126      Y:    -0.4875      Z:    -0.8671     Total:     4.0370

*** Psi4 exiting successfully. Buy a developer a beer!
