                               Psi4 1.3.2 release

  ==> Input File <==

--------------------------------------------------------------------------
#psi4
#
memory 32 gb

molecule  {
0 1
  O        2.9426548    -0.0667901     0.1745270
  C       -1.9436970     0.3335570     0.3437070
  C       -2.8302210    -0.7631530    -0.2519080
  C       -0.5859380     0.3423530    -0.2788660
  C        0.5697440     0.1186190     0.3690800
  C        1.8486100     0.1294800    -0.3471130
  H       -1.8508390     0.1975730     1.4263050
  H       -2.4196650     1.3090330     0.1828770
  H       -2.9395310    -0.6342920    -1.3325490
  H       -3.8284810    -0.7404210     0.1934590
  H       -2.3959700    -1.7495570    -0.0705440
  H       -0.5478170     0.5276110    -1.3553930
  H        0.6030990    -0.0751360     1.4392450
  H        1.7869346     0.3285583    -1.4389661
units angstrom
no_reorient  #important for SAPT in psi4, default
symmetry c1  #important for SAPT in psi4, default
}

set PROPERTIES_ORIGIN ["COM"]
properties('MP2/aug-cc-pvtz', properties = ['dipole'])
--------------------------------------------------------------------------

    Molecular point group: c1
  Charge       = 0
  Multiplicity = 1
  Basis Set: AUG-CC-PVTZ
    Blend: AUG-CC-PVTZ
  Basis Set: (AUG-CC-PVTZ AUX)
    Blend: AUG-CC-PVTZ-JKFIT

    Orbital Energies [Eh]
    ---------------------

    Doubly Occupied:

       1A    -20.548711     2A    -11.331366     3A    -11.274779
       4A    -11.250676     5A    -11.245561     6A    -11.235841
       7A     -1.372887     8A     -1.117084     9A     -1.032343
      10A     -0.905965    11A     -0.817510    12A     -0.781684
      13A     -0.679842    14A     -0.649317    15A     -0.616789
      16A     -0.606268    17A     -0.558646    18A     -0.547271
      19A     -0.526506    20A     -0.516858    21A     -0.507095
      22A     -0.423720    23A     -0.381235

  @DF-RHF Final Energy:  -268.93606392628880

   => Energetics <=

    Nuclear Repulsion Energy =            210.0268363617057616
    One-Electron Energy =                -780.0698872080694173
    Two-Electron Energy =                 301.1069869200749167
    Total Energy =                       -268.9360639262887958
  Basis Set: (AUG-CC-PVTZ AUX)
    Blend: AUG-CC-PVTZ-RI
    Molecular point group: c1

    Geometry (in Angstrom), charge = 0, multiplicity = 1:

       Center              X                  Y                   Z               Mass
    ------------   -----------------  -----------------  -----------------  -----------------
         O            2.941625635632    -0.067013669432     0.176343601073    15.994914619570
         C           -1.944726164368     0.333333430568     0.345523601073    12.000000000000
         C           -2.831250164368    -0.763376569432    -0.250091398927    12.000000000000
         C           -0.586967164368     0.342129430568    -0.277049398927    12.000000000000
         C            0.568714835632     0.118395430568     0.370896601073    12.000000000000
         C            1.847580835632     0.129256430568    -0.345296398927    12.000000000000
         H           -1.851868164368     0.197349430568     1.428121601073     1.007825032230
         H           -2.420694164368     1.308809430568     0.184693601073     1.007825032230
         H           -2.940560164368    -0.634515569432    -1.330732398927     1.007825032230
         H           -3.829510164368    -0.740644569432     0.195275601073     1.007825032230
         H           -2.396999164368    -1.749780569432    -0.068727398927     1.007825032230
         H           -0.548846164368     0.527387430568    -1.353576398927     1.007825032230
         H            0.602069835632    -0.075359569432     1.441061601073     1.007825032230
         H            1.785905435632     0.328334730568    -1.437149498927     1.007825032230

  Basis Set: AUG-CC-PVTZ
    Blend: AUG-CC-PVTZ
  Basis Set: (AUG-CC-PVTZ AUX)
    Blend: AUG-CC-PVTZ-JKFIT
	 Reference Energy          =    -268.9360639262887958 [Eh]
	 Singles Energy            =      -0.0000000000000000 [Eh]
	 Same-Spin Energy          =      -0.2693928337377102 [Eh]
	 Opposite-Spin Energy      =      -0.9138650377841666 [Eh]
	 Correlation Energy        =      -1.1832578715218767 [Eh]
	 Total Energy              =    -270.1193217978106986 [Eh]

	 ================> DF-SCS-MP2 Energies <==================
	-----------------------------------------------------------
	 SCS Same-Spin Scale       =       0.3333333333333333 [-]
	 SCS Opposite-Spin Scale   =       1.2000000000000000 [-]
	 SCS Same-Spin Energy      =      -0.0897976112459034 [Eh]
	 SCS Opposite-Spin Energy  =      -1.0966380453409998 [Eh]
	 SCS Correlation Energy    =      -1.1864356565869032 [Eh]
	 SCS Total Energy          =    -270.1224995828757187 [Eh]
	-----------------------------------------------------------

  Dipole Moment: [D]
     X:    -3.9648      Y:     0.4045      Z:    -0.7529     Total:     4.0559

*** Psi4 exiting successfully. Buy a developer a beer!
