                               Psi4 1.3.2 release

  ==> Input File <==

--------------------------------------------------------------------------
#psi4
#
memory 32 gb

molecule  {
0 1
  O        2.9378530    -0.0680150     0.1840270
  C       -1.9436970     0.3335570     0.3437070
  C       -2.8100952    -0.7704027    -0.2679153
  C       -0.5929924     0.3223230    -0.2939880
  C        0.5697440     0.1186190     0.3690800
  C        1.8486100     0.1294800    -0.3471130
  H       -1.8508390     0.1975730     1.4263050
  H       -2.4196650     1.3090330     0.1828770
  H       -2.9395310    -0.6342920    -1.3325490
  H       -3.8284810    -0.7404210     0.1934590
  H       -2.3959700    -1.7495570    -0.0705440
  H       -0.5478170     0.5276110    -1.3553930
  H        0.6030990    -0.0751360     1.4392450
  H        1.7772940     0.3293450    -1.4382350
units angstrom
no_reorient  #important for SAPT in psi4, default
symmetry c1  #important for SAPT in psi4, default
}

set PROPERTIES_ORIGIN ["COM"]
properties('MP2/aug-cc-pvtz', properties = ['dipole'])
--------------------------------------------------------------------------

    Molecular point group: c1
  Charge       = 0
  Multiplicity = 1
  Basis Set: AUG-CC-PVTZ
    Blend: AUG-CC-PVTZ
  Basis Set: (AUG-CC-PVTZ AUX)
    Blend: AUG-CC-PVTZ-JKFIT

    Orbital Energies [Eh]
    ---------------------

    Doubly Occupied:

       1A    -20.548217     2A    -11.330992     3A    -11.275030
       4A    -11.250892     5A    -11.245954     6A    -11.235583
       7A     -1.372438     8A     -1.116315     9A     -1.031243
      10A     -0.905216    11A     -0.817554    12A     -0.783017
      13A     -0.679695    14A     -0.648840    15A     -0.618722
      16A     -0.604319    17A     -0.559410    18A     -0.547468
      19A     -0.525768    20A     -0.514040    21A     -0.510971
      22A     -0.423185    23A     -0.378374

  @DF-RHF Final Energy:  -268.93440568256062

   => Energetics <=

    Nuclear Repulsion Energy =            210.1183449653872799
    One-Electron Energy =                -780.2590200304219934
    Two-Electron Energy =                 301.2062693824740336
    Total Energy =                       -268.9344056825606231
  Basis Set: (AUG-CC-PVTZ AUX)
    Blend: AUG-CC-PVTZ-RI
    Molecular point group: c1

    Geometry (in Angstrom), charge = 0, multiplicity = 1:

       Center              X                  Y                   Z               Mass
    ------------   -----------------  -----------------  -----------------  -----------------
         O            2.935987070697    -0.064120487718     0.188471124508    15.994914619570
         C           -1.945562929303     0.337451512282     0.348151124508    12.000000000000
         C           -2.811961129303    -0.766508187718    -0.263471175492    12.000000000000
         C           -0.594858329303     0.326217512282    -0.289543875492    12.000000000000
         C            0.567878070697     0.122513512282     0.373524124508    12.000000000000
         C            1.846744070697     0.133374512282    -0.342668875492    12.000000000000
         H           -1.852704929303     0.201467512282     1.430749124508     1.007825032230
         H           -2.421530929303     1.312927512282     0.187321124508     1.007825032230
         H           -2.941396929303    -0.630397487718    -1.328104875492     1.007825032230
         H           -3.830346929303    -0.736526487718     0.197903124508     1.007825032230
         H           -2.397835929303    -1.745662487718    -0.066099875492     1.007825032230
         H           -0.549682929303     0.531505512282    -1.350948875492     1.007825032230
         H            0.601233070697    -0.071241487718     1.443689124508     1.007825032230
         H            1.775428070697     0.333239512282    -1.433790875492     1.007825032230

  Basis Set: AUG-CC-PVTZ
    Blend: AUG-CC-PVTZ
  Basis Set: (AUG-CC-PVTZ AUX)
    Blend: AUG-CC-PVTZ-JKFIT
	 Reference Energy          =    -268.9344056825606231 [Eh]
	 Singles Energy            =      -0.0000000000000000 [Eh]
	 Same-Spin Energy          =      -0.2695653773126445 [Eh]
	 Opposite-Spin Energy      =      -0.9141986692451778 [Eh]
	 Correlation Energy        =      -1.1837640465578223 [Eh]
	 Total Energy              =    -270.1181697291184491 [Eh]

	 ================> DF-SCS-MP2 Energies <==================
	-----------------------------------------------------------
	 SCS Same-Spin Scale       =       0.3333333333333333 [-]
	 SCS Opposite-Spin Scale   =       1.2000000000000000 [-]
	 SCS Same-Spin Energy      =      -0.0898551257708815 [Eh]
	 SCS Opposite-Spin Energy  =      -1.0970384030942133 [Eh]
	 SCS Correlation Energy    =      -1.1868935288650948 [Eh]
	 SCS Total Energy          =    -270.1212992114257077 [Eh]
	-----------------------------------------------------------

  Dipole Moment: [D]
     X:    -3.9609      Y:     0.4269      Z:    -0.7766     Total:     4.0588

*** Psi4 exiting successfully. Buy a developer a beer!
