                               Psi4 1.3.2 release

  ==> Input File <==

--------------------------------------------------------------------------
#psi4
#
memory 32 gb

molecule  {
0 1
  O        2.9378530    -0.0680150     0.1840270
  C       -1.9436970     0.3335570     0.3437070
  C       -2.8302210    -0.7631530    -0.2519080
  C       -0.6201612     0.3524828    -0.3484482
  C        0.5697440     0.1186190     0.3690800
  C        1.8486100     0.1294800    -0.3471130
  H       -1.9080018     0.1999375     1.4299871
  H       -2.4196650     1.3090330     0.1828770
  H       -2.9395310    -0.6342920    -1.3325490
  H       -3.8284810    -0.7404210     0.1934590
  H       -2.3959700    -1.7495570    -0.0705440
  H       -0.5478170     0.5276110    -1.3553930
  H        0.6030990    -0.0751360     1.4392450
  H        1.7772940     0.3293450    -1.4382350
units angstrom
no_reorient  #important for SAPT in psi4, default
symmetry c1  #important for SAPT in psi4, default
}

set PROPERTIES_ORIGIN ["COM"]
properties('MP2/aug-cc-pvtz', properties = ['dipole'])
--------------------------------------------------------------------------

    Molecular point group: c1
  Charge       = 0
  Multiplicity = 1
  Basis Set: AUG-CC-PVTZ
    Blend: AUG-CC-PVTZ
  Basis Set: (AUG-CC-PVTZ AUX)
    Blend: AUG-CC-PVTZ-JKFIT

    Orbital Energies [Eh]
    ---------------------

    Doubly Occupied:

       1A    -20.545860     2A    -11.329244     3A    -11.281187
       4A    -11.253210     5A    -11.251922     6A    -11.235456
       7A     -1.370525     8A     -1.111800     9A     -1.026685
      10A     -0.906851    11A     -0.819907    12A     -0.787415
      13A     -0.677915    14A     -0.648137    15A     -0.617142
      16A     -0.606098    17A     -0.568296    18A     -0.543305
      19A     -0.523953    20A     -0.523177    21A     -0.505807
      22A     -0.420905    23A     -0.367655

  @DF-RHF Final Energy:  -268.92437793398113

   => Energetics <=

    Nuclear Repulsion Energy =            209.4064397228231087
    One-Electron Energy =                -778.8167317856851923
    Two-Electron Energy =                 300.4859141288808928
    Total Energy =                       -268.9243779339811340
  Basis Set: (AUG-CC-PVTZ AUX)
    Blend: AUG-CC-PVTZ-RI
    Molecular point group: c1

    Geometry (in Angstrom), charge = 0, multiplicity = 1:

       Center              X                  Y                   Z               Mass
    ------------   -----------------  -----------------  -----------------  -----------------
         O            2.943424184459    -0.069489394983     0.193916489960    15.994914619570
         C           -1.938125815541     0.332082605017     0.353596489960    12.000000000000
         C           -2.824649815541    -0.764627394983    -0.242018510040    12.000000000000
         C           -0.614590015541     0.351008405017    -0.338558710040    12.000000000000
         C            0.575315184459     0.117144605017     0.378969489960    12.000000000000
         C            1.854181184459     0.128005605017    -0.337223510040    12.000000000000
         H           -1.902430615541     0.198463105017     1.439876589960     1.007825032230
         H           -2.414093815541     1.307558605017     0.192766489960     1.007825032230
         H           -2.933959815541    -0.635766394983    -1.322659510040     1.007825032230
         H           -3.822909815541    -0.741895394983     0.203348489960     1.007825032230
         H           -2.390398815541    -1.751031394983    -0.060654510040     1.007825032230
         H           -0.542245815541     0.526136605017    -1.345503510040     1.007825032230
         H            0.608670184459    -0.076610394983     1.449134489960     1.007825032230
         H            1.782865184459     0.327870605017    -1.428345510040     1.007825032230

  Basis Set: AUG-CC-PVTZ
    Blend: AUG-CC-PVTZ
  Basis Set: (AUG-CC-PVTZ AUX)
    Blend: AUG-CC-PVTZ-JKFIT
	 Reference Energy          =    -268.9243779339811340 [Eh]
	 Singles Energy            =      -0.0000000000000000 [Eh]
	 Same-Spin Energy          =      -0.2700976211808563 [Eh]
	 Opposite-Spin Energy      =      -0.9155545387024839 [Eh]
	 Correlation Energy        =      -1.1856521598833403 [Eh]
	 Total Energy              =    -270.1100300938644523 [Eh]

	 ================> DF-SCS-MP2 Energies <==================
	-----------------------------------------------------------
	 SCS Same-Spin Scale       =       0.3333333333333333 [-]
	 SCS Opposite-Spin Scale   =       1.2000000000000000 [-]
	 SCS Same-Spin Energy      =      -0.0900325403936188 [Eh]
	 SCS Opposite-Spin Energy  =      -1.0986654464429806 [Eh]
	 SCS Correlation Energy    =      -1.1886979868365994 [Eh]
	 SCS Total Energy          =    -270.1130759208177210 [Eh]
	-----------------------------------------------------------

  Dipole Moment: [D]
     X:    -4.0150      Y:     0.4292      Z:    -0.7709     Total:     4.1108

*** Psi4 exiting successfully. Buy a developer a beer!
