                               Psi4 1.3.2 release

  ==> Input File <==

--------------------------------------------------------------------------
#psi4
#
memory 32 gb

molecule  {
0 1
  O        2.9378530    -0.0680150     0.1840270
  C       -1.9436970     0.3335570     0.3437070
  C       -2.8401830    -0.7594027    -0.2438360
  C       -0.5825658     0.3523674    -0.2712336
  C        0.5697440     0.1186190     0.3690800
  C        1.8486100     0.1294800    -0.3471130
  H       -1.8508390     0.1975730     1.4263050
  H       -2.4196650     1.3090330     0.1828770
  H       -2.9395310    -0.6342920    -1.3325490
  H       -3.8284810    -0.7404210     0.1934590
  H       -2.3959700    -1.7495570    -0.0705440
  H       -0.5478170     0.5276110    -1.3553930
  H        0.6030990    -0.0751360     1.4392450
  H        1.7772940     0.3293450    -1.4382350
units angstrom
no_reorient  #important for SAPT in psi4, default
symmetry c1  #important for SAPT in psi4, default
}

set PROPERTIES_ORIGIN ["COM"]
properties('MP2/aug-cc-pvtz', properties = ['dipole'])
--------------------------------------------------------------------------

    Molecular point group: c1
  Charge       = 0
  Multiplicity = 1
  Basis Set: AUG-CC-PVTZ
    Blend: AUG-CC-PVTZ
  Basis Set: (AUG-CC-PVTZ AUX)
    Blend: AUG-CC-PVTZ-JKFIT

    Orbital Energies [Eh]
    ---------------------

    Doubly Occupied:

       1A    -20.549448     2A    -11.331950     3A    -11.274217
       4A    -11.250352     5A    -11.244689     6A    -11.235884
       7A     -1.373463     8A     -1.117204     9A     -1.032685
      10A     -0.906340    11A     -0.817704    12A     -0.781022
      13A     -0.679547    14A     -0.649523    15A     -0.615663
      16A     -0.607588    17A     -0.558294    18A     -0.547321
      19A     -0.527625    20A     -0.516955    21A     -0.504528
      22A     -0.424428    23A     -0.382205

  @DF-RHF Final Energy:  -268.93589200859844

   => Energetics <=

    Nuclear Repulsion Energy =            210.0553265131331671
    One-Electron Energy =                -780.1251598004085963
    Two-Electron Energy =                 301.1339412786769572
    Total Energy =                       -268.9358920085984437
  Basis Set: (AUG-CC-PVTZ AUX)
    Blend: AUG-CC-PVTZ-RI
    Molecular point group: c1

    Geometry (in Angstrom), charge = 0, multiplicity = 1:

       Center              X                  Y                   Z               Mass
    ------------   -----------------  -----------------  -----------------  -----------------
         O            2.938793891721    -0.069979961445     0.181785173813    15.994914619570
         C           -1.942756108279     0.331592038555     0.341465173813    12.000000000000
         C           -2.839242108279    -0.761367661445    -0.246077826187    12.000000000000
         C           -0.581624908279     0.350402438555    -0.273475426187    12.000000000000
         C            0.570684891721     0.116654038555     0.366838173813    12.000000000000
         C            1.849550891721     0.127515038555    -0.349354826187    12.000000000000
         H           -1.849898108279     0.195608038555     1.424063173813     1.007825032230
         H           -2.418724108279     1.307068038555     0.180635173813     1.007825032230
         H           -2.938590108279    -0.636256961445    -1.334790826187     1.007825032230
         H           -3.827540108279    -0.742385961445     0.191217173813     1.007825032230
         H           -2.395029108279    -1.751521961445    -0.072785826187     1.007825032230
         H           -0.546876108279     0.525646038555    -1.357634826187     1.007825032230
         H            0.604039891721    -0.077100961445     1.437003173813     1.007825032230
         H            1.778234891721     0.327380038555    -1.440476826187     1.007825032230

  Basis Set: AUG-CC-PVTZ
    Blend: AUG-CC-PVTZ
  Basis Set: (AUG-CC-PVTZ AUX)
    Blend: AUG-CC-PVTZ-JKFIT
	 Reference Energy          =    -268.9358920085984437 [Eh]
	 Singles Energy            =      -0.0000000000000000 [Eh]
	 Same-Spin Energy          =      -0.2693729892447091 [Eh]
	 Opposite-Spin Energy      =      -0.9138140667272330 [Eh]
	 Correlation Energy        =      -1.1831870559719420 [Eh]
	 Total Energy              =    -270.1190790645703714 [Eh]

	 ================> DF-SCS-MP2 Energies <==================
	-----------------------------------------------------------
	 SCS Same-Spin Scale       =       0.3333333333333333 [-]
	 SCS Opposite-Spin Scale   =       1.2000000000000000 [-]
	 SCS Same-Spin Energy      =      -0.0897909964149030 [Eh]
	 SCS Opposite-Spin Energy  =      -1.0965768800726796 [Eh]
	 SCS Correlation Energy    =      -1.1863678764875827 [Eh]
	 SCS Total Energy          =    -270.1222598850860095 [Eh]
	-----------------------------------------------------------

  Dipole Moment: [D]
     X:    -3.9388      Y:     0.3967      Z:    -0.7661     Total:     4.0322

*** Psi4 exiting successfully. Buy a developer a beer!
