                               Psi4 1.3.2 release

  ==> Input File <==

--------------------------------------------------------------------------
#psi4
#
memory 32 gb

molecule  {
0 1
  O        2.9378530    -0.0680150     0.1840270
  C       -1.9436970     0.3335570     0.3437070
  C       -2.8302210    -0.7631530    -0.2519080
  C       -0.5490495     0.3496618    -0.3383181
  C        0.5697440     0.1186190     0.3690800
  C        1.8100211     0.1446918    -0.4116771
  H       -1.8508390     0.1975730     1.4263050
  H       -2.4196650     1.3090330     0.1828770
  H       -2.9395310    -0.6342920    -1.3325490
  H       -3.8284810    -0.7404210     0.1934590
  H       -2.3959700    -1.7495570    -0.0705440
  H       -0.5478170     0.5276110    -1.3553930
  H        0.6030990    -0.0751360     1.4392450
  H        1.7772940     0.3293450    -1.4382350
units angstrom
no_reorient  #important for SAPT in psi4, default
symmetry c1  #important for SAPT in psi4, default
}

set PROPERTIES_ORIGIN ["COM"]
properties('MP2/aug-cc-pvtz', properties = ['dipole'])
--------------------------------------------------------------------------

    Molecular point group: c1
  Charge       = 0
  Multiplicity = 1
  Basis Set: AUG-CC-PVTZ
    Blend: AUG-CC-PVTZ
  Basis Set: (AUG-CC-PVTZ AUX)
    Blend: AUG-CC-PVTZ-JKFIT

    Orbital Energies [Eh]
    ---------------------

    Doubly Occupied:

       1A    -20.544026     2A    -11.332949     3A    -11.273383
       4A    -11.253090     5A    -11.250479     6A    -11.234902
       7A     -1.330647     8A     -1.114813     9A     -1.033175
      10A     -0.903139    11A     -0.824281    12A     -0.801086
      13A     -0.683524    14A     -0.638854    15A     -0.617447
      16A     -0.590358    17A     -0.576394    18A     -0.539760
      19A     -0.511666    20A     -0.505212    21A     -0.503973
      22A     -0.426381    23A     -0.379551

  @DF-RHF Final Energy:  -268.91545760864994

   => Energetics <=

    Nuclear Repulsion Energy =            209.0843011424982194
    One-Electron Energy =                -778.2613366697995616
    Two-Electron Energy =                 300.2615779186513691
    Total Energy =                       -268.9154576086499446
  Basis Set: (AUG-CC-PVTZ AUX)
    Blend: AUG-CC-PVTZ-RI
    Molecular point group: c1

    Geometry (in Angstrom), charge = 0, multiplicity = 1:

       Center              X                  Y                   Z               Mass
    ------------   -----------------  -----------------  -----------------  -----------------
         O            2.938095883933    -0.071229948435     0.201731602190    15.994914619570
         C           -1.943454116067     0.330342051565     0.361411602190    12.000000000000
         C           -2.829978116067    -0.766367948435    -0.234203397810    12.000000000000
         C           -0.548806616067     0.346446851565    -0.320613497810    12.000000000000
         C            0.569986883933     0.115404051565     0.386784602190    12.000000000000
         C            1.810263983933     0.141476851565    -0.393972497810    12.000000000000
         H           -1.850596116067     0.194358051565     1.444009602190     1.007825032230
         H           -2.419422116067     1.305818051565     0.200581602190     1.007825032230
         H           -2.939288116067    -0.637506948435    -1.314844397810     1.007825032230
         H           -3.828238116067    -0.743635948435     0.211163602190     1.007825032230
         H           -2.395727116067    -1.752771948435    -0.052839397810     1.007825032230
         H           -0.547574116067     0.524396051565    -1.337688397810     1.007825032230
         H            0.603341883933    -0.078350948435     1.456949602190     1.007825032230
         H            1.777536883933     0.326130051565    -1.420530397810     1.007825032230

  Basis Set: AUG-CC-PVTZ
    Blend: AUG-CC-PVTZ
  Basis Set: (AUG-CC-PVTZ AUX)
    Blend: AUG-CC-PVTZ-JKFIT
	 Reference Energy          =    -268.9154576086499446 [Eh]
	 Singles Energy            =      -0.0000000000000000 [Eh]
	 Same-Spin Energy          =      -0.2706104277232624 [Eh]
	 Opposite-Spin Energy      =      -0.9177916858307194 [Eh]
	 Correlation Energy        =      -1.1884021135539817 [Eh]
	 Total Energy              =    -270.1038597222039357 [Eh]

	 ================> DF-SCS-MP2 Energies <==================
	-----------------------------------------------------------
	 SCS Same-Spin Scale       =       0.3333333333333333 [-]
	 SCS Opposite-Spin Scale   =       1.2000000000000000 [-]
	 SCS Same-Spin Energy      =      -0.0902034759077541 [Eh]
	 SCS Opposite-Spin Energy  =      -1.1013500229968631 [Eh]
	 SCS Correlation Energy    =      -1.1915534989046173 [Eh]
	 SCS Total Energy          =    -270.1070111075545697 [Eh]
	-----------------------------------------------------------

  Dipole Moment: [D]
     X:    -4.0426      Y:     0.4616      Z:    -0.9673     Total:     4.1822

*** Psi4 exiting successfully. Buy a developer a beer!
