                               Psi4 1.3.2 release

  ==> Input File <==

--------------------------------------------------------------------------
#psi4
#
memory 32 gb

molecule  {
0 1
  O        2.9565588    -0.0630262     0.1457917
  C       -1.9436970     0.3335570     0.3437070
  C       -2.8302210    -0.7631530    -0.2519080
  C       -0.5859380     0.3423530    -0.2788660
  C        0.5697440     0.1186190     0.3690800
  C        1.8486100     0.1294800    -0.3471130
  H       -1.8508390     0.1975730     1.4263050
  H       -2.4196650     1.3090330     0.1828770
  H       -2.9395310    -0.6342920    -1.3325490
  H       -3.8284810    -0.7404210     0.1934590
  H       -2.3959700    -1.7495570    -0.0705440
  H       -0.5478170     0.5276110    -1.3553930
  H        0.6030990    -0.0751360     1.4392450
  H        1.8158816     0.3261075    -1.4406603
units angstrom
no_reorient  #important for SAPT in psi4, default
symmetry c1  #important for SAPT in psi4, default
}

set PROPERTIES_ORIGIN ["COM"]
properties('MP2/aug-cc-pvtz', properties = ['dipole'])
--------------------------------------------------------------------------

    Molecular point group: c1
  Charge       = 0
  Multiplicity = 1
  Basis Set: AUG-CC-PVTZ
    Blend: AUG-CC-PVTZ
  Basis Set: (AUG-CC-PVTZ AUX)
    Blend: AUG-CC-PVTZ-JKFIT

    Orbital Energies [Eh]
    ---------------------

    Doubly Occupied:

       1A    -20.547784     2A    -11.330626     3A    -11.275807
       4A    -11.251206     5A    -11.247045     6A    -11.236226
       7A     -1.372312     8A     -1.117718     9A     -1.032774
      10A     -0.906124    11A     -0.817356    12A     -0.781505
      13A     -0.680645    14A     -0.649392    15A     -0.617628
      16A     -0.605479    17A     -0.559409    18A     -0.547514
      19A     -0.526018    20A     -0.517113    21A     -0.507530
      22A     -0.422632    23A     -0.382042

  @DF-RHF Final Energy:  -268.93557924611434

   => Energetics <=

    Nuclear Repulsion Energy =            209.8820807959732235
    One-Electron Energy =                -779.7715472273896467
    Two-Electron Energy =                 300.9538871853020510
    Total Energy =                       -268.9355792461143437
  Basis Set: (AUG-CC-PVTZ AUX)
    Blend: AUG-CC-PVTZ-RI
    Molecular point group: c1

    Geometry (in Angstrom), charge = 0, multiplicity = 1:

       Center              X                  Y                   Z               Mass
    ------------   -----------------  -----------------  -----------------  -----------------
         O            2.952536841895    -0.063936600129     0.153096520989    15.994914619570
         C           -1.947718958105     0.332646599871     0.351011820989    12.000000000000
         C           -2.834242958105    -0.764063400129    -0.244603179011    12.000000000000
         C           -0.589959958105     0.341442599871    -0.271561179011    12.000000000000
         C            0.565722041895     0.117708599871     0.376384820989    12.000000000000
         C            1.844588041895     0.128569599871    -0.339808179011    12.000000000000
         H           -1.854860958105     0.196662599871     1.433609820989     1.007825032230
         H           -2.423686958105     1.308122599871     0.190181820989     1.007825032230
         H           -2.943552958105    -0.635202400129    -1.325244179011     1.007825032230
         H           -3.832502958105    -0.741331400129     0.200763820989     1.007825032230
         H           -2.399991958105    -1.750467400129    -0.063239179011     1.007825032230
         H           -0.551838958105     0.526700599871    -1.348088179011     1.007825032230
         H            0.599077041895    -0.076046400129     1.446549820989     1.007825032230
         H            1.811859641895     0.325197099871    -1.433355479011     1.007825032230

  Basis Set: AUG-CC-PVTZ
    Blend: AUG-CC-PVTZ
  Basis Set: (AUG-CC-PVTZ AUX)
    Blend: AUG-CC-PVTZ-JKFIT
	 Reference Energy          =    -268.9355792461143437 [Eh]
	 Singles Energy            =      -0.0000000000000000 [Eh]
	 Same-Spin Energy          =      -0.2693350391451445 [Eh]
	 Opposite-Spin Energy      =      -0.9138092412638460 [Eh]
	 Correlation Energy        =      -1.1831442804089904 [Eh]
	 Total Energy              =    -270.1187235265233539 [Eh]

	 ================> DF-SCS-MP2 Energies <==================
	-----------------------------------------------------------
	 SCS Same-Spin Scale       =       0.3333333333333333 [-]
	 SCS Opposite-Spin Scale   =       1.2000000000000000 [-]
	 SCS Same-Spin Energy      =      -0.0897783463817148 [Eh]
	 SCS Opposite-Spin Energy  =      -1.0965710895166152 [Eh]
	 SCS Correlation Energy    =      -1.1863494358983300 [Eh]
	 SCS Total Energy          =    -270.1219286820126513 [Eh]
	-----------------------------------------------------------

  Dipole Moment: [D]
     X:    -4.0145      Y:     0.3979      Z:    -0.6999     Total:     4.0944

*** Psi4 exiting successfully. Buy a developer a beer!
