                               Psi4 1.3.2 release

  ==> Input File <==

--------------------------------------------------------------------------
#psi4
#
memory 32 gb

molecule  {
0 1
  O        2.9378530    -0.0680150     0.1840270
  C       -1.9737905     0.3498733     0.2733957
  C       -2.8302210    -0.7631530    -0.2519080
  C       -0.5859380     0.3423530    -0.2788660
  C        0.6035727     0.1277673     0.3080828
  C        1.8486100     0.1294800    -0.3471130
  H       -1.8508390     0.1975730     1.4263050
  H       -2.4196650     1.3090330     0.1828770
  H       -2.9395310    -0.6342920    -1.3325490
  H       -3.8284810    -0.7404210     0.1934590
  H       -2.3959700    -1.7495570    -0.0705440
  H       -0.5478170     0.5276110    -1.3553930
  H        0.6030990    -0.0751360     1.4392450
  H        1.7772940     0.3293450    -1.4382350
units angstrom
no_reorient  #important for SAPT in psi4, default
symmetry c1  #important for SAPT in psi4, default
}

set PROPERTIES_ORIGIN ["COM"]
properties('MP2/aug-cc-pvtz', properties = ['dipole'])
--------------------------------------------------------------------------

    Molecular point group: c1
  Charge       = 0
  Multiplicity = 1
  Basis Set: AUG-CC-PVTZ
    Blend: AUG-CC-PVTZ
  Basis Set: (AUG-CC-PVTZ AUX)
    Blend: AUG-CC-PVTZ-JKFIT

    Orbital Energies [Eh]
    ---------------------

    Doubly Occupied:

       1A    -20.548285     2A    -11.327701     3A    -11.279753
       4A    -11.256825     5A    -11.247879     6A    -11.237312
       7A     -1.373295     8A     -1.121531     9A     -1.044653
      10A     -0.916216    11A     -0.825124    12A     -0.772310
      13A     -0.681732    14A     -0.656071    15A     -0.621947
      16A     -0.602893    17A     -0.563826    18A     -0.542617
      19A     -0.532110    20A     -0.522230    21A     -0.483441
      22A     -0.427513    23A     -0.384480

  @DF-RHF Final Energy:  -268.92154382515184

   => Energetics <=

    Nuclear Repulsion Energy =            210.6140075265329017
    One-Electron Energy =                -781.1316188742117674
    Two-Electron Energy =                 301.5960675225270506
    Total Energy =                       -268.9215438251518435
  Basis Set: (AUG-CC-PVTZ AUX)
    Blend: AUG-CC-PVTZ-RI
    Molecular point group: c1

    Geometry (in Angstrom), charge = 0, multiplicity = 1:

       Center              X                  Y                   Z               Mass
    ------------   -----------------  -----------------  -----------------  -----------------
         O            2.937319900964    -0.071650232095     0.202772646528    15.994914619570
         C           -1.974323599036     0.346238067905     0.292141346528    12.000000000000
         C           -2.830754099036    -0.766788232095    -0.233162353472    12.000000000000
         C           -0.586471099036     0.338717767905    -0.260120353472    12.000000000000
         C            0.603039600964     0.124132067905     0.326828446528    12.000000000000
         C            1.848076900964     0.125844767905    -0.328367353472    12.000000000000
         H           -1.851372099036     0.193937767905     1.445050646528     1.007825032230
         H           -2.420198099036     1.305397767905     0.201622646528     1.007825032230
         H           -2.940064099036    -0.637927232095    -1.313803353472     1.007825032230
         H           -3.829014099036    -0.744056232095     0.212204646528     1.007825032230
         H           -2.396503099036    -1.753192232095    -0.051798353472     1.007825032230
         H           -0.548350099036     0.523975767905    -1.336647353472     1.007825032230
         H            0.602565900964    -0.078771232095     1.457990646528     1.007825032230
         H            1.776760900964     0.325709767905    -1.419489353472     1.007825032230

  Basis Set: AUG-CC-PVTZ
    Blend: AUG-CC-PVTZ
  Basis Set: (AUG-CC-PVTZ AUX)
    Blend: AUG-CC-PVTZ-JKFIT
	 Reference Energy          =    -268.9215438251518435 [Eh]
	 Singles Energy            =      -0.0000000000000000 [Eh]
	 Same-Spin Energy          =      -0.2704661997635530 [Eh]
	 Opposite-Spin Energy      =      -0.9155833703453632 [Eh]
	 Correlation Energy        =      -1.1860495701089162 [Eh]
	 Total Energy              =    -270.1075933952607784 [Eh]

	 ================> DF-SCS-MP2 Energies <==================
	-----------------------------------------------------------
	 SCS Same-Spin Scale       =       0.3333333333333333 [-]
	 SCS Opposite-Spin Scale   =       1.2000000000000000 [-]
	 SCS Same-Spin Energy      =      -0.0901553999211843 [Eh]
	 SCS Opposite-Spin Energy  =      -1.0987000444144357 [Eh]
	 SCS Correlation Energy    =      -1.1888554443356201 [Eh]
	 SCS Total Energy          =    -270.1103992694874592 [Eh]
	-----------------------------------------------------------

  Dipole Moment: [D]
     X:    -4.1132      Y:     0.4101      Z:    -0.8062     Total:     4.2115

*** Psi4 exiting successfully. Buy a developer a beer!
