                               Psi4 1.3.2 release

  ==> Input File <==

--------------------------------------------------------------------------
#psi4
#
memory 32 gb

molecule  {
0 1
  O        2.9378530    -0.0680150     0.1840270
  C       -1.9436970     0.3335570     0.3437070
  C       -2.8302210    -0.7631530    -0.2519080
  C       -0.5859380     0.3423530    -0.2788660
  C        0.5755809     0.1198348     0.3589831
  C        1.8486100     0.1294800    -0.3471130
  H       -1.8508390     0.1975730     1.4263050
  H       -2.4196650     1.3090330     0.1828770
  H       -2.9395310    -0.6342920    -1.3325490
  H       -3.8284810    -0.7404210     0.1934590
  H       -2.3959700    -1.7495570    -0.0705440
  H       -0.5383277     0.5266695    -1.3551767
  H        0.6030990    -0.0751360     1.4392450
  H        1.7772940     0.3293450    -1.4382350
units angstrom
no_reorient  #important for SAPT in psi4, default
symmetry c1  #important for SAPT in psi4, default
}

set PROPERTIES_ORIGIN ["COM"]
properties('MP2/aug-cc-pvtz', properties = ['dipole'])
--------------------------------------------------------------------------

    Molecular point group: c1
  Charge       = 0
  Multiplicity = 1
  Basis Set: AUG-CC-PVTZ
    Blend: AUG-CC-PVTZ
  Basis Set: (AUG-CC-PVTZ AUX)
    Blend: AUG-CC-PVTZ-JKFIT

    Orbital Energies [Eh]
    ---------------------

    Doubly Occupied:

       1A    -20.548736     2A    -11.330855     3A    -11.275065
       4A    -11.251336     5A    -11.245000     6A    -11.236121
       7A     -1.373008     8A     -1.117402     9A     -1.033452
      10A     -0.907205    11A     -0.818932    12A     -0.780210
      13A     -0.679891    14A     -0.649673    15A     -0.616766
      16A     -0.606386    17A     -0.555578    18A     -0.547875
      19A     -0.527194    20A     -0.517472    21A     -0.507090
      22A     -0.424582    23A     -0.381054

  @DF-RHF Final Energy:  -268.93570410619623

   => Energetics <=

    Nuclear Repulsion Energy =            210.1534942408528650
    One-Electron Energy =                -780.3166314740070675
    Two-Electron Energy =                 301.2274331269579761
    Total Energy =                       -268.9357041061962263
  Basis Set: (AUG-CC-PVTZ AUX)
    Blend: AUG-CC-PVTZ-RI
    Molecular point group: c1

    Geometry (in Angstrom), charge = 0, multiplicity = 1:

       Center              X                  Y                   Z               Mass
    ------------   -----------------  -----------------  -----------------  -----------------
         O            2.936906089609    -0.068177199759     0.185465958427    15.994914619570
         C           -1.944643910391     0.333394800241     0.345145958427    12.000000000000
         C           -2.831167910391    -0.763315199759    -0.250469041573    12.000000000000
         C           -0.586884910391     0.342190800241    -0.277427041573    12.000000000000
         C            0.574633989609     0.119672600241     0.360422058427    12.000000000000
         C            1.847663089609     0.129317800241    -0.345674041573    12.000000000000
         H           -1.851785910391     0.197410800241     1.427743958427     1.007825032230
         H           -2.420611910391     1.308870800241     0.184315958427     1.007825032230
         H           -2.940477910391    -0.634454199759    -1.331110041573     1.007825032230
         H           -3.829427910391    -0.740583199759     0.194897958427     1.007825032230
         H           -2.396916910391    -1.749719199759    -0.069105041573     1.007825032230
         H           -0.539274610391     0.526507300241    -1.353737741573     1.007825032230
         H            0.602152089609    -0.075298199759     1.440683958427     1.007825032230
         H            1.776347089609     0.329182800241    -1.436796041573     1.007825032230

  Basis Set: AUG-CC-PVTZ
    Blend: AUG-CC-PVTZ
  Basis Set: (AUG-CC-PVTZ AUX)
    Blend: AUG-CC-PVTZ-JKFIT
	 Reference Energy          =    -268.9357041061962263 [Eh]
	 Singles Energy            =      -0.0000000000000000 [Eh]
	 Same-Spin Energy          =      -0.2695304551370376 [Eh]
	 Opposite-Spin Energy      =      -0.9140031558127576 [Eh]
	 Correlation Energy        =      -1.1835336109497951 [Eh]
	 Total Energy              =    -270.1192377171460066 [Eh]

	 ================> DF-SCS-MP2 Energies <==================
	-----------------------------------------------------------
	 SCS Same-Spin Scale       =       0.3333333333333333 [-]
	 SCS Opposite-Spin Scale   =       1.2000000000000000 [-]
	 SCS Same-Spin Energy      =      -0.0898434850456792 [Eh]
	 SCS Opposite-Spin Energy  =      -1.0968037869753091 [Eh]
	 SCS Correlation Energy    =      -1.1866472720209882 [Eh]
	 SCS Total Energy          =    -270.1223513782172176 [Eh]
	-----------------------------------------------------------

  Dipole Moment: [D]
     X:    -3.9797      Y:     0.4065      Z:    -0.7674     Total:     4.0734

*** Psi4 exiting successfully. Buy a developer a beer!
