                               Psi4 1.4a3.dev225

  ==> Input File <==

--------------------------------------------------------------------------
#psi4
#
memory 32 gb

molecule  {
0 1
  O        3.0568210     0.0670890     0.3064100
  C       -1.7873110     0.5014740    -0.3308760
  C       -2.7589810    -0.3710180     0.4711220
  C       -0.4836222    -0.1130625    -0.4399305
  C        0.7079740     0.3780980     0.0389610
  C        1.9769390    -0.3447360    -0.1093610
  H       -1.6911510     1.4872370     0.1370160
  H       -2.1942130     0.6629350    -1.3374030
  H       -2.8765390    -1.3546870     0.0071490
  H       -3.7457810     0.0968040     0.5260030
  H       -2.3920550    -0.5186010     1.4901810
  H       -0.4015900    -1.1050250    -0.9450900
  H        0.7410060     1.3377710     0.5508970
  H        1.9051690    -1.3201300    -0.6368870
units angstrom
no_reorient  #important for SAPT in psi4, default
symmetry c1  #important for SAPT in psi4, default
}

set PROPERTIES_ORIGIN ["COM"]
properties('MP2/aug-cc-pvtz', properties = ['dipole'])
--------------------------------------------------------------------------

    Molecular point group: c1
  Charge       = 0
  Multiplicity = 1
  Basis Set: AUG-CC-PVTZ
    Blend: AUG-CC-PVTZ
  Basis Set: (AUG-CC-PVTZ AUX)
    Blend: AUG-CC-PVTZ-JKFIT

    Orbital Energies [Eh]
    ---------------------

    Doubly Occupied:

       1A    -20.548727     2A    -11.332340     3A    -11.279963
       4A    -11.249617     5A    -11.248160     6A    -11.237800
       7A     -1.372432     8A     -1.119901     9A     -1.029574
      10A     -0.911861    11A     -0.816896    12A     -0.778441
      13A     -0.678315    14A     -0.651960    15A     -0.617424
      16A     -0.608351    17A     -0.553140    18A     -0.549965
      19A     -0.527678    20A     -0.522938    21A     -0.505555
      22A     -0.424468    23A     -0.372779

  @DF-RHF Final Energy:  -268.93071630130527

   => Energetics <=

    Nuclear Repulsion Energy =            209.9331171677750376
    One-Electron Energy =                -779.8510959121773567
    Two-Electron Energy =                 300.9872624430969950
    Total Energy =                       -268.9307163013052673
  Basis Set: (AUG-CC-PVTZ AUX)
    Blend: AUG-CC-PVTZ-RI
    Molecular point group: c1

    Geometry (in Angstrom), charge = 0, multiplicity = 1:

       Center              X                  Y                   Z               Mass
    ------------   -----------------  -----------------  -----------------  -----------------
         O            2.937675845715     0.055634127296     0.303433167605    15.994914619570
         C           -1.906456154285     0.490019127296    -0.333852832395    12.000000000000
         C           -2.878126154285    -0.382472872704     0.468145167605    12.000000000000
         C           -0.602767354285    -0.124517372704    -0.442907332395    12.000000000000
         C            0.588828845715     0.366643127296     0.035984167605    12.000000000000
         C            1.857793845715    -0.356190872704    -0.112337832395    12.000000000000
         H           -1.810296154285     1.475782127296     0.134039167605     1.007825032230
         H           -2.313358154285     0.651480127296    -1.340379832395     1.007825032230
         H           -2.995684154285    -1.366141872704     0.004172167605     1.007825032230
         H           -3.864926154285     0.085349127296     0.523026167605     1.007825032230
         H           -2.511200154285    -0.530055872704     1.487204167605     1.007825032230
         H           -0.520735154285    -1.116479872704    -0.948066832395     1.007825032230
         H            0.621860845715     1.326316127296     0.547920167605     1.007825032230
         H            1.786023845715    -1.331584872704    -0.639863832395     1.007825032230

  Basis Set: AUG-CC-PVTZ
    Blend: AUG-CC-PVTZ
  Basis Set: (AUG-CC-PVTZ AUX)
    Blend: AUG-CC-PVTZ-JKFIT
	 Reference Energy          =    -268.9307163013052673 [Eh]
	 Singles Energy            =      -0.0000000000000000 [Eh]
	 Same-Spin Energy          =      -0.2703276996774344 [Eh]
	 Opposite-Spin Energy      =      -0.9152798900990882 [Eh]
	 Correlation Energy        =      -1.1856075897765226 [Eh]
	 Total Energy              =    -270.1163238910817768 [Eh]

	 ================> DF-SCS-MP2 Energies <==================
	-----------------------------------------------------------
	 SCS Same-Spin Scale       =       0.3333333333333333 [-]
	 SCS Opposite-Spin Scale   =       1.2000000000000000 [-]
	 SCS Same-Spin Energy      =      -0.0901092332258114 [Eh]
	 SCS Opposite-Spin Energy  =      -1.0983358681189057 [Eh]
	 SCS Correlation Energy    =      -1.1884451013447173 [Eh]
	 SCS Total Energy          =    -270.1191614026499792 [Eh]
	-----------------------------------------------------------

  Dipole Moment: [D]
     X:    -4.0180      Y:    -0.4666      Z:    -0.8678     Total:     4.1370

*** Psi4 exiting successfully. Buy a developer a beer!
