                               Psi4 1.4a3.dev225

  ==> Input File <==

--------------------------------------------------------------------------
#psi4
#
memory 32 gb

molecule  {
0 1
  O        3.0568210     0.0670890     0.3064100
  C       -1.7873110     0.5014740    -0.3308760
  C       -2.7589810    -0.3710180     0.4711220
  C       -0.4385240    -0.1343210    -0.4437030
  C        0.7079740     0.3780980     0.0389610
  C        1.9769390    -0.3447360    -0.1093610
  H       -1.6911510     1.4872370     0.1370160
  H       -2.1942130     0.6629350    -1.3374030
  H       -2.8765390    -1.3546870     0.0071490
  H       -3.7457810     0.0968040     0.5260030
  H       -2.3920550    -0.5186010     1.4901810
  H       -0.4015900    -1.1050250    -0.9450900
  H        0.7425238     1.3818662     0.5744195
  H        1.9051690    -1.3201300    -0.6368870
units angstrom
no_reorient  #important for SAPT in psi4, default
symmetry c1  #important for SAPT in psi4, default
}

set PROPERTIES_ORIGIN ["COM"]
properties('MP2/aug-cc-pvtz', properties = ['dipole'])
--------------------------------------------------------------------------

    Molecular point group: c1
  Charge       = 0
  Multiplicity = 1
  Basis Set: AUG-CC-PVTZ
    Blend: AUG-CC-PVTZ
  Basis Set: (AUG-CC-PVTZ AUX)
    Blend: AUG-CC-PVTZ-JKFIT

    Orbital Energies [Eh]
    ---------------------

    Doubly Occupied:

       1A    -20.549384     2A    -11.332507     3A    -11.275140
       4A    -11.251029     5A    -11.250799     6A    -11.235848
       7A     -1.373031     8A     -1.115403     9A     -1.030765
      10A     -0.905492    11A     -0.817737    12A     -0.775854
      13A     -0.679315    14A     -0.647983    15A     -0.614591
      16A     -0.605269    17A     -0.553341    18A     -0.546501
      19A     -0.526531    20A     -0.516386    21A     -0.506762
      22A     -0.424239    23A     -0.380859

  @DF-RHF Final Energy:  -268.93344433910693

   => Energetics <=

    Nuclear Repulsion Energy =            209.6665109420817998
    One-Electron Energy =                -779.3703745369426770
    Two-Electron Energy =                 300.7704192557539500
    Total Energy =                       -268.9334443391069271
  Basis Set: (AUG-CC-PVTZ AUX)
    Blend: AUG-CC-PVTZ-RI
    Molecular point group: c1

    Geometry (in Angstrom), charge = 0, multiplicity = 1:

       Center              X                  Y                   Z               Mass
    ------------   -----------------  -----------------  -----------------  -----------------
         O            2.931219455973     0.058140289344     0.303689699525    15.994914619570
         C           -1.912912544027     0.492525289344    -0.333596300475    12.000000000000
         C           -2.884582544027    -0.379966710656     0.468401699525    12.000000000000
         C           -0.564125544027    -0.143269710656    -0.446423300475    12.000000000000
         C            0.582372455973     0.369149289344     0.036240699525    12.000000000000
         C            1.851337455973    -0.353684710656    -0.112081300475    12.000000000000
         H           -1.816752544027     1.478288289344     0.134295699525     1.007825032230
         H           -2.319814544027     0.653986289344    -1.340123300475     1.007825032230
         H           -3.002140544027    -1.363635710656     0.004428699525     1.007825032230
         H           -3.871382544027     0.087855289344     0.523282699525     1.007825032230
         H           -2.517656544027    -0.527549710656     1.487460699525     1.007825032230
         H           -0.527191544027    -1.113973710656    -0.947810300475     1.007825032230
         H            0.616922255973     1.372917489344     0.571699199525     1.007825032230
         H            1.779567455973    -1.329078710656    -0.639607300475     1.007825032230

  Basis Set: AUG-CC-PVTZ
    Blend: AUG-CC-PVTZ
  Basis Set: (AUG-CC-PVTZ AUX)
    Blend: AUG-CC-PVTZ-JKFIT
	 Reference Energy          =    -268.9334443391069271 [Eh]
	 Singles Energy            =      -0.0000000000000000 [Eh]
	 Same-Spin Energy          =      -0.2695148417020512 [Eh]
	 Opposite-Spin Energy      =      -0.9143328400073032 [Eh]
	 Correlation Energy        =      -1.1838476817093544 [Eh]
	 Total Energy              =    -270.1172920208163077 [Eh]

	 ================> DF-SCS-MP2 Energies <==================
	-----------------------------------------------------------
	 SCS Same-Spin Scale       =       0.3333333333333333 [-]
	 SCS Opposite-Spin Scale   =       1.2000000000000000 [-]
	 SCS Same-Spin Energy      =      -0.0898382805673504 [Eh]
	 SCS Opposite-Spin Energy  =      -1.0971994080087637 [Eh]
	 SCS Correlation Energy    =      -1.1870376885761140 [Eh]
	 SCS Total Energy          =    -270.1204820276830674 [Eh]
	-----------------------------------------------------------

  Dipole Moment: [D]
     X:    -3.9073      Y:    -0.4935      Z:    -0.8695     Total:     4.0332

*** Psi4 exiting successfully. Buy a developer a beer!
