                               Psi4 1.4a3.dev225

  ==> Input File <==

--------------------------------------------------------------------------
#psi4
#
memory 32 gb

molecule  {
0 1
  O        3.0568210     0.0670890     0.3064100
  C       -1.7873110     0.5014740    -0.3308760
  C       -2.7589810    -0.3710180     0.4711220
  C       -0.4385240    -0.1343210    -0.4437030
  C        0.7079740     0.3780980     0.0389610
  C        1.9337155    -0.3201148    -0.1043089
  H       -1.6911510     1.4872370     0.1370160
  H       -2.1942130     0.6629350    -1.3374030
  H       -2.8765390    -1.3546870     0.0071490
  H       -3.7457810     0.0968040     0.5260030
  H       -2.3920550    -0.5186010     1.4901810
  H       -0.4015900    -1.1050250    -0.9450900
  H        0.7410060     1.3377710     0.5508970
  H        1.9051690    -1.3201300    -0.6368870
units angstrom
no_reorient  #important for SAPT in psi4, default
symmetry c1  #important for SAPT in psi4, default
}

set PROPERTIES_ORIGIN ["COM"]
properties('MP2/aug-cc-pvtz', properties = ['dipole'])
--------------------------------------------------------------------------

    Molecular point group: c1
  Charge       = 0
  Multiplicity = 1
  Basis Set: AUG-CC-PVTZ
    Blend: AUG-CC-PVTZ
  Basis Set: (AUG-CC-PVTZ AUX)
    Blend: AUG-CC-PVTZ-JKFIT

    Orbital Energies [Eh]
    ---------------------

    Doubly Occupied:

       1A    -20.544250     2A    -11.331400     3A    -11.281749
       4A    -11.254240     5A    -11.245247     6A    -11.238735
       7A     -1.351560     8A     -1.123072     9A     -1.039912
      10A     -0.912850    11A     -0.820061    12A     -0.781103
      13A     -0.680534    14A     -0.648543    15A     -0.618585
      16A     -0.597758    17A     -0.559520    18A     -0.548561
      19A     -0.520457    20A     -0.516912    21A     -0.510048
      22A     -0.423658    23A     -0.381536

  @DF-RHF Final Energy:  -268.92896219817840

   => Energetics <=

    Nuclear Repulsion Energy =            210.1299688187856987
    One-Electron Energy =                -780.2572787814348203
    Two-Electron Energy =                 301.1983477644707818
    Total Energy =                       -268.9289621981783966
  Basis Set: (AUG-CC-PVTZ AUX)
    Blend: AUG-CC-PVTZ-RI
    Molecular point group: c1

    Geometry (in Angstrom), charge = 0, multiplicity = 1:

       Center              X                  Y                   Z               Mass
    ------------   -----------------  -----------------  -----------------  -----------------
         O            2.937408214677     0.055154070277     0.303250492683    15.994914619570
         C           -1.906723785323     0.489539070277    -0.334035507317    12.000000000000
         C           -2.878393785323    -0.382952929723     0.467962492683    12.000000000000
         C           -0.557936785323    -0.146255929723    -0.446862507317    12.000000000000
         C            0.588561214677     0.366163070277     0.035801492683    12.000000000000
         C            1.814302714677    -0.332049729723    -0.107468407317    12.000000000000
         H           -1.810563785323     1.475302070277     0.133856492683     1.007825032230
         H           -2.313625785323     0.651000070277    -1.340562507317     1.007825032230
         H           -2.995951785323    -1.366621929723     0.003989492683     1.007825032230
         H           -3.865193785323     0.084869070277     0.522843492683     1.007825032230
         H           -2.511467785323    -0.530535929723     1.487021492683     1.007825032230
         H           -0.521002785323    -1.116959929723    -0.948249507317     1.007825032230
         H            0.621593214677     1.325836070277     0.547737492683     1.007825032230
         H            1.785756214677    -1.332064929723    -0.640046507317     1.007825032230

  Basis Set: AUG-CC-PVTZ
    Blend: AUG-CC-PVTZ
  Basis Set: (AUG-CC-PVTZ AUX)
    Blend: AUG-CC-PVTZ-JKFIT
	 Reference Energy          =    -268.9289621981783966 [Eh]
	 Singles Energy            =      -0.0000000000000000 [Eh]
	 Same-Spin Energy          =      -0.2707308273895113 [Eh]
	 Opposite-Spin Energy      =      -0.9162077354157001 [Eh]
	 Correlation Energy        =      -1.1869385628052114 [Eh]
	 Total Energy              =    -270.1159007609836067 [Eh]

	 ================> DF-SCS-MP2 Energies <==================
	-----------------------------------------------------------
	 SCS Same-Spin Scale       =       0.3333333333333333 [-]
	 SCS Opposite-Spin Scale   =       1.2000000000000000 [-]
	 SCS Same-Spin Energy      =      -0.0902436091298371 [Eh]
	 SCS Opposite-Spin Energy  =      -1.0994492824988400 [Eh]
	 SCS Correlation Energy    =      -1.1896928916286771 [Eh]
	 SCS Total Energy          =    -270.1186550898070777 [Eh]
	-----------------------------------------------------------

  Dipole Moment: [D]
     X:    -4.2455      Y:    -0.4135      Z:    -0.8767     Total:     4.3548

*** Psi4 exiting successfully. Buy a developer a beer!
