                               Psi4 1.3.2 release

  ==> Input File <==

--------------------------------------------------------------------------
#psi4
#
memory 32 gb

molecule  {
0 1
  O        2.9378530    -0.0680150     0.1840270
  C       -1.9436970     0.3335570     0.3437070
  C       -2.8302210    -0.7631530    -0.2519080
  C       -0.4950399     0.3429419    -0.3205455
  C        0.5697440     0.1186190     0.3690800
  C        1.8486100     0.1294800    -0.3471130
  H       -1.8508390     0.1975730     1.4263050
  H       -2.4196650     1.3090330     0.1828770
  H       -2.9395310    -0.6342920    -1.3325490
  H       -3.8284810    -0.7404210     0.1934590
  H       -2.3959700    -1.7495570    -0.0705440
  H       -0.5478170     0.5276110    -1.3553930
  H        0.6030990    -0.0751360     1.4392450
  H        1.7772940     0.3293450    -1.4382350
units angstrom
no_reorient  #important for SAPT in psi4, default
symmetry c1  #important for SAPT in psi4, default
}

set PROPERTIES_ORIGIN ["COM"]
properties('MP2/aug-cc-pvtz', properties = ['dipole'])
--------------------------------------------------------------------------

    Molecular point group: c1
  Charge       = 0
  Multiplicity = 1
  Basis Set: AUG-CC-PVTZ
    Blend: AUG-CC-PVTZ
  Basis Set: (AUG-CC-PVTZ AUX)
    Blend: AUG-CC-PVTZ-JKFIT

    Orbital Energies [Eh]
    ---------------------

    Doubly Occupied:

       1A    -20.549198     2A    -11.330475     3A    -11.265413
       4A    -11.252330     5A    -11.239959     6A    -11.232773
       7A     -1.373464     8A     -1.117638     9A     -1.032709
      10A     -0.894857    11A     -0.817520    12A     -0.788563
      13A     -0.684044    14A     -0.645850    15A     -0.614651
      16A     -0.603280    17A     -0.572724    18A     -0.541351
      19A     -0.525702    20A     -0.507985    21A     -0.494498
      22A     -0.421220    23A     -0.396214

  @DF-RHF Final Energy:  -268.92799769880850

   => Energetics <=

    Nuclear Repulsion Energy =            210.0906968005819522
    One-Electron Energy =                -780.2325519451554783
    Two-Electron Energy =                 301.2138574457650861
    Total Energy =                       -268.9279976988084968
  Basis Set: (AUG-CC-PVTZ AUX)
    Blend: AUG-CC-PVTZ-RI
    Molecular point group: c1

    Geometry (in Angstrom), charge = 0, multiplicity = 1:

       Center              X                  Y                   Z               Mass
    ------------   -----------------  -----------------  -----------------  -----------------
         O            2.924876578061    -0.068098992204     0.189977264681    15.994914619570
         C           -1.956673421939     0.333473007796     0.349657264681    12.000000000000
         C           -2.843197421939    -0.763236992204    -0.245957735319    12.000000000000
         C           -0.508016321939     0.342857907796    -0.314595235319    12.000000000000
         C            0.556767578061     0.118535007796     0.375030264681    12.000000000000
         C            1.835633578061     0.129396007796    -0.341162735319    12.000000000000
         H           -1.863815421939     0.197489007796     1.432255264681     1.007825032230
         H           -2.432641421939     1.308949007796     0.188827264681     1.007825032230
         H           -2.952507421939    -0.634375992204    -1.326598735319     1.007825032230
         H           -3.841457421939    -0.740504992204     0.199409264681     1.007825032230
         H           -2.408946421939    -1.749640992204    -0.064593735319     1.007825032230
         H           -0.560793421939     0.527527007796    -1.349442735319     1.007825032230
         H            0.590122578061    -0.075219992204     1.445195264681     1.007825032230
         H            1.764317578061     0.329261007796    -1.432284735319     1.007825032230

  Basis Set: AUG-CC-PVTZ
    Blend: AUG-CC-PVTZ
  Basis Set: (AUG-CC-PVTZ AUX)
    Blend: AUG-CC-PVTZ-JKFIT
	 Reference Energy          =    -268.9279976988084968 [Eh]
	 Singles Energy            =      -0.0000000000000000 [Eh]
	 Same-Spin Energy          =      -0.2683312308363360 [Eh]
	 Opposite-Spin Energy      =      -0.9125062829381587 [Eh]
	 Correlation Energy        =      -1.1808375137744949 [Eh]
	 Total Energy              =    -270.1088352125830170 [Eh]

	 ================> DF-SCS-MP2 Energies <==================
	-----------------------------------------------------------
	 SCS Same-Spin Scale       =       0.3333333333333333 [-]
	 SCS Opposite-Spin Scale   =       1.2000000000000000 [-]
	 SCS Same-Spin Energy      =      -0.0894437436121120 [Eh]
	 SCS Opposite-Spin Energy  =      -1.0950075395257903 [Eh]
	 SCS Correlation Energy    =      -1.1844512831379024 [Eh]
	 SCS Total Energy          =    -270.1124489819463861 [Eh]
	-----------------------------------------------------------

  Dipole Moment: [D]
     X:    -3.7749      Y:     0.4047      Z:    -0.7926     Total:     3.8784

*** Psi4 exiting successfully. Buy a developer a beer!
