                               Psi4 1.3.2 release

  ==> Input File <==

--------------------------------------------------------------------------
#psi4
#
memory 32 gb

molecule  {
0 1
  O        2.9378530    -0.0680150     0.1840270
  C       -1.9436970     0.3335570     0.3437070
  C       -2.8302210    -0.7631530    -0.2519080
  C       -0.5859380     0.3423530    -0.2788660
  C        0.5925589     0.1235836     0.3284039
  C        1.8486100     0.1294800    -0.3471130
  H       -1.8508390     0.1975730     1.4263050
  H       -2.4196650     1.3090330     0.1828770
  H       -2.9395310    -0.6342920    -1.3325490
  H       -3.8284810    -0.7404210     0.1934590
  H       -2.3959700    -1.7495570    -0.0705440
  H       -0.5098845     0.5237610    -1.3540363
  H        0.6030990    -0.0751360     1.4392450
  H        1.7772940     0.3293450    -1.4382350
units angstrom
no_reorient  #important for SAPT in psi4, default
symmetry c1  #important for SAPT in psi4, default
}

set PROPERTIES_ORIGIN ["COM"]
properties('MP2/aug-cc-pvtz', properties = ['dipole'])
--------------------------------------------------------------------------

    Molecular point group: c1
  Charge       = 0
  Multiplicity = 1
  Basis Set: AUG-CC-PVTZ
    Blend: AUG-CC-PVTZ
  Basis Set: (AUG-CC-PVTZ AUX)
    Blend: AUG-CC-PVTZ-JKFIT

    Orbital Energies [Eh]
    ---------------------

    Doubly Occupied:

       1A    -20.547873     2A    -11.328477     3A    -11.277227
       4A    -11.253934     5A    -11.244960     6A    -11.237413
       7A     -1.372682     8A     -1.119228     9A     -1.037422
      10A     -0.911338    11A     -0.823342    12A     -0.775775
      13A     -0.680772    14A     -0.650935    15A     -0.618127
      16A     -0.606074    17A     -0.550382    18A     -0.546407
      19A     -0.528851    20A     -0.519336    21A     -0.507073
      22A     -0.425952    23A     -0.381416

  @DF-RHF Final Energy:  -268.93239350283085

   => Energetics <=

    Nuclear Repulsion Energy =            210.3893131269805394
    One-Electron Energy =                -780.7534222196842393
    Two-Electron Energy =                 301.4317155898729084
    Total Energy =                       -268.9323935028308483
  Basis Set: (AUG-CC-PVTZ AUX)
    Blend: AUG-CC-PVTZ-RI
    Molecular point group: c1

    Geometry (in Angstrom), charge = 0, multiplicity = 1:

       Center              X                  Y                   Z               Mass
    ------------   -----------------  -----------------  -----------------  -----------------
         O            2.934141294941    -0.068677504115     0.189817753467    15.994914619570
         C           -1.947408705059     0.332894495885     0.349497753467    12.000000000000
         C           -2.833932705059    -0.763815504115    -0.246117246533    12.000000000000
         C           -0.589649705059     0.341690495885    -0.273075246533    12.000000000000
         C            0.588847194941     0.122921095885     0.334194653467    12.000000000000
         C            1.844898294941     0.128817495885    -0.341322246533    12.000000000000
         H           -1.854550705059     0.196910495885     1.432095753467     1.007825032230
         H           -2.423376705059     1.308370495885     0.188667753467     1.007825032230
         H           -2.943242705059    -0.634954504115    -1.326758246533     1.007825032230
         H           -3.832192705059    -0.741083504115     0.199249753467     1.007825032230
         H           -2.399681705059    -1.750219504115    -0.064753246533     1.007825032230
         H           -0.513596205059     0.523098495885    -1.348245546533     1.007825032230
         H            0.599387294941    -0.075798504115     1.445035753467     1.007825032230
         H            1.773582294941     0.328682495885    -1.432444246533     1.007825032230

  Basis Set: AUG-CC-PVTZ
    Blend: AUG-CC-PVTZ
  Basis Set: (AUG-CC-PVTZ AUX)
    Blend: AUG-CC-PVTZ-JKFIT
	 Reference Energy          =    -268.9323935028308483 [Eh]
	 Singles Energy            =      -0.0000000000000000 [Eh]
	 Same-Spin Energy          =      -0.2699384995409397 [Eh]
	 Opposite-Spin Energy      =      -0.9144837967706694 [Eh]
	 Correlation Energy        =      -1.1844222963116091 [Eh]
	 Total Energy              =    -270.1168157991424437 [Eh]

	 ================> DF-SCS-MP2 Energies <==================
	-----------------------------------------------------------
	 SCS Same-Spin Scale       =       0.3333333333333333 [-]
	 SCS Opposite-Spin Scale   =       1.2000000000000000 [-]
	 SCS Same-Spin Energy      =      -0.0899794998469799 [Eh]
	 SCS Opposite-Spin Energy  =      -1.0973805561248031 [Eh]
	 SCS Correlation Energy    =      -1.1873600559717830 [Eh]
	 SCS Total Energy          =    -270.1197535588026426 [Eh]
	-----------------------------------------------------------

  Dipole Moment: [D]
     X:    -4.0774      Y:     0.4062      Z:    -0.7607     Total:     4.1676

*** Psi4 exiting successfully. Buy a developer a beer!
