                               Psi4 1.3.2 release

  ==> Input File <==

--------------------------------------------------------------------------
#psi4
#
memory 32 gb

molecule  {
0 1
  O        2.9378530    -0.0680150     0.1840270
  C       -1.9436970     0.3335570     0.3437070
  C       -2.8302210    -0.7631530    -0.2519080
  C       -0.5859380     0.3423530    -0.2788660
  C        0.5697440     0.1186190     0.3690800
  C        1.8486100     0.1294800    -0.3471130
  H       -1.8508390     0.1975730     1.4263050
  H       -2.4196650     1.3090330     0.1828770
  H       -2.9395310    -0.6342920    -1.3325490
  H       -3.8284810    -0.7404210     0.1934590
  H       -2.3959700    -1.7495570    -0.0705440
  H       -0.5443293     0.5445602    -1.4538844
  H        0.6030990    -0.0751360     1.4392450
  H        1.7772940     0.3293450    -1.4382350
units angstrom
no_reorient  #important for SAPT in psi4, default
symmetry c1  #important for SAPT in psi4, default
}

set PROPERTIES_ORIGIN ["COM"]
properties('MP2/aug-cc-pvtz', properties = ['dipole'])
--------------------------------------------------------------------------

    Molecular point group: c1
  Charge       = 0
  Multiplicity = 1
  Basis Set: AUG-CC-PVTZ
    Blend: AUG-CC-PVTZ
  Basis Set: (AUG-CC-PVTZ AUX)
    Blend: AUG-CC-PVTZ-JKFIT

    Orbital Energies [Eh]
    ---------------------

    Doubly Occupied:

       1A    -20.549092     2A    -11.331657     3A    -11.285505
       4A    -11.251776     5A    -11.245997     6A    -11.235796
       7A     -1.373198     8A     -1.114842     9A     -1.032377
      10A     -0.904912    11A     -0.815990    12A     -0.772505
      13A     -0.674346    14A     -0.649439    15A     -0.616355
      16A     -0.605820    17A     -0.551877    18A     -0.547311
      19A     -0.526846    20A     -0.516299    21A     -0.503369
      22A     -0.424204    23A     -0.381636

  @DF-RHF Final Energy:  -268.92893785703950

   => Energetics <=

    Nuclear Repulsion Energy =            209.6575984068351488
    One-Electron Energy =                -779.3507723070056272
    Two-Electron Energy =                 300.7642360431309498
    Total Energy =                       -268.9289378570395002
  Basis Set: (AUG-CC-PVTZ AUX)
    Blend: AUG-CC-PVTZ-RI
    Molecular point group: c1

    Geometry (in Angstrom), charge = 0, multiplicity = 1:

       Center              X                  Y                   Z               Mass
    ------------   -----------------  -----------------  -----------------  -----------------
         O            2.937811319354    -0.068218137149     0.185208007557    15.994914619570
         C           -1.943738680646     0.333353862851     0.344888007557    12.000000000000
         C           -2.830262680646    -0.763356137149    -0.250726992443    12.000000000000
         C           -0.585979680646     0.342149862851    -0.277684992443    12.000000000000
         C            0.569702319354     0.118415862851     0.370261007557    12.000000000000
         C            1.848568319354     0.129276862851    -0.345931992443    12.000000000000
         H           -1.850880680646     0.197369862851     1.427486007557     1.007825032230
         H           -2.419706680646     1.308829862851     0.184058007557     1.007825032230
         H           -2.939572680646    -0.634495137149    -1.331367992443     1.007825032230
         H           -3.828522680646    -0.740624137149     0.194640007557     1.007825032230
         H           -2.396011680646    -1.749760137149    -0.069362992443     1.007825032230
         H           -0.544370980646     0.544357062851    -1.452703392443     1.007825032230
         H            0.603057319354    -0.075339137149     1.440426007557     1.007825032230
         H            1.777252319354     0.329141862851    -1.437053992443     1.007825032230

  Basis Set: AUG-CC-PVTZ
    Blend: AUG-CC-PVTZ
  Basis Set: (AUG-CC-PVTZ AUX)
    Blend: AUG-CC-PVTZ-JKFIT
	 Reference Energy          =    -268.9289378570395002 [Eh]
	 Singles Energy            =      -0.0000000000000000 [Eh]
	 Same-Spin Energy          =      -0.2696918316021376 [Eh]
	 Opposite-Spin Energy      =      -0.9148037863077665 [Eh]
	 Correlation Energy        =      -1.1844956179099042 [Eh]
	 Total Energy              =    -270.1134334749494315 [Eh]

	 ================> DF-SCS-MP2 Energies <==================
	-----------------------------------------------------------
	 SCS Same-Spin Scale       =       0.3333333333333333 [-]
	 SCS Opposite-Spin Scale   =       1.2000000000000000 [-]
	 SCS Same-Spin Energy      =      -0.0898972772007125 [Eh]
	 SCS Opposite-Spin Energy  =      -1.0977645435693197 [Eh]
	 SCS Correlation Energy    =      -1.1876618207700322 [Eh]
	 SCS Total Energy          =    -270.1165996778095177 [Eh]
	-----------------------------------------------------------

  Dipole Moment: [D]
     X:    -3.9572      Y:     0.3980      Z:    -0.7224     Total:     4.0423

*** Psi4 exiting successfully. Buy a developer a beer!
