                               Psi4 1.4a3.dev225

  ==> Input File <==

--------------------------------------------------------------------------
#psi4
#
memory 32 gb

molecule  {
0 1
  O        3.0568210     0.0670890     0.3064100
  C       -1.7873110     0.5014740    -0.3308760
  C       -2.7589810    -0.3710180     0.4711220
  C       -0.4385240    -0.1343210    -0.4437030
  C        0.7079740     0.3780980     0.0389610
  C        1.9945230    -0.3380301    -0.1025909
  H       -1.6911510     1.4872370     0.1370160
  H       -2.1942130     0.6629350    -1.3374030
  H       -2.8765390    -1.3546870     0.0071490
  H       -3.7457810     0.0968040     0.5260030
  H       -2.3920550    -0.5186010     1.4901810
  H       -0.4015900    -1.1050250    -0.9450900
  H        0.7410060     1.3377710     0.5508970
  H        1.9051690    -1.3201300    -0.6368870
units angstrom
no_reorient  #important for SAPT in psi4, default
symmetry c1  #important for SAPT in psi4, default
}

set PROPERTIES_ORIGIN ["COM"]
properties('MP2/aug-cc-pvtz', properties = ['dipole'])
--------------------------------------------------------------------------

    Molecular point group: c1
  Charge       = 0
  Multiplicity = 1
  Basis Set: AUG-CC-PVTZ
    Blend: AUG-CC-PVTZ
  Basis Set: (AUG-CC-PVTZ AUX)
    Blend: AUG-CC-PVTZ-JKFIT

    Orbital Energies [Eh]
    ---------------------

    Doubly Occupied:

       1A    -20.551095     2A    -11.331525     3A    -11.273199
       4A    -11.249994     5A    -11.244907     6A    -11.235105
       7A     -1.387341     8A     -1.114084     9A     -1.029291
      10A     -0.903624    11A     -0.815783    12A     -0.779523
      13A     -0.678904    14A     -0.651631    15A     -0.616042
      16A     -0.609671    17A     -0.557511    18A     -0.547738
      19A     -0.532631    20A     -0.516575    21A     -0.506031
      22A     -0.421665    23A     -0.380799

  @DF-RHF Final Energy:  -268.93743281294940

   => Energetics <=

    Nuclear Repulsion Energy =            209.9891176668885748
    One-Electron Energy =                -779.9837620767630142
    Two-Electron Energy =                 301.0572115969250717
    Total Energy =                       -268.9374328129493961
  Basis Set: (AUG-CC-PVTZ AUX)
    Blend: AUG-CC-PVTZ-RI
    Molecular point group: c1

    Geometry (in Angstrom), charge = 0, multiplicity = 1:

       Center              X                  Y                   Z               Mass
    ------------   -----------------  -----------------  -----------------  -----------------
         O            2.928727372743     0.057711647673     0.303005232042    15.994914619570
         C           -1.915404627257     0.492096647673    -0.334280767958    12.000000000000
         C           -2.887074627257    -0.380395352327     0.467717232042    12.000000000000
         C           -0.566617627257    -0.143698352327    -0.447107767958    12.000000000000
         C            0.579880372743     0.368720647673     0.035556232042    12.000000000000
         C            1.866429372743    -0.347407452327    -0.105995667958    12.000000000000
         H           -1.819244627257     1.477859647673     0.133611232042     1.007825032230
         H           -2.322306627257     0.653557647673    -1.340807767958     1.007825032230
         H           -3.004632627257    -1.364064352327     0.003744232042     1.007825032230
         H           -3.873874627257     0.087426647673     0.522598232042     1.007825032230
         H           -2.520148627257    -0.527978352327     1.486776232042     1.007825032230
         H           -0.529683627257    -1.114402352327    -0.948494767958     1.007825032230
         H            0.612912372743     1.328393647673     0.547492232042     1.007825032230
         H            1.777075372743    -1.329507352327    -0.640291767958     1.007825032230

  Basis Set: AUG-CC-PVTZ
    Blend: AUG-CC-PVTZ
  Basis Set: (AUG-CC-PVTZ AUX)
    Blend: AUG-CC-PVTZ-JKFIT
	 Reference Energy          =    -268.9374328129493961 [Eh]
	 Singles Energy            =      -0.0000000000000000 [Eh]
	 Same-Spin Energy          =      -0.2688207302259401 [Eh]
	 Opposite-Spin Energy      =      -0.9127497040804856 [Eh]
	 Correlation Energy        =      -1.1815704343064257 [Eh]
	 Total Energy              =    -270.1190032472558187 [Eh]

	 ================> DF-SCS-MP2 Energies <==================
	-----------------------------------------------------------
	 SCS Same-Spin Scale       =       0.3333333333333333 [-]
	 SCS Opposite-Spin Scale   =       1.2000000000000000 [-]
	 SCS Same-Spin Energy      =      -0.0896069100753134 [Eh]
	 SCS Opposite-Spin Energy  =      -1.0952996448965826 [Eh]
	 SCS Correlation Energy    =      -1.1849065549718960 [Eh]
	 SCS Total Energy          =    -270.1223393679213132 [Eh]
	-----------------------------------------------------------

  Dipole Moment: [D]
     X:    -3.7964      Y:    -0.4572      Z:    -0.8324     Total:     3.9134

*** Psi4 exiting successfully. Buy a developer a beer!
