                               Psi4 1.3.2 release

  ==> Input File <==

--------------------------------------------------------------------------
#psi4
#
memory 32 gb

molecule  {
0 1
  O        2.9378530    -0.0680150     0.1840270
  C       -1.9541918     0.3384115     0.3203418
  C       -2.8302210    -0.7631530    -0.2519080
  C       -0.5859380     0.3423530    -0.2788660
  C        0.5697440     0.1186190     0.3690800
  C        1.8486100     0.1294800    -0.3471130
  H       -1.8508390     0.1975730     1.4263050
  H       -2.4196650     1.3090330     0.1828770
  H       -2.9395310    -0.6342920    -1.3325490
  H       -3.8284810    -0.7404210     0.1934590
  H       -2.3959700    -1.7495570    -0.0705440
  H       -0.5668370     0.5290560    -1.3556488
  H        0.6030990    -0.0751360     1.4392450
  H        1.7772940     0.3293450    -1.4382350
units angstrom
no_reorient  #important for SAPT in psi4, default
symmetry c1  #important for SAPT in psi4, default
}

set PROPERTIES_ORIGIN ["COM"]
properties('MP2/aug-cc-pvtz', properties = ['dipole'])
--------------------------------------------------------------------------

    Molecular point group: c1
  Charge       = 0
  Multiplicity = 1
  Basis Set: AUG-CC-PVTZ
    Blend: AUG-CC-PVTZ
  Basis Set: (AUG-CC-PVTZ AUX)
    Blend: AUG-CC-PVTZ-JKFIT

    Orbital Energies [Eh]
    ---------------------

    Doubly Occupied:

       1A    -20.549339     2A    -11.331923     3A    -11.274637
       4A    -11.250671     5A    -11.245996     6A    -11.235281
       7A     -1.373386     8A     -1.117149     9A     -1.033771
      10A     -0.906473    11A     -0.816952    12A     -0.781270
      13A     -0.679791    14A     -0.650387    15A     -0.616695
      16A     -0.606599    17A     -0.559376    18A     -0.550478
      19A     -0.527546    20A     -0.517603    21A     -0.499149
      22A     -0.424376    23A     -0.381990

  @DF-RHF Final Energy:  -268.93499521237260

   => Energetics <=

    Nuclear Repulsion Energy =            210.1025727931851748
    One-Electron Energy =                -780.2134586063152710
    Two-Electron Energy =                 301.1758906007575547
    Total Energy =                       -268.9349952123725984
  Basis Set: (AUG-CC-PVTZ AUX)
    Blend: AUG-CC-PVTZ-RI
    Molecular point group: c1

    Geometry (in Angstrom), charge = 0, multiplicity = 1:

       Center              X                  Y                   Z               Mass
    ------------   -----------------  -----------------  -----------------  -----------------
         O            2.939579411400    -0.068725271808     0.187365793254    15.994914619570
         C           -1.952465388600     0.337701228192     0.323680593254    12.000000000000
         C           -2.828494588600    -0.763863271808    -0.248569206746    12.000000000000
         C           -0.584211588600     0.341642728192    -0.275527206746    12.000000000000
         C            0.571470411400     0.117908728192     0.372418793254    12.000000000000
         C            1.850336411400     0.128769728192    -0.343774206746    12.000000000000
         H           -1.849112588600     0.196862728192     1.429643793254     1.007825032230
         H           -2.417938588600     1.308322728192     0.186215793254     1.007825032230
         H           -2.937804588600    -0.635002271808    -1.329210206746     1.007825032230
         H           -3.826754588600    -0.741131271808     0.196797793254     1.007825032230
         H           -2.394243588600    -1.750267271808    -0.067205206746     1.007825032230
         H           -0.565110588600     0.528345728192    -1.352310006746     1.007825032230
         H            0.604825411400    -0.075846271808     1.442583793254     1.007825032230
         H            1.779020411400     0.328634728192    -1.434896206746     1.007825032230

  Basis Set: AUG-CC-PVTZ
    Blend: AUG-CC-PVTZ
  Basis Set: (AUG-CC-PVTZ AUX)
    Blend: AUG-CC-PVTZ-JKFIT
	 Reference Energy          =    -268.9349952123725984 [Eh]
	 Singles Energy            =      -0.0000000000000000 [Eh]
	 Same-Spin Energy          =      -0.2694669660215735 [Eh]
	 Opposite-Spin Energy      =      -0.9140438737160561 [Eh]
	 Correlation Energy        =      -1.1835108397376297 [Eh]
	 Total Energy              =    -270.1185060521102059 [Eh]

	 ================> DF-SCS-MP2 Energies <==================
	-----------------------------------------------------------
	 SCS Same-Spin Scale       =       0.3333333333333333 [-]
	 SCS Opposite-Spin Scale   =       1.2000000000000000 [-]
	 SCS Same-Spin Energy      =      -0.0898223220071912 [Eh]
	 SCS Opposite-Spin Energy  =      -1.0968526484592673 [Eh]
	 SCS Correlation Energy    =      -1.1866749704664585 [Eh]
	 SCS Total Energy          =    -270.1216701828390683 [Eh]
	-----------------------------------------------------------

  Dipole Moment: [D]
     X:    -3.9389      Y:     0.4086      Z:    -0.7835     Total:     4.0368

*** Psi4 exiting successfully. Buy a developer a beer!
