                               Psi4 1.4a3.dev225

  ==> Input File <==

--------------------------------------------------------------------------
#psi4
#
memory 32 gb

molecule  {
0 1
  O        3.0568210     0.0670890     0.3064100
  C       -1.7873110     0.5014740    -0.3308760
  C       -2.7589810    -0.3710180     0.4711220
  C       -0.4385240    -0.1343210    -0.4437030
  C        0.7505833     0.3971419     0.0568991
  C        1.9769390    -0.3447360    -0.1093610
  H       -1.6911510     1.4872370     0.1370160
  H       -2.1942130     0.6629350    -1.3374030
  H       -2.8765390    -1.3546870     0.0071490
  H       -3.7457810     0.0968040     0.5260030
  H       -2.3920550    -0.5186010     1.4901810
  H       -0.4015900    -1.1050250    -0.9450900
  H        0.7410060     1.3377710     0.5508970
  H        1.9051690    -1.3201300    -0.6368870
units angstrom
no_reorient  #important for SAPT in psi4, default
symmetry c1  #important for SAPT in psi4, default
}

set PROPERTIES_ORIGIN ["COM"]
properties('MP2/aug-cc-pvtz', properties = ['dipole'])
--------------------------------------------------------------------------

    Molecular point group: c1
  Charge       = 0
  Multiplicity = 1
  Basis Set: AUG-CC-PVTZ
    Blend: AUG-CC-PVTZ
  Basis Set: (AUG-CC-PVTZ AUX)
    Blend: AUG-CC-PVTZ-JKFIT

    Orbital Energies [Eh]
    ---------------------

    Doubly Occupied:

       1A    -20.543975     2A    -11.327892     3A    -11.284767
       4A    -11.252920     5A    -11.247481     6A    -11.237447
       7A     -1.370323     8A     -1.111199     9A     -1.031073
      10A     -0.908572    11A     -0.814530    12A     -0.786274
      13A     -0.678575    14A     -0.647655    15A     -0.620403
      16A     -0.603007    17A     -0.561629    18A     -0.546413
      19A     -0.525820    20A     -0.518604    21A     -0.508450
      22A     -0.423883    23A     -0.370098

  @DF-RHF Final Energy:  -268.93038611097489

   => Energetics <=

    Nuclear Repulsion Energy =            209.5865372934674156
    One-Electron Energy =                -779.1918665518829812
    Two-Electron Energy =                 300.6749431474407288
    Total Energy =                       -268.9303861109748937
  Basis Set: (AUG-CC-PVTZ AUX)
    Blend: AUG-CC-PVTZ-RI
    Molecular point group: c1

    Geometry (in Angstrom), charge = 0, multiplicity = 1:

       Center              X                  Y                   Z               Mass
    ------------   -----------------  -----------------  -----------------  -----------------
         O            2.925154776046     0.055950282253     0.301410895114    15.994914619570
         C           -1.918977223954     0.490335282253    -0.335875104886    12.000000000000
         C           -2.890647223954    -0.382156717747     0.466122895114    12.000000000000
         C           -0.570190223954    -0.145459717747    -0.448702104886    12.000000000000
         C            0.618917076046     0.386003182253     0.051899995114    12.000000000000
         C            1.845272776046    -0.355874717747    -0.114360104886    12.000000000000
         H           -1.822817223954     1.476098282253     0.132016895114     1.007825032230
         H           -2.325879223954     0.651796282253    -1.342402104886     1.007825032230
         H           -3.008205223954    -1.365825717747     0.002149895114     1.007825032230
         H           -3.877447223954     0.085665282253     0.521003895114     1.007825032230
         H           -2.523721223954    -0.529739717747     1.485181895114     1.007825032230
         H           -0.533256223954    -1.116163717747    -0.950089104886     1.007825032230
         H            0.609339776046     1.326632282253     0.545897895114     1.007825032230
         H            1.773502776046    -1.331268717747    -0.641886104886     1.007825032230

  Basis Set: AUG-CC-PVTZ
    Blend: AUG-CC-PVTZ
  Basis Set: (AUG-CC-PVTZ AUX)
    Blend: AUG-CC-PVTZ-JKFIT
	 Reference Energy          =    -268.9303861109748937 [Eh]
	 Singles Energy            =      -0.0000000000000000 [Eh]
	 Same-Spin Energy          =      -0.2700254755847039 [Eh]
	 Opposite-Spin Energy      =      -0.9151246254884127 [Eh]
	 Correlation Energy        =      -1.1851501010731165 [Eh]
	 Total Energy              =    -270.1155362120480277 [Eh]

	 ================> DF-SCS-MP2 Energies <==================
	-----------------------------------------------------------
	 SCS Same-Spin Scale       =       0.3333333333333333 [-]
	 SCS Opposite-Spin Scale   =       1.2000000000000000 [-]
	 SCS Same-Spin Energy      =      -0.0900084918615680 [Eh]
	 SCS Opposite-Spin Energy  =      -1.0981495505860952 [Eh]
	 SCS Correlation Energy    =      -1.1881580424476632 [Eh]
	 SCS Total Energy          =    -270.1185441534225333 [Eh]
	-----------------------------------------------------------

  Dipole Moment: [D]
     X:    -4.0376      Y:    -0.4647      Z:    -0.8713     Total:     4.1566

*** Psi4 exiting successfully. Buy a developer a beer!
