                               Psi4 1.3.2 release

  ==> Input File <==

--------------------------------------------------------------------------
#psi4
#
memory 32 gb

molecule  {
0 1
  O        2.9378530    -0.0680150     0.1840270
  C       -1.9541459     0.3389953     0.3204501
  C       -2.8302210    -0.7631530    -0.2519080
  C       -0.5859380     0.3423530    -0.2788660
  C        0.5813770     0.1216015     0.3489368
  C        1.8486100     0.1294800    -0.3471130
  H       -1.8508390     0.1975730     1.4263050
  H       -2.4196650     1.3090330     0.1828770
  H       -2.9395310    -0.6342920    -1.3325490
  H       -3.8284810    -0.7404210     0.1934590
  H       -2.3959700    -1.7495570    -0.0705440
  H       -0.5478170     0.5276110    -1.3553930
  H        0.6030990    -0.0751360     1.4392450
  H        1.7772940     0.3293450    -1.4382350
units angstrom
no_reorient  #important for SAPT in psi4, default
symmetry c1  #important for SAPT in psi4, default
}

set PROPERTIES_ORIGIN ["COM"]
properties('MP2/aug-cc-pvtz', properties = ['dipole'])
--------------------------------------------------------------------------

    Molecular point group: c1
  Charge       = 0
  Multiplicity = 1
  Basis Set: AUG-CC-PVTZ
    Blend: AUG-CC-PVTZ
  Basis Set: (AUG-CC-PVTZ AUX)
    Blend: AUG-CC-PVTZ-JKFIT

    Orbital Energies [Eh]
    ---------------------

    Doubly Occupied:

       1A    -20.548770     2A    -11.330374     3A    -11.275946
       4A    -11.252338     5A    -11.245892     6A    -11.236118
       7A     -1.373182     8A     -1.118203     9A     -1.036227
      10A     -0.909086    11A     -0.819717    12A     -0.778328
      13A     -0.680362    14A     -0.651178    15A     -0.617685
      16A     -0.605789    17A     -0.554714    18A     -0.550799
      19A     -0.528534    20A     -0.519104    21A     -0.499577
      22A     -0.425454    23A     -0.382159

  @DF-RHF Final Energy:  -268.93405640627748

   => Energetics <=

    Nuclear Repulsion Energy =            210.2518425816811600
    One-Electron Energy =                -780.4927296140365343
    Two-Electron Energy =                 301.3068306260779536
    Total Energy =                       -268.9340564062774774
  Basis Set: (AUG-CC-PVTZ AUX)
    Blend: AUG-CC-PVTZ-RI
    Molecular point group: c1

    Geometry (in Angstrom), charge = 0, multiplicity = 1:

       Center              X                  Y                   Z               Mass
    ------------   -----------------  -----------------  -----------------  -----------------
         O            2.937684094457    -0.069217069512     0.190222896497    15.994914619570
         C           -1.954314805543     0.337793230488     0.326645996497    12.000000000000
         C           -2.830389905543    -0.764355069512    -0.245712103503    12.000000000000
         C           -0.586106905543     0.341150930488    -0.272670103503    12.000000000000
         C            0.581208094457     0.120399430488     0.355132696497    12.000000000000
         C            1.848441094457     0.128277930488    -0.340917103503    12.000000000000
         H           -1.851007905543     0.196370930488     1.432500896497     1.007825032230
         H           -2.419833905543     1.307830930488     0.189072896497     1.007825032230
         H           -2.939699905543    -0.635494069512    -1.326353103503     1.007825032230
         H           -3.828649905543    -0.741623069512     0.199654896497     1.007825032230
         H           -2.396138905543    -1.750759069512    -0.064348103503     1.007825032230
         H           -0.547985905543     0.526408930488    -1.349197103503     1.007825032230
         H            0.602930094457    -0.076338069512     1.445440896497     1.007825032230
         H            1.777125094457     0.328142930488    -1.432039103503     1.007825032230

  Basis Set: AUG-CC-PVTZ
    Blend: AUG-CC-PVTZ
  Basis Set: (AUG-CC-PVTZ AUX)
    Blend: AUG-CC-PVTZ-JKFIT
	 Reference Energy          =    -268.9340564062774774 [Eh]
	 Singles Energy            =      -0.0000000000000000 [Eh]
	 Same-Spin Energy          =      -0.2696945504455809 [Eh]
	 Opposite-Spin Energy      =      -0.9142770316972604 [Eh]
	 Correlation Energy        =      -1.1839715821428414 [Eh]
	 Total Energy              =    -270.1180279884202946 [Eh]

	 ================> DF-SCS-MP2 Energies <==================
	-----------------------------------------------------------
	 SCS Same-Spin Scale       =       0.3333333333333333 [-]
	 SCS Opposite-Spin Scale   =       1.2000000000000000 [-]
	 SCS Same-Spin Energy      =      -0.0898981834818603 [Eh]
	 SCS Opposite-Spin Energy  =      -1.0971324380367125 [Eh]
	 SCS Correlation Energy    =      -1.1870306215185729 [Eh]
	 SCS Total Energy          =    -270.1210870277960225 [Eh]
	-----------------------------------------------------------

  Dipole Moment: [D]
     X:    -4.0029      Y:     0.4086      Z:    -0.7784     Total:     4.0983

*** Psi4 exiting successfully. Buy a developer a beer!
