                               Psi4 1.3.2 release

  ==> Input File <==

--------------------------------------------------------------------------
#psi4
#
memory 32 gb

molecule  {
0 1
  O        2.9378530    -0.0680150     0.1840270
  C       -1.9436970     0.3335570     0.3437070
  C       -2.7897056    -0.7773162    -0.2837363
  C       -0.6004583     0.3022964    -0.3089158
  C        0.5697440     0.1186190     0.3690800
  C        1.8486100     0.1294800    -0.3471130
  H       -1.8508390     0.1975730     1.4263050
  H       -2.4196650     1.3090330     0.1828770
  H       -2.9395310    -0.6342920    -1.3325490
  H       -3.8284810    -0.7404210     0.1934590
  H       -2.3959700    -1.7495570    -0.0705440
  H       -0.5478170     0.5276110    -1.3553930
  H        0.6030990    -0.0751360     1.4392450
  H        1.7772940     0.3293450    -1.4382350
units angstrom
no_reorient  #important for SAPT in psi4, default
symmetry c1  #important for SAPT in psi4, default
}

set PROPERTIES_ORIGIN ["COM"]
properties('MP2/aug-cc-pvtz', properties = ['dipole'])
--------------------------------------------------------------------------

    Molecular point group: c1
  Charge       = 0
  Multiplicity = 1
  Basis Set: AUG-CC-PVTZ
    Blend: AUG-CC-PVTZ
  Basis Set: (AUG-CC-PVTZ AUX)
    Blend: AUG-CC-PVTZ-JKFIT

    Orbital Energies [Eh]
    ---------------------

    Doubly Occupied:

       1A    -20.547500     2A    -11.330427     3A    -11.275854
       4A    -11.251418     5A    -11.247042     6A    -11.235759
       7A     -1.371843     8A     -1.115918     9A     -1.030297
      10A     -0.904707    11A     -0.817916    12A     -0.784088
      13A     -0.679848    14A     -0.648422    15A     -0.621335
      16A     -0.602342    17A     -0.560993    18A     -0.548457
      19A     -0.525782    20A     -0.516379    21A     -0.506672
      22A     -0.422429    23A     -0.375648

  @DF-RHF Final Energy:  -268.93026161247269

   => Energetics <=

    Nuclear Repulsion Energy =            210.1559257651193775
    One-Electron Energy =                -780.3302214743316654
    Two-Electron Energy =                 301.2440340967395969
    Total Energy =                       -268.9302616124726910
  Basis Set: (AUG-CC-PVTZ AUX)
    Blend: AUG-CC-PVTZ-RI
    Molecular point group: c1

    Geometry (in Angstrom), charge = 0, multiplicity = 1:

       Center              X                  Y                   Z               Mass
    ------------   -----------------  -----------------  -----------------  -----------------
         O            2.934142091099    -0.060274535331     0.192860804604    15.994914619570
         C           -1.947407908901     0.341297464669     0.352540804604    12.000000000000
         C           -2.793416508901    -0.769575735331    -0.274902495396    12.000000000000
         C           -0.604169208901     0.310036864669    -0.300081995396    12.000000000000
         C            0.566033091099     0.126359464669     0.377913804604    12.000000000000
         C            1.844899091099     0.137220464669    -0.338279195396    12.000000000000
         H           -1.854549908901     0.205313464669     1.435138804604     1.007825032230
         H           -2.423375908901     1.316773464669     0.191710804604     1.007825032230
         H           -2.943241908901    -0.626551535331    -1.323715195396     1.007825032230
         H           -3.832191908901    -0.732680535331     0.202292804604     1.007825032230
         H           -2.399680908901    -1.741816535331    -0.061710195396     1.007825032230
         H           -0.551527908901     0.535351464669    -1.346559195396     1.007825032230
         H            0.599388091099    -0.067395535331     1.448078804604     1.007825032230
         H            1.773583091099     0.337085464669    -1.429401195396     1.007825032230

  Basis Set: AUG-CC-PVTZ
    Blend: AUG-CC-PVTZ
  Basis Set: (AUG-CC-PVTZ AUX)
    Blend: AUG-CC-PVTZ-JKFIT
	 Reference Energy          =    -268.9302616124726910 [Eh]
	 Singles Energy            =      -0.0000000000000000 [Eh]
	 Same-Spin Energy          =      -0.2697899531769397 [Eh]
	 Opposite-Spin Energy      =      -0.9146930933783229 [Eh]
	 Correlation Energy        =      -1.1844830465552625 [Eh]
	 Total Energy              =    -270.1147446590279628 [Eh]

	 ================> DF-SCS-MP2 Energies <==================
	-----------------------------------------------------------
	 SCS Same-Spin Scale       =       0.3333333333333333 [-]
	 SCS Opposite-Spin Scale   =       1.2000000000000000 [-]
	 SCS Same-Spin Energy      =      -0.0899299843923132 [Eh]
	 SCS Opposite-Spin Energy  =      -1.0976317120539876 [Eh]
	 SCS Correlation Energy    =      -1.1875616964463007 [Eh]
	 SCS Total Energy          =    -270.1178233089190144 [Eh]
	-----------------------------------------------------------

  Dipole Moment: [D]
     X:    -3.9676      Y:     0.4476      Z:    -0.7811     Total:     4.0685

*** Psi4 exiting successfully. Buy a developer a beer!
