                               Psi4 1.4a3.dev225

  ==> Input File <==

--------------------------------------------------------------------------
#psi4
#
memory 32 gb

molecule  {
0 1
  O        3.0568210     0.0670890     0.3064100
  C       -1.7873110     0.5014740    -0.3308760
  C       -2.7589810    -0.3710180     0.4711220
  C       -0.4385240    -0.1343210    -0.4437030
  C        0.7079740     0.3780980     0.0389610
  C        1.9769390    -0.3447360    -0.1093610
  H       -1.6911510     1.4872370     0.1370160
  H       -2.1942130     0.6629350    -1.3374030
  H       -2.8765390    -1.3546870     0.0071490
  H       -3.7457810     0.0968040     0.5260030
  H       -2.3920550    -0.5186010     1.4901810
  H       -0.4015900    -1.1050250    -0.9450900
  H        0.7410060     1.3377710     0.5508970
  H        1.9083983    -1.2762419    -0.6131508
units angstrom
no_reorient  #important for SAPT in psi4, default
symmetry c1  #important for SAPT in psi4, default
}

set PROPERTIES_ORIGIN ["COM"]
properties('MP2/aug-cc-pvtz', properties = ['dipole'])
--------------------------------------------------------------------------

    Molecular point group: c1
  Charge       = 0
  Multiplicity = 1
  Basis Set: AUG-CC-PVTZ
    Blend: AUG-CC-PVTZ
  Basis Set: (AUG-CC-PVTZ AUX)
    Blend: AUG-CC-PVTZ-JKFIT

    Orbital Energies [Eh]
    ---------------------

    Doubly Occupied:

       1A    -20.548048     2A    -11.326049     3A    -11.274493
       4A    -11.250666     5A    -11.244798     6A    -11.235755
       7A     -1.372240     8A     -1.115905     9A     -1.031810
      10A     -0.906896    11A     -0.821709    12A     -0.786141
      13A     -0.682341    14A     -0.648455    15A     -0.616548
      16A     -0.607606    17A     -0.558473    18A     -0.546497
      19A     -0.525753    20A     -0.516680    21A     -0.506810
      22A     -0.425661    23A     -0.380214

  @DF-RHF Final Energy:  -268.93556584323755

   => Energetics <=

    Nuclear Repulsion Energy =            210.1072744439948394
    One-Electron Energy =                -780.2265876640923352
    Two-Electron Energy =                 301.1837473768599693
    Total Energy =                       -268.9355658432375549
  Basis Set: (AUG-CC-PVTZ AUX)
    Blend: AUG-CC-PVTZ-RI
    Molecular point group: c1

    Geometry (in Angstrom), charge = 0, multiplicity = 1:

       Center              X                  Y                   Z               Mass
    ------------   -----------------  -----------------  -----------------  -----------------
         O            2.931198935588     0.058142772413     0.303687137325    15.994914619570
         C           -1.912933064412     0.492527772413    -0.333598862675    12.000000000000
         C           -2.884603064412    -0.379964227587     0.468399137325    12.000000000000
         C           -0.564146064412    -0.143267227587    -0.446425862675    12.000000000000
         C            0.582351935588     0.369151772413     0.036238137325    12.000000000000
         C            1.851316935588    -0.353682227587    -0.112083862675    12.000000000000
         H           -1.816773064412     1.478290772413     0.134293137325     1.007825032230
         H           -2.319835064412     0.653988772413    -1.340125862675     1.007825032230
         H           -3.002161064412    -1.363633227587     0.004426137325     1.007825032230
         H           -3.871403064412     0.087857772413     0.523280137325     1.007825032230
         H           -2.517677064412    -0.527547227587     1.487458137325     1.007825032230
         H           -0.527212064412    -1.113971227587    -0.947812862675     1.007825032230
         H            0.615383935588     1.328824772413     0.548174137325     1.007825032230
         H            1.782776235588    -1.285188127587    -0.615873662675     1.007825032230

  Basis Set: AUG-CC-PVTZ
    Blend: AUG-CC-PVTZ
  Basis Set: (AUG-CC-PVTZ AUX)
    Blend: AUG-CC-PVTZ-JKFIT
	 Reference Energy          =    -268.9355658432375549 [Eh]
	 Singles Energy            =      -0.0000000000000000 [Eh]
	 Same-Spin Energy          =      -0.2691827815356444 [Eh]
	 Opposite-Spin Energy      =      -0.9135901440242984 [Eh]
	 Correlation Energy        =      -1.1827729255599428 [Eh]
	 Total Energy              =    -270.1183387687975141 [Eh]

	 ================> DF-SCS-MP2 Energies <==================
	-----------------------------------------------------------
	 SCS Same-Spin Scale       =       0.3333333333333333 [-]
	 SCS Opposite-Spin Scale   =       1.2000000000000000 [-]
	 SCS Same-Spin Energy      =      -0.0897275938452148 [Eh]
	 SCS Opposite-Spin Energy  =      -1.0963081728291579 [Eh]
	 SCS Correlation Energy    =      -1.1860357666743728 [Eh]
	 SCS Total Energy          =    -270.1216016099119201 [Eh]
	-----------------------------------------------------------

  Dipole Moment: [D]
     X:    -3.9162      Y:    -0.5300      Z:    -0.8913     Total:     4.0512

*** Psi4 exiting successfully. Buy a developer a beer!
