                               Psi4 1.3.2 release

  ==> Input File <==

--------------------------------------------------------------------------
#psi4
#
memory 32 gb

molecule  {
0 1
  O        2.9378530    -0.0680150     0.1840270
  C       -1.9436970     0.3335570     0.3437070
  C       -2.8302210    -0.7631530    -0.2519080
  C       -0.5800073     0.3436143    -0.2889025
  C        0.5697440     0.1186190     0.3690800
  C        1.8424192     0.1320185    -0.3580148
  H       -1.8508390     0.1975730     1.4263050
  H       -2.4196650     1.3090330     0.1828770
  H       -2.9395310    -0.6342920    -1.3325490
  H       -3.8284810    -0.7404210     0.1934590
  H       -2.3959700    -1.7495570    -0.0705440
  H       -0.5478170     0.5276110    -1.3553930
  H        0.6030990    -0.0751360     1.4392450
  H        1.7772940     0.3293450    -1.4382350
units angstrom
no_reorient  #important for SAPT in psi4, default
symmetry c1  #important for SAPT in psi4, default
}

set PROPERTIES_ORIGIN ["COM"]
properties('MP2/aug-cc-pvtz', properties = ['dipole'])
--------------------------------------------------------------------------

    Molecular point group: c1
  Charge       = 0
  Multiplicity = 1
  Basis Set: AUG-CC-PVTZ
    Blend: AUG-CC-PVTZ
  Basis Set: (AUG-CC-PVTZ AUX)
    Blend: AUG-CC-PVTZ-JKFIT

    Orbital Energies [Eh]
    ---------------------

    Doubly Occupied:

       1A    -20.548146     2A    -11.331746     3A    -11.274124
       4A    -11.250910     5A    -11.245779     6A    -11.235542
       7A     -1.365742     8A     -1.116289     9A     -1.032338
      10A     -0.905244    11A     -0.818430    12A     -0.784810
      13A     -0.679998    14A     -0.647124    15A     -0.616366
      16A     -0.604286    17A     -0.561158    18A     -0.545641
      19A     -0.522899    20A     -0.515126    21A     -0.507874
      22A     -0.424908    23A     -0.380786

  @DF-RHF Final Energy:  -268.93475332461861

   => Energetics <=

    Nuclear Repulsion Energy =            209.9022339266090000
    One-Electron Energy =                -779.8434443293558616
    Two-Electron Energy =                 301.0064570781282214
    Total Energy =                       -268.9347533246186117
  Basis Set: (AUG-CC-PVTZ AUX)
    Blend: AUG-CC-PVTZ-RI
    Molecular point group: c1

    Geometry (in Angstrom), charge = 0, multiplicity = 1:

       Center              X                  Y                   Z               Mass
    ------------   -----------------  -----------------  -----------------  -----------------
         O            2.937890267576    -0.068557378346     0.187016263510    15.994914619570
         C           -1.943659732424     0.333014621654     0.346696263510    12.000000000000
         C           -2.830183732424    -0.763695378346    -0.248918736490    12.000000000000
         C           -0.579970032424     0.343071921654    -0.285913236490    12.000000000000
         C            0.569781267576     0.118076621654     0.372069263510    12.000000000000
         C            1.842456467576     0.131476121654    -0.355025536490    12.000000000000
         H           -1.850801732424     0.197030621654     1.429294263510     1.007825032230
         H           -2.419627732424     1.308490621654     0.185866263510     1.007825032230
         H           -2.939493732424    -0.634834378346    -1.329559736490     1.007825032230
         H           -3.828443732424    -0.740963378346     0.196448263510     1.007825032230
         H           -2.395932732424    -1.750099378346    -0.067554736490     1.007825032230
         H           -0.547779732424     0.527068621654    -1.352403736490     1.007825032230
         H            0.603136267576    -0.075678378346     1.442234263510     1.007825032230
         H            1.777331267576     0.328802621654    -1.435245736490     1.007825032230

  Basis Set: AUG-CC-PVTZ
    Blend: AUG-CC-PVTZ
  Basis Set: (AUG-CC-PVTZ AUX)
    Blend: AUG-CC-PVTZ-JKFIT
	 Reference Energy          =    -268.9347533246186117 [Eh]
	 Singles Energy            =      -0.0000000000000000 [Eh]
	 Same-Spin Energy          =      -0.2695581437237162 [Eh]
	 Opposite-Spin Energy      =      -0.9144101332829970 [Eh]
	 Correlation Energy        =      -1.1839682770067133 [Eh]
	 Total Energy              =    -270.1187216016253387 [Eh]

	 ================> DF-SCS-MP2 Energies <==================
	-----------------------------------------------------------
	 SCS Same-Spin Scale       =       0.3333333333333333 [-]
	 SCS Opposite-Spin Scale   =       1.2000000000000000 [-]
	 SCS Same-Spin Energy      =      -0.0898527145745721 [Eh]
	 SCS Opposite-Spin Energy  =      -1.0972921599395964 [Eh]
	 SCS Correlation Energy    =      -1.1871448745141684 [Eh]
	 SCS Total Energy          =    -270.1218981991327723 [Eh]
	-----------------------------------------------------------

  Dipole Moment: [D]
     X:    -3.9665      Y:     0.4176      Z:    -0.8109     Total:     4.0700

*** Psi4 exiting successfully. Buy a developer a beer!
