                               Psi4 1.3.2 release

  ==> Input File <==

--------------------------------------------------------------------------
#psi4
#
memory 32 gb

molecule  {
0 1
  O        2.9378530    -0.0680150     0.1840270
  C       -1.9436970     0.3335570     0.3437070
  C       -2.8302210    -0.7631530    -0.2519080
  C       -0.5859380     0.3423530    -0.2788660
  C        0.5697440     0.1186190     0.3690800
  C        1.8724055     0.1194368    -0.3029476
  H       -1.8508390     0.1975730     1.4263050
  H       -2.4196650     1.3090330     0.1828770
  H       -2.9395310    -0.6342920    -1.3325490
  H       -3.8284810    -0.7404210     0.1934590
  H       -2.3959700    -1.7495570    -0.0705440
  H       -0.5478170     0.5276110    -1.3553930
  H        0.6408815    -0.0781583     1.4368463
  H        1.7772940     0.3293450    -1.4382350
units angstrom
no_reorient  #important for SAPT in psi4, default
symmetry c1  #important for SAPT in psi4, default
}

set PROPERTIES_ORIGIN ["COM"]
properties('MP2/aug-cc-pvtz', properties = ['dipole'])
--------------------------------------------------------------------------

    Molecular point group: c1
  Charge       = 0
  Multiplicity = 1
  Basis Set: AUG-CC-PVTZ
    Blend: AUG-CC-PVTZ
  Basis Set: (AUG-CC-PVTZ AUX)
    Blend: AUG-CC-PVTZ-JKFIT

    Orbital Energies [Eh]
    ---------------------

    Doubly Occupied:

       1A    -20.551891     2A    -11.329595     3A    -11.274724
       4A    -11.250151     5A    -11.243706     6A    -11.235211
       7A     -1.402835     8A     -1.115493     9A     -1.030976
      10A     -0.905172    11A     -0.814913    12A     -0.774441
      13A     -0.680146    14A     -0.656432    15A     -0.617471
      16A     -0.610547    17A     -0.557840    18A     -0.552685
      19A     -0.538580    20A     -0.517121    21A     -0.506256
      22A     -0.416027    23A     -0.382817

  @DF-RHF Final Energy:  -268.93583515968186

   => Energetics <=

    Nuclear Repulsion Energy =            210.5531815353136835
    One-Electron Energy =                -781.0479724918592410
    Two-Electron Energy =                 301.5589557968636996
    Total Energy =                       -268.9358351596818579
  Basis Set: (AUG-CC-PVTZ AUX)
    Blend: AUG-CC-PVTZ-RI
    Molecular point group: c1

    Geometry (in Angstrom), charge = 0, multiplicity = 1:

       Center              X                  Y                   Z               Mass
    ------------   -----------------  -----------------  -----------------  -----------------
         O            2.934003103534    -0.066544923543     0.177750858374    15.994914619570
         C           -1.947546896466     0.335027076457     0.337430858374    12.000000000000
         C           -2.834070896466    -0.761682923543    -0.258184141626    12.000000000000
         C           -0.589787896466     0.343823076457    -0.285142141626    12.000000000000
         C            0.565894103534     0.120089076457     0.362803858374    12.000000000000
         C            1.868555603534     0.120906876457    -0.309223741626    12.000000000000
         H           -1.854688896466     0.199043076457     1.420028858374     1.007825032230
         H           -2.423514896466     1.310503076457     0.176600858374     1.007825032230
         H           -2.943380896466    -0.632821923543    -1.338825141626     1.007825032230
         H           -3.832330896466    -0.738950923543     0.187182858374     1.007825032230
         H           -2.399819896466    -1.748086923543    -0.076820141626     1.007825032230
         H           -0.551666896466     0.529081076457    -1.361669141626     1.007825032230
         H            0.637031603534    -0.076688223543     1.430570158374     1.007825032230
         H            1.773444103534     0.330815076457    -1.444511141626     1.007825032230

  Basis Set: AUG-CC-PVTZ
    Blend: AUG-CC-PVTZ
  Basis Set: (AUG-CC-PVTZ AUX)
    Blend: AUG-CC-PVTZ-JKFIT
	 Reference Energy          =    -268.9358351596818579 [Eh]
	 Singles Energy            =      -0.0000000000000000 [Eh]
	 Same-Spin Energy          =      -0.2685460575439804 [Eh]
	 Opposite-Spin Energy      =      -0.9117246344791754 [Eh]
	 Correlation Energy        =      -1.1802706920231558 [Eh]
	 Total Energy              =    -270.1161058517050151 [Eh]

	 ================> DF-SCS-MP2 Energies <==================
	-----------------------------------------------------------
	 SCS Same-Spin Scale       =       0.3333333333333333 [-]
	 SCS Opposite-Spin Scale   =       1.2000000000000000 [-]
	 SCS Same-Spin Energy      =      -0.0895153525146601 [Eh]
	 SCS Opposite-Spin Energy  =      -1.0940695613750104 [Eh]
	 SCS Correlation Energy    =      -1.1835849138896706 [Eh]
	 SCS Total Energy          =    -270.1194200735715185 [Eh]
	-----------------------------------------------------------

  Dipole Moment: [D]
     X:    -3.8143      Y:     0.3617      Z:    -0.5917     Total:     3.8768

*** Psi4 exiting successfully. Buy a developer a beer!
