                               Psi4 1.3.2 release

  ==> Input File <==

--------------------------------------------------------------------------
#psi4
#
memory 32 gb

molecule  {
0 1
  O        2.9378530    -0.0680150     0.1840270
  C       -1.9436970     0.3335570     0.3437070
  C       -2.8302210    -0.7631530    -0.2519080
  C       -0.5975350     0.3397794    -0.2586458
  C        0.5697440     0.1186190     0.3690800
  C        1.8606990     0.1244007    -0.3251465
  H       -1.8508390     0.1975730     1.4263050
  H       -2.4196650     1.3090330     0.1828770
  H       -2.9395310    -0.6342920    -1.3325490
  H       -3.8284810    -0.7404210     0.1934590
  H       -2.3959700    -1.7495570    -0.0705440
  H       -0.5478170     0.5276110    -1.3553930
  H        0.6030990    -0.0751360     1.4392450
  H        1.7772940     0.3293450    -1.4382350
units angstrom
no_reorient  #important for SAPT in psi4, default
symmetry c1  #important for SAPT in psi4, default
}

set PROPERTIES_ORIGIN ["COM"]
properties('MP2/aug-cc-pvtz', properties = ['dipole'])
--------------------------------------------------------------------------

    Molecular point group: c1
  Charge       = 0
  Multiplicity = 1
  Basis Set: AUG-CC-PVTZ
    Blend: AUG-CC-PVTZ
  Basis Set: (AUG-CC-PVTZ AUX)
    Blend: AUG-CC-PVTZ-JKFIT

    Orbital Energies [Eh]
    ---------------------

    Doubly Occupied:

       1A    -20.550848     2A    -11.331486     3A    -11.275195
       4A    -11.249708     5A    -11.243853     6A    -11.236089
       7A     -1.388141     8A     -1.118315     9A     -1.031971
      10A     -0.907461    11A     -0.816113    12A     -0.775834
      13A     -0.679140    14A     -0.653986    15A     -0.618101
      16A     -0.609564    17A     -0.553446    18A     -0.550771
      19A     -0.534353    20A     -0.519672    21A     -0.504482
      22A     -0.421507    23A     -0.381277

  @DF-RHF Final Energy:  -268.93606282338010

   => Energetics <=

    Nuclear Repulsion Energy =            210.4377991595298170
    One-Electron Energy =                -780.8450985870266550
    Two-Electron Energy =                 301.4712366041167115
    Total Energy =                       -268.9360628233800981
  Basis Set: (AUG-CC-PVTZ AUX)
    Blend: AUG-CC-PVTZ-RI
    Molecular point group: c1

    Geometry (in Angstrom), charge = 0, multiplicity = 1:

       Center              X                  Y                   Z               Mass
    ------------   -----------------  -----------------  -----------------  -----------------
         O            2.937782898235    -0.066922397819     0.178004576677    15.994914619570
         C           -1.943767101765     0.334649602181     0.337684576677    12.000000000000
         C           -2.830291101765    -0.762060397819    -0.257930423323    12.000000000000
         C           -0.597605101765     0.340872002181    -0.264668223323    12.000000000000
         C            0.569673898235     0.119711602181     0.363057576677    12.000000000000
         C            1.860628898235     0.125493302181    -0.331168923323    12.000000000000
         H           -1.850909101765     0.198665602181     1.420282576677     1.007825032230
         H           -2.419735101765     1.310125602181     0.176854576677     1.007825032230
         H           -2.939601101765    -0.633199397819    -1.338571423323     1.007825032230
         H           -3.828551101765    -0.739328397819     0.187436576677     1.007825032230
         H           -2.396040101765    -1.748464397819    -0.076566423323     1.007825032230
         H           -0.547887101765     0.528703602181    -1.361415423323     1.007825032230
         H            0.603028898235    -0.074043397819     1.433222576677     1.007825032230
         H            1.777223898235     0.330437602181    -1.444257423323     1.007825032230

  Basis Set: AUG-CC-PVTZ
    Blend: AUG-CC-PVTZ
  Basis Set: (AUG-CC-PVTZ AUX)
    Blend: AUG-CC-PVTZ-JKFIT
	 Reference Energy          =    -268.9360628233800981 [Eh]
	 Singles Energy            =      -0.0000000000000000 [Eh]
	 Same-Spin Energy          =      -0.2692060576316858 [Eh]
	 Opposite-Spin Energy      =      -0.9130230734577847 [Eh]
	 Correlation Energy        =      -1.1822291310894704 [Eh]
	 Total Energy              =    -270.1182919544695551 [Eh]

	 ================> DF-SCS-MP2 Energies <==================
	-----------------------------------------------------------
	 SCS Same-Spin Scale       =       0.3333333333333333 [-]
	 SCS Opposite-Spin Scale   =       1.2000000000000000 [-]
	 SCS Same-Spin Energy      =      -0.0897353525438953 [Eh]
	 SCS Opposite-Spin Energy  =      -1.0956276881493416 [Eh]
	 SCS Correlation Energy    =      -1.1853630406932369 [Eh]
	 SCS Total Energy          =    -270.1214258640733306 [Eh]
	-----------------------------------------------------------

  Dipole Moment: [D]
     X:    -3.9076      Y:     0.3825      Z:    -0.6785     Total:     3.9845

*** Psi4 exiting successfully. Buy a developer a beer!
