                               Psi4 1.3.2 release

  ==> Input File <==

--------------------------------------------------------------------------
#psi4
#
memory 32 gb

molecule  {
0 1
  O        2.9378530    -0.0680150     0.1840270
  C       -1.9436970     0.3335570     0.3437070
  C       -2.8302210    -0.7631530    -0.2519080
  C       -0.5859380     0.3423530    -0.2788660
  C        0.5455210     0.1139270     0.4089667
  C        1.8486100     0.1294800    -0.3471130
  H       -1.8508390     0.1975730     1.4263050
  H       -2.4196650     1.3090330     0.1828770
  H       -2.9395310    -0.6342920    -1.3325490
  H       -3.8284810    -0.7404210     0.1934590
  H       -2.3959700    -1.7495570    -0.0705440
  H       -0.5857960     0.5312353    -1.3554381
  H        0.6030990    -0.0751360     1.4392450
  H        1.7772940     0.3293450    -1.4382350
units angstrom
no_reorient  #important for SAPT in psi4, default
symmetry c1  #important for SAPT in psi4, default
}

set PROPERTIES_ORIGIN ["COM"]
properties('MP2/aug-cc-pvtz', properties = ['dipole'])
--------------------------------------------------------------------------

    Molecular point group: c1
  Charge       = 0
  Multiplicity = 1
  Basis Set: AUG-CC-PVTZ
    Blend: AUG-CC-PVTZ
  Basis Set: (AUG-CC-PVTZ AUX)
    Blend: AUG-CC-PVTZ-JKFIT

    Orbital Energies [Eh]
    ---------------------

    Doubly Occupied:

       1A    -20.550097     2A    -11.334456     3A    -11.272325
       4A    -11.247292     5A    -11.245531     6A    -11.234173
       7A     -1.373420     8A     -1.115127     9A     -1.027567
      10A     -0.901202    11A     -0.812618    12A     -0.787986
      13A     -0.678516    14A     -0.647948    15A     -0.617274
      16A     -0.606612    17A     -0.567945    18A     -0.544545
      19A     -0.524771    20A     -0.513790    21A     -0.506028
      22A     -0.420991    23A     -0.380738

  @DF-RHF Final Energy:  -268.93362429453026

   => Energetics <=

    Nuclear Repulsion Energy =            209.7849736364956641
    One-Electron Energy =                -779.6152920268973503
    Two-Electron Energy =                 300.8966940958713963
    Total Energy =                       -268.9336242945302615
  Basis Set: (AUG-CC-PVTZ AUX)
    Blend: AUG-CC-PVTZ-RI
    Molecular point group: c1

    Geometry (in Angstrom), charge = 0, multiplicity = 1:

       Center              X                  Y                   Z               Mass
    ------------   -----------------  -----------------  -----------------  -----------------
         O            2.941766553800    -0.067388548410     0.178333464022    15.994914619570
         C           -1.939783446200     0.334183451590     0.338013464022    12.000000000000
         C           -2.826307446200    -0.762526548410    -0.257601535978    12.000000000000
         C           -0.582024446200     0.342979451590    -0.284559535978    12.000000000000
         C            0.549434553800     0.114553451590     0.403273164022    12.000000000000
         C            1.852523553800     0.130106451590    -0.352806535978    12.000000000000
         H           -1.846925446200     0.198199451590     1.420611464022     1.007825032230
         H           -2.415751446200     1.309659451590     0.177183464022     1.007825032230
         H           -2.935617446200    -0.633665548410    -1.338242535978     1.007825032230
         H           -3.824567446200    -0.739794548410     0.187765464022     1.007825032230
         H           -2.392056446200    -1.748930548410    -0.076237535978     1.007825032230
         H           -0.581882446200     0.531861751590    -1.361131635978     1.007825032230
         H            0.607012553800    -0.074509548410     1.433551464022     1.007825032230
         H            1.781207553800     0.329971451590    -1.443928535978     1.007825032230

  Basis Set: AUG-CC-PVTZ
    Blend: AUG-CC-PVTZ
  Basis Set: (AUG-CC-PVTZ AUX)
    Blend: AUG-CC-PVTZ-JKFIT
	 Reference Energy          =    -268.9336242945302615 [Eh]
	 Singles Energy            =      -0.0000000000000000 [Eh]
	 Same-Spin Energy          =      -0.2690895655617505 [Eh]
	 Opposite-Spin Energy      =      -0.9137284425639927 [Eh]
	 Correlation Energy        =      -1.1828180081257431 [Eh]
	 Total Energy              =    -270.1164423026560257 [Eh]

	 ================> DF-SCS-MP2 Energies <==================
	-----------------------------------------------------------
	 SCS Same-Spin Scale       =       0.3333333333333333 [-]
	 SCS Opposite-Spin Scale   =       1.2000000000000000 [-]
	 SCS Same-Spin Energy      =      -0.0896965218539168 [Eh]
	 SCS Opposite-Spin Energy  =      -1.0964741310767911 [Eh]
	 SCS Correlation Energy    =      -1.1861706529307079 [Eh]
	 SCS Total Energy          =    -270.1197949474609459 [Eh]
	-----------------------------------------------------------

  Dipole Moment: [D]
     X:    -3.8237      Y:     0.4075      Z:    -0.7832     Total:     3.9243

*** Psi4 exiting successfully. Buy a developer a beer!
