                               Psi4 1.3.2 release

  ==> Input File <==

--------------------------------------------------------------------------
#psi4
#
memory 32 gb

molecule  {
0 1
  O        2.9378530    -0.0680150     0.1840270
  C       -1.9436970     0.3335570     0.3437070
  C       -2.8302210    -0.7631530    -0.2519080
  C       -0.5859380     0.3423530    -0.2788660
  C        0.5697440     0.1186190     0.3690800
  C        1.6711842     0.1616498    -0.4336299
  H       -1.8508390     0.1975730     1.4263050
  H       -2.4196650     1.3090330     0.1828770
  H       -2.9395310    -0.6342920    -1.3325490
  H       -3.8284810    -0.7404210     0.1934590
  H       -2.3959700    -1.7495570    -0.0705440
  H       -0.5478170     0.5276110    -1.3553930
  H        0.6030990    -0.0751360     1.4392450
  H        1.7772940     0.3293450    -1.4382350
units angstrom
no_reorient  #important for SAPT in psi4, default
symmetry c1  #important for SAPT in psi4, default
}

set PROPERTIES_ORIGIN ["COM"]
properties('MP2/aug-cc-pvtz', properties = ['dipole'])
--------------------------------------------------------------------------

    Molecular point group: c1
  Charge       = 0
  Multiplicity = 1
  Basis Set: AUG-CC-PVTZ
    Blend: AUG-CC-PVTZ
  Basis Set: (AUG-CC-PVTZ AUX)
    Blend: AUG-CC-PVTZ-JKFIT

    Orbital Energies [Eh]
    ---------------------

    Doubly Occupied:

       1A    -20.526903     2A    -11.333918     3A    -11.293205
       4A    -11.259967     5A    -11.251384     6A    -11.244462
       7A     -1.257817     8A     -1.137978     9A     -1.054557
      10A     -0.923853    11A     -0.833326    12A     -0.803877
      13A     -0.696350    14A     -0.651482    15A     -0.628792
      16A     -0.579428    17A     -0.559329    18A     -0.539035
      19A     -0.517704    20A     -0.508717    21A     -0.484246
      22A     -0.419234    23A     -0.365895

  @DF-RHF Final Energy:  -268.86444281171583

   => Energetics <=

    Nuclear Repulsion Energy =            209.5785852555262352
    One-Electron Energy =                -779.1431418192437377
    Two-Electron Energy =                 300.7001137520016414
    Total Energy =                       -268.8644428117158327
  Basis Set: (AUG-CC-PVTZ AUX)
    Blend: AUG-CC-PVTZ-RI
    Molecular point group: c1

    Geometry (in Angstrom), charge = 0, multiplicity = 1:

       Center              X                  Y                   Z               Mass
    ------------   -----------------  -----------------  -----------------  -----------------
         O            2.963182335788    -0.072607462393     0.196378224795    15.994914619570
         C           -1.918367664212     0.328964537607     0.356058224795    12.000000000000
         C           -2.804891664212    -0.767745462393    -0.239556775205    12.000000000000
         C           -0.560608664212     0.337760537607    -0.266514775205    12.000000000000
         C            0.595073335788     0.114026537607     0.381431224795    12.000000000000
         C            1.696513535788     0.157057337607    -0.421278675205    12.000000000000
         H           -1.825509664212     0.192980537607     1.438656224795     1.007825032230
         H           -2.394335664212     1.304440537607     0.195228224795     1.007825032230
         H           -2.914201664212    -0.638884462393    -1.320197775205     1.007825032230
         H           -3.803151664212    -0.745013462393     0.205810224795     1.007825032230
         H           -2.370640664212    -1.754149462393    -0.058192775205     1.007825032230
         H           -0.522487664212     0.523018537607    -1.343041775205     1.007825032230
         H            0.628428335788    -0.079728462393     1.451596224795     1.007825032230
         H            1.802623335788     0.324752537607    -1.425883775205     1.007825032230

  Basis Set: AUG-CC-PVTZ
    Blend: AUG-CC-PVTZ
  Basis Set: (AUG-CC-PVTZ AUX)
    Blend: AUG-CC-PVTZ-JKFIT
	 Reference Energy          =    -268.8644428117158327 [Eh]
	 Singles Energy            =      -0.0000000000000000 [Eh]
	 Same-Spin Energy          =      -0.2766778841691512 [Eh]
	 Opposite-Spin Energy      =      -0.9285682495656236 [Eh]
	 Correlation Energy        =      -1.2052461337347748 [Eh]
	 Total Energy              =    -270.0696889454505936 [Eh]

	 ================> DF-SCS-MP2 Energies <==================
	-----------------------------------------------------------
	 SCS Same-Spin Scale       =       0.3333333333333333 [-]
	 SCS Opposite-Spin Scale   =       1.2000000000000000 [-]
	 SCS Same-Spin Energy      =      -0.0922259613897171 [Eh]
	 SCS Opposite-Spin Energy  =      -1.1142818994787482 [Eh]
	 SCS Correlation Energy    =      -1.2065078608684654 [Eh]
	 SCS Total Energy          =    -270.0709506725842743 [Eh]
	-----------------------------------------------------------

  Dipole Moment: [D]
     X:    -4.6891      Y:     0.4822      Z:    -0.8988     Total:     4.7987

*** Psi4 exiting successfully. Buy a developer a beer!
