                               Psi4 1.3.2 release

  ==> Input File <==

--------------------------------------------------------------------------
#psi4
#
memory 32 gb

molecule  {
0 1
  O        2.9378530    -0.0680150     0.1840270
  C       -1.9436970     0.3335570     0.3437070
  C       -2.8302210    -0.7631530    -0.2519080
  C       -0.5859380     0.3423530    -0.2788660
  C        0.5697440     0.1186190     0.3690800
  C        1.8486100     0.1294800    -0.3471130
  H       -1.8508390     0.1975730     1.4263050
  H       -2.4196650     1.3090330     0.1828770
  H       -2.9395310    -0.6342920    -1.3325490
  H       -3.8284810    -0.7404210     0.1934590
  H       -2.3959700    -1.7495570    -0.0705440
  H       -0.5513047     0.5106618    -1.2569016
  H        0.6030990    -0.0751360     1.4392450
  H        1.7772940     0.3293450    -1.4382350
units angstrom
no_reorient  #important for SAPT in psi4, default
symmetry c1  #important for SAPT in psi4, default
}

set PROPERTIES_ORIGIN ["COM"]
properties('MP2/aug-cc-pvtz', properties = ['dipole'])
--------------------------------------------------------------------------

    Molecular point group: c1
  Charge       = 0
  Multiplicity = 1
  Basis Set: AUG-CC-PVTZ
    Blend: AUG-CC-PVTZ
  Basis Set: (AUG-CC-PVTZ AUX)
    Blend: AUG-CC-PVTZ-JKFIT

    Orbital Energies [Eh]
    ---------------------

    Doubly Occupied:

       1A    -20.549082     2A    -11.331672     3A    -11.262593
       4A    -11.249421     5A    -11.244446     6A    -11.235630
       7A     -1.373133     8A     -1.120304     9A     -1.032266
      10A     -0.907969    11A     -0.822050    12A     -0.791875
      13A     -0.685113    14A     -0.649212    15A     -0.616926
      16A     -0.607369    17A     -0.564729    18A     -0.546868
      19A     -0.526594    20A     -0.517324    21A     -0.508657
      22A     -0.423915    23A     -0.380550

  @DF-RHF Final Energy:  -268.93037282913662

   => Energetics <=

    Nuclear Repulsion Energy =            210.5501785825861418
    One-Electron Energy =                -781.0657106018161357
    Two-Electron Energy =                 301.5851591900934068
    Total Energy =                       -268.9303728291366156
  Basis Set: (AUG-CC-PVTZ AUX)
    Blend: AUG-CC-PVTZ-RI
    Molecular point group: c1

    Geometry (in Angstrom), charge = 0, multiplicity = 1:

       Center              X                  Y                   Z               Mass
    ------------   -----------------  -----------------  -----------------  -----------------
         O            2.937894952361    -0.067811705242     0.182846241366    15.994914619570
         C           -1.943655047639     0.333760294758     0.342526241366    12.000000000000
         C           -2.830179047639    -0.762949705242    -0.253088758634    12.000000000000
         C           -0.585896047639     0.342556294758    -0.280046758634    12.000000000000
         C            0.569785952361     0.118822294758     0.367899241366    12.000000000000
         C            1.848651952361     0.129683294758    -0.348293758634    12.000000000000
         H           -1.850797047639     0.197776294758     1.425124241366     1.007825032230
         H           -2.419623047639     1.309236294758     0.181696241366     1.007825032230
         H           -2.939489047639    -0.634088705242    -1.333729758634     1.007825032230
         H           -3.828439047639    -0.740217705242     0.192278241366     1.007825032230
         H           -2.395928047639    -1.749353705242    -0.071724758634     1.007825032230
         H           -0.551262747639     0.510865094758    -1.258082358634     1.007825032230
         H            0.603140952361    -0.074932705242     1.438064241366     1.007825032230
         H            1.777335952361     0.329548294758    -1.439415758634     1.007825032230

  Basis Set: AUG-CC-PVTZ
    Blend: AUG-CC-PVTZ
  Basis Set: (AUG-CC-PVTZ AUX)
    Blend: AUG-CC-PVTZ-JKFIT
	 Reference Energy          =    -268.9303728291366156 [Eh]
	 Singles Energy            =      -0.0000000000000000 [Eh]
	 Same-Spin Energy          =      -0.2692177482389860 [Eh]
	 Opposite-Spin Energy      =      -0.9133960865817737 [Eh]
	 Correlation Energy        =      -1.1826138348207598 [Eh]
	 Total Energy              =    -270.1129866639573720 [Eh]

	 ================> DF-SCS-MP2 Energies <==================
	-----------------------------------------------------------
	 SCS Same-Spin Scale       =       0.3333333333333333 [-]
	 SCS Opposite-Spin Scale   =       1.2000000000000000 [-]
	 SCS Same-Spin Energy      =      -0.0897392494129953 [Eh]
	 SCS Opposite-Spin Energy  =      -1.0960753038981284 [Eh]
	 SCS Correlation Energy    =      -1.1858145533111237 [Eh]
	 SCS Total Energy          =    -270.1161873824477198 [Eh]
	-----------------------------------------------------------

  Dipole Moment: [D]
     X:    -3.9345      Y:     0.4123      Z:    -0.8048     Total:     4.0371

*** Psi4 exiting successfully. Buy a developer a beer!
