                               Psi4 1.3.2 release

  ==> Input File <==

--------------------------------------------------------------------------
#psi4
#
memory 32 gb

molecule  {
0 1
  O        2.9378530    -0.0680150     0.1840270
  C       -1.9436970     0.3335570     0.3437070
  C       -2.8302210    -0.7631530    -0.2519080
  C       -0.6087659     0.3372512    -0.2382142
  C        0.5697440     0.1186190     0.3690800
  C        1.8486100     0.1294800    -0.3471130
  H       -1.8508390     0.1975730     1.4263050
  H       -2.4196650     1.3090330     0.1828770
  H       -2.9395310    -0.6342920    -1.3325490
  H       -3.8284810    -0.7404210     0.1934590
  H       -2.3959700    -1.7495570    -0.0705440
  H       -0.5478170     0.5276110    -1.3553930
  H        0.5652840    -0.0717896     1.4403556
  H        1.7772940     0.3293450    -1.4382350
units angstrom
no_reorient  #important for SAPT in psi4, default
symmetry c1  #important for SAPT in psi4, default
}

set PROPERTIES_ORIGIN ["COM"]
properties('MP2/aug-cc-pvtz', properties = ['dipole'])
--------------------------------------------------------------------------

    Molecular point group: c1
  Charge       = 0
  Multiplicity = 1
  Basis Set: AUG-CC-PVTZ
    Blend: AUG-CC-PVTZ
  Basis Set: (AUG-CC-PVTZ AUX)
    Blend: AUG-CC-PVTZ-JKFIT

    Orbital Energies [Eh]
    ---------------------

    Doubly Occupied:

       1A    -20.550075     2A    -11.333584     3A    -11.275895
       4A    -11.249386     5A    -11.244337     6A    -11.237059
       7A     -1.373904     8A     -1.121460     9A     -1.033150
      10A     -0.910166    11A     -0.819156    12A     -0.775942
      13A     -0.679197    14A     -0.652653    15A     -0.618804
      16A     -0.607687    17A     -0.552101    18A     -0.549284
      19A     -0.528406    20A     -0.521326    21A     -0.501875
      22A     -0.426120    23A     -0.379799

  @DF-RHF Final Energy:  -268.93241286086339

   => Energetics <=

    Nuclear Repulsion Energy =            210.3362848968830860
    One-Electron Energy =                -780.6546642942917060
    Two-Electron Energy =                 301.3859665365452543
    Total Energy =                       -268.9324128608633941
  Basis Set: (AUG-CC-PVTZ AUX)
    Blend: AUG-CC-PVTZ-RI
    Molecular point group: c1

    Geometry (in Angstrom), charge = 0, multiplicity = 1:

       Center              X                  Y                   Z               Mass
    ------------   -----------------  -----------------  -----------------  -----------------
         O            2.941565423855    -0.067326713670     0.178210382304    15.994914619570
         C           -1.939984576145     0.334245286330     0.337890382304    12.000000000000
         C           -2.826508576145    -0.762464713670    -0.257724617696    12.000000000000
         C           -0.605053476145     0.337939486330    -0.244030817696    12.000000000000
         C            0.573456423855     0.119307286330     0.363263382304    12.000000000000
         C            1.852322423855     0.130168286330    -0.352929617696    12.000000000000
         H           -1.847126576145     0.198261286330     1.420488382304     1.007825032230
         H           -2.415952576145     1.309721286330     0.177060382304     1.007825032230
         H           -2.935818576145    -0.633603713670    -1.338365617696     1.007825032230
         H           -3.824768576145    -0.739732713670     0.187642382304     1.007825032230
         H           -2.392257576145    -1.748868713670    -0.076360617696     1.007825032230
         H           -0.544104576145     0.528299286330    -1.361209617696     1.007825032230
         H            0.568996423855    -0.071101313670     1.434538982304     1.007825032230
         H            1.781006423855     0.330033286330    -1.444051617696     1.007825032230

  Basis Set: AUG-CC-PVTZ
    Blend: AUG-CC-PVTZ
  Basis Set: (AUG-CC-PVTZ AUX)
    Blend: AUG-CC-PVTZ-JKFIT
	 Reference Energy          =    -268.9324128608633941 [Eh]
	 Singles Energy            =      -0.0000000000000000 [Eh]
	 Same-Spin Energy          =      -0.2699766255189952 [Eh]
	 Opposite-Spin Energy      =      -0.9145748669823102 [Eh]
	 Correlation Energy        =      -1.1845514925013054 [Eh]
	 Total Energy              =    -270.1169643533647218 [Eh]

	 ================> DF-SCS-MP2 Energies <==================
	-----------------------------------------------------------
	 SCS Same-Spin Scale       =       0.3333333333333333 [-]
	 SCS Opposite-Spin Scale   =       1.2000000000000000 [-]
	 SCS Same-Spin Energy      =      -0.0899922085063317 [Eh]
	 SCS Opposite-Spin Energy  =      -1.0974898403787721 [Eh]
	 SCS Correlation Energy    =      -1.1874820488851039 [Eh]
	 SCS Total Energy          =    -270.1198949097484956 [Eh]
	-----------------------------------------------------------

  Dipole Moment: [D]
     X:    -3.9988      Y:     0.4001      Z:    -0.7505     Total:     4.0883

*** Psi4 exiting successfully. Buy a developer a beer!
