                               Psi4 1.3.2 release

  ==> Input File <==

--------------------------------------------------------------------------
#psi4
#
memory 32 gb

molecule  {
0 1
  O        2.9378530    -0.0680150     0.1840270
  C       -1.9328345     0.3281214     0.3667743
  C       -2.8302210    -0.7631530    -0.2519080
  C       -0.5859380     0.3423530    -0.2788660
  C        0.5577590     0.1157047     0.3890258
  C        1.8486100     0.1294800    -0.3471130
  H       -1.8508390     0.1975730     1.4263050
  H       -2.4196650     1.3090330     0.1828770
  H       -2.9395310    -0.6342920    -1.3325490
  H       -3.8284810    -0.7404210     0.1934590
  H       -2.3959700    -1.7495570    -0.0705440
  H       -0.5478170     0.5276110    -1.3553930
  H        0.6030990    -0.0751360     1.4392450
  H        1.7772940     0.3293450    -1.4382350
units angstrom
no_reorient  #important for SAPT in psi4, default
symmetry c1  #important for SAPT in psi4, default
}

set PROPERTIES_ORIGIN ["COM"]
properties('MP2/aug-cc-pvtz', properties = ['dipole'])
--------------------------------------------------------------------------

    Molecular point group: c1
  Charge       = 0
  Multiplicity = 1
  Basis Set: AUG-CC-PVTZ
    Blend: AUG-CC-PVTZ
  Basis Set: (AUG-CC-PVTZ AUX)
    Blend: AUG-CC-PVTZ-JKFIT

    Orbital Energies [Eh]
    ---------------------

    Doubly Occupied:

       1A    -20.549263     2A    -11.332778     3A    -11.273182
       4A    -11.248930     5A    -11.244344     6A    -11.235424
       7A     -1.373010     8A     -1.115777     9A     -1.028312
      10A     -0.903026    11A     -0.815827    12A     -0.785386
      13A     -0.678783    14A     -0.647834    15A     -0.616872
      16A     -0.605807    17A     -0.563152    18A     -0.542731
      19A     -0.524792    20A     -0.516470    21A     -0.511341
      22A     -0.422232    23A     -0.379733

  @DF-RHF Final Energy:  -268.93503439611379

   => Energetics <=

    Nuclear Repulsion Energy =            209.9082594006115414
    One-Electron Energy =                -779.8565779494994104
    Two-Electron Energy =                 301.0132841527740766
    Total Energy =                       -268.9350343961137924
  Basis Set: (AUG-CC-PVTZ AUX)
    Blend: AUG-CC-PVTZ-RI
    Molecular point group: c1

    Geometry (in Angstrom), charge = 0, multiplicity = 1:

       Center              X                  Y                   Z               Mass
    ------------   -----------------  -----------------  -----------------  -----------------
         O            2.938013383279    -0.066822894520     0.177886600313    15.994914619570
         C           -1.932674116721     0.329313505480     0.360633900313    12.000000000000
         C           -2.830060616721    -0.761960894520    -0.258048399687    12.000000000000
         C           -0.585777616721     0.343545105480    -0.285006399687    12.000000000000
         C            0.557919383279     0.116896805480     0.382885400313    12.000000000000
         C            1.848770383279     0.130672105480    -0.353253399687    12.000000000000
         H           -1.850678616721     0.198765105480     1.420164600313     1.007825032230
         H           -2.419504616721     1.310225105480     0.176736600313     1.007825032230
         H           -2.939370616721    -0.633099894520    -1.338689399687     1.007825032230
         H           -3.828320616721    -0.739228894520     0.187318600313     1.007825032230
         H           -2.395809616721    -1.748364894520    -0.076684399687     1.007825032230
         H           -0.547656616721     0.528803105480    -1.361533399687     1.007825032230
         H            0.603259383279    -0.073943894520     1.433104600313     1.007825032230
         H            1.777454383279     0.330537105480    -1.444375399687     1.007825032230

  Basis Set: AUG-CC-PVTZ
    Blend: AUG-CC-PVTZ
  Basis Set: (AUG-CC-PVTZ AUX)
    Blend: AUG-CC-PVTZ-JKFIT
	 Reference Energy          =    -268.9350343961137924 [Eh]
	 Singles Energy            =      -0.0000000000000000 [Eh]
	 Same-Spin Energy          =      -0.2692168744019428 [Eh]
	 Opposite-Spin Energy      =      -0.9137021079894615 [Eh]
	 Correlation Energy        =      -1.1829189823914041 [Eh]
	 Total Energy              =    -270.1179533785052058 [Eh]

	 ================> DF-SCS-MP2 Energies <==================
	-----------------------------------------------------------
	 SCS Same-Spin Scale       =       0.3333333333333333 [-]
	 SCS Opposite-Spin Scale   =       1.2000000000000000 [-]
	 SCS Same-Spin Energy      =      -0.0897389581339809 [Eh]
	 SCS Opposite-Spin Energy  =      -1.0964425295873537 [Eh]
	 SCS Correlation Energy    =      -1.1861814877213346 [Eh]
	 SCS Total Energy          =    -270.1212158838351343 [Eh]
	-----------------------------------------------------------

  Dipole Moment: [D]
     X:    -3.8929      Y:     0.4039      Z:    -0.7653     Total:     3.9879

*** Psi4 exiting successfully. Buy a developer a beer!
