                               Psi4 1.3.2 release

  ==> Input File <==

--------------------------------------------------------------------------
#psi4
#
memory 32 gb

molecule  {
0 1
  O        2.9473733    -0.0655503     0.1649873
  C       -1.9436970     0.3335570     0.3437070
  C       -2.8302210    -0.7631530    -0.2519080
  C       -0.5859380     0.3423530    -0.2788660
  C        0.5697440     0.1186190     0.3690800
  C        1.8486100     0.1294800    -0.3471130
  H       -1.8508390     0.1975730     1.4263050
  H       -2.4196650     1.3090330     0.1828770
  H       -2.9395310    -0.6342920    -1.3325490
  H       -3.8284810    -0.7404210     0.1934590
  H       -2.3959700    -1.7495570    -0.0705440
  H       -0.5478170     0.5276110    -1.3553930
  H        0.6030990    -0.0751360     1.4392450
  H        1.7965799     0.3277564    -1.4396140
units angstrom
no_reorient  #important for SAPT in psi4, default
symmetry c1  #important for SAPT in psi4, default
}

set PROPERTIES_ORIGIN ["COM"]
properties('MP2/aug-cc-pvtz', properties = ['dipole'])
--------------------------------------------------------------------------

    Molecular point group: c1
  Charge       = 0
  Multiplicity = 1
  Basis Set: AUG-CC-PVTZ
    Blend: AUG-CC-PVTZ
  Basis Set: (AUG-CC-PVTZ AUX)
    Blend: AUG-CC-PVTZ-JKFIT

    Orbital Energies [Eh]
    ---------------------

    Doubly Occupied:

       1A    -20.548403     2A    -11.331118     3A    -11.275125
       4A    -11.250854     5A    -11.246059     6A    -11.235971
       7A     -1.372683     8A     -1.117297     9A     -1.032487
      10A     -0.906017    11A     -0.817459    12A     -0.781630
      13A     -0.680103    14A     -0.649342    15A     -0.617070
      16A     -0.606013    17A     -0.558903    18A     -0.547352
      19A     -0.526340    20A     -0.516945    21A     -0.507241
      22A     -0.423399    23A     -0.381506

  @DF-RHF Final Energy:  -268.93599263800871

   => Energetics <=

    Nuclear Repulsion Energy =            209.9774977707419339
    One-Electron Energy =                -779.9683483420303673
    Two-Electron Energy =                 301.0548579332797203
    Total Energy =                       -268.9359926380087131
  Basis Set: (AUG-CC-PVTZ AUX)
    Blend: AUG-CC-PVTZ-RI
    Molecular point group: c1

    Geometry (in Angstrom), charge = 0, multiplicity = 1:

       Center              X                  Y                   Z               Mass
    ------------   -----------------  -----------------  -----------------  -----------------
         O            2.945330629825    -0.066000170677     0.168626934469    15.994914619570
         C           -1.945739670175     0.333107129323     0.347346634469    12.000000000000
         C           -2.832263670175    -0.763602870677    -0.248268365531    12.000000000000
         C           -0.587980670175     0.341903129323    -0.275226365531    12.000000000000
         C            0.567701329825     0.118169129323     0.372719634469    12.000000000000
         C            1.846567329825     0.129030129323    -0.343473365531    12.000000000000
         H           -1.852881670175     0.197123129323     1.429944634469     1.007825032230
         H           -2.421707670175     1.308583129323     0.186516634469     1.007825032230
         H           -2.941573670175    -0.634741870677    -1.328909365531     1.007825032230
         H           -3.830523670175    -0.740870870677     0.197098634469     1.007825032230
         H           -2.398012670175    -1.750006870677    -0.066904365531     1.007825032230
         H           -0.549859670175     0.527161129323    -1.351753365531     1.007825032230
         H            0.601056329825    -0.075585870677     1.442884634469     1.007825032230
         H            1.794537229825     0.327306529323    -1.435974365531     1.007825032230

  Basis Set: AUG-CC-PVTZ
    Blend: AUG-CC-PVTZ
  Basis Set: (AUG-CC-PVTZ AUX)
    Blend: AUG-CC-PVTZ-JKFIT
	 Reference Energy          =    -268.9359926380087131 [Eh]
	 Singles Energy            =      -0.0000000000000000 [Eh]
	 Same-Spin Energy          =      -0.2693704564282249 [Eh]
	 Opposite-Spin Energy      =      -0.9138407279499881 [Eh]
	 Correlation Energy        =      -1.1832111843782129 [Eh]
	 Total Energy              =    -270.1192038223869076 [Eh]

	 ================> DF-SCS-MP2 Energies <==================
	-----------------------------------------------------------
	 SCS Same-Spin Scale       =       0.3333333333333333 [-]
	 SCS Opposite-Spin Scale   =       1.2000000000000000 [-]
	 SCS Same-Spin Energy      =      -0.0897901521427416 [Eh]
	 SCS Opposite-Spin Energy  =      -1.0966088735399857 [Eh]
	 SCS Correlation Energy    =      -1.1863990256827273 [Eh]
	 SCS Total Energy          =    -270.1223916636914169 [Eh]
	-----------------------------------------------------------

  Dipole Moment: [D]
     X:    -3.9816      Y:     0.4024      Z:    -0.7354     Total:     4.0689

*** Psi4 exiting successfully. Buy a developer a beer!
