                               Psi4 1.3.2 release

  ==> Input File <==

--------------------------------------------------------------------------
#psi4
#
memory 32 gb

molecule  {
0 1
  O        2.9378530    -0.0680150     0.1840270
  C       -1.9436970     0.3335570     0.3437070
  C       -2.8302210    -0.7631530    -0.2519080
  C       -0.6768361     0.3417641    -0.2371865
  C        0.5697440     0.1186190     0.3690800
  C        1.8486100     0.1294800    -0.3471130
  H       -1.8508390     0.1975730     1.4263050
  H       -2.4196650     1.3090330     0.1828770
  H       -2.9395310    -0.6342920    -1.3325490
  H       -3.8284810    -0.7404210     0.1934590
  H       -2.3959700    -1.7495570    -0.0705440
  H       -0.5478170     0.5276110    -1.3553930
  H        0.6030990    -0.0751360     1.4392450
  H        1.7772940     0.3293450    -1.4382350
units angstrom
no_reorient  #important for SAPT in psi4, default
symmetry c1  #important for SAPT in psi4, default
}

set PROPERTIES_ORIGIN ["COM"]
properties('MP2/aug-cc-pvtz', properties = ['dipole'])
--------------------------------------------------------------------------

    Molecular point group: c1
  Charge       = 0
  Multiplicity = 1
  Basis Set: AUG-CC-PVTZ
    Blend: AUG-CC-PVTZ
  Basis Set: (AUG-CC-PVTZ AUX)
    Blend: AUG-CC-PVTZ-JKFIT

    Orbital Energies [Eh]
    ---------------------

    Doubly Occupied:

       1A    -20.547692     2A    -11.332077     3A    -11.284941
       4A    -11.250033     5A    -11.247904     6A    -11.239951
       7A     -1.371832     8A     -1.127922     9A     -1.027010
      10A     -0.918754    11A     -0.815864    12A     -0.775445
      13A     -0.679009    14A     -0.656436    15A     -0.618908
      16A     -0.609558    17A     -0.559170    18A     -0.545579
      19A     -0.532223    20A     -0.524426    21A     -0.501002
      22A     -0.424262    23A     -0.364973

  @DF-RHF Final Energy:  -268.91871962593183

   => Energetics <=

    Nuclear Repulsion Energy =            210.2181521089816272
    One-Electron Energy =                -780.3638052163497605
    Two-Electron Energy =                 301.2269334814363333
    Total Energy =                       -268.9187196259318284
  Basis Set: (AUG-CC-PVTZ AUX)
    Blend: AUG-CC-PVTZ-RI
    Molecular point group: c1

    Geometry (in Angstrom), charge = 0, multiplicity = 1:

       Center              X                  Y                   Z               Mass
    ------------   -----------------  -----------------  -----------------  -----------------
         O            2.950829693653    -0.067930850188     0.178076984243    15.994914619570
         C           -1.930720306347     0.333641149812     0.337756984243    12.000000000000
         C           -2.817244306347    -0.763068850188    -0.257858015757    12.000000000000
         C           -0.663859406347     0.341848249812    -0.243136515757    12.000000000000
         C            0.582720693653     0.118703149812     0.363129984243    12.000000000000
         C            1.861586693653     0.129564149812    -0.353063015757    12.000000000000
         H           -1.837862306347     0.197657149812     1.420354984243     1.007825032230
         H           -2.406688306347     1.309117149812     0.176926984243     1.007825032230
         H           -2.926554306347    -0.634207850188    -1.338499015757     1.007825032230
         H           -3.815504306347    -0.740336850188     0.187508984243     1.007825032230
         H           -2.382993306347    -1.749472850188    -0.076494015757     1.007825032230
         H           -0.534840306347     0.527695149812    -1.361343015757     1.007825032230
         H            0.616075693653    -0.075051850188     1.433294984243     1.007825032230
         H            1.790270693653     0.329429149812    -1.444185015757     1.007825032230

  Basis Set: AUG-CC-PVTZ
    Blend: AUG-CC-PVTZ
  Basis Set: (AUG-CC-PVTZ AUX)
    Blend: AUG-CC-PVTZ-JKFIT
	 Reference Energy          =    -268.9187196259318284 [Eh]
	 Singles Energy            =      -0.0000000000000000 [Eh]
	 Same-Spin Energy          =      -0.2715683074454591 [Eh]
	 Opposite-Spin Energy      =      -0.9169599463108548 [Eh]
	 Correlation Energy        =      -1.1885282537563140 [Eh]
	 Total Energy              =    -270.1072478796881455 [Eh]

	 ================> DF-SCS-MP2 Energies <==================
	-----------------------------------------------------------
	 SCS Same-Spin Scale       =       0.3333333333333333 [-]
	 SCS Opposite-Spin Scale   =       1.2000000000000000 [-]
	 SCS Same-Spin Energy      =      -0.0905227691484864 [Eh]
	 SCS Opposite-Spin Energy  =      -1.1003519355730256 [Eh]
	 SCS Correlation Energy    =      -1.1908747047215120 [Eh]
	 SCS Total Energy          =    -270.1095943306533513 [Eh]
	-----------------------------------------------------------

  Dipole Moment: [D]
     X:    -4.1691      Y:     0.4054      Z:    -0.7368     Total:     4.2530

*** Psi4 exiting successfully. Buy a developer a beer!
