                               Psi4 1.3.2 release

  ==> Input File <==

--------------------------------------------------------------------------
#psi4
#
memory 32 gb

molecule  {
0 1
  O        2.9378530    -0.0680150     0.1840270
  C       -1.9436970     0.3335570     0.3437070
  C       -2.8302210    -0.7631530    -0.2519080
  C       -0.5859380     0.3423530    -0.2788660
  C        0.5697440     0.1186190     0.3690800
  C        1.8486100     0.1294800    -0.3471130
  H       -1.8508390     0.1975730     1.4263050
  H       -2.4196650     1.3090330     0.1828770
  H       -2.9395310    -0.6342920    -1.3325490
  H       -3.8284810    -0.7404210     0.1934590
  H       -2.3959700    -1.7495570    -0.0705440
  H       -0.5478170     0.5276110    -1.3553930
  H        0.6030990    -0.0751360     1.4392450
  H        1.7772940     0.3293450    -1.4382350
units angstrom
no_reorient  #important for SAPT in psi4, default
symmetry c1  #important for SAPT in psi4, default
}

set PROPERTIES_ORIGIN ["COM"]
properties('MP2/aug-cc-pvtz', properties = ['dipole'])
--------------------------------------------------------------------------

    Molecular point group: c1
  Charge       = 0
  Multiplicity = 1
  Basis Set: AUG-CC-PVTZ
    Blend: AUG-CC-PVTZ
  Basis Set: (AUG-CC-PVTZ AUX)
    Blend: AUG-CC-PVTZ-JKFIT

    Orbital Energies [Eh]
    ---------------------

    Doubly Occupied:

       1A    -20.549018     2A    -11.331616     3A    -11.274431
       4A    -11.250497     5A    -11.245060     6A    -11.235710
       7A     -1.373105     8A     -1.116871     9A     -1.032200
      10A     -0.905914    11A     -0.817562    12A     -0.781732
      13A     -0.679590    14A     -0.649293    15A     -0.616507
      16A     -0.606514    17A     -0.558386    18A     -0.547191
      19A     -0.526676    20A     -0.516770    21A     -0.506947
      22A     -0.423999    23A     -0.380962

  @DF-RHF Final Energy:  -268.93604597864731

   => Energetics <=

    Nuclear Repulsion Energy =            210.0772600054044403
    One-Electron Energy =                -780.1735174591033228
    Two-Electron Energy =                 301.1602114750515398
    Total Energy =                       -268.9360459786473143
  Basis Set: (AUG-CC-PVTZ AUX)
    Blend: AUG-CC-PVTZ-RI
    Molecular point group: c1

    Geometry (in Angstrom), charge = 0, multiplicity = 1:

       Center              X                  Y                   Z               Mass
    ------------   -----------------  -----------------  -----------------  -----------------
         O            2.937853135857    -0.068014921196     0.184027124462    15.994914619570
         C           -1.943696864143     0.333557078804     0.343707124462    12.000000000000
         C           -2.830220864143    -0.763152921196    -0.251907875538    12.000000000000
         C           -0.585937864143     0.342353078804    -0.278865875538    12.000000000000
         C            0.569744135857     0.118619078804     0.369080124462    12.000000000000
         C            1.848610135857     0.129480078804    -0.347112875538    12.000000000000
         H           -1.850838864143     0.197573078804     1.426305124462     1.007825032230
         H           -2.419664864143     1.309033078804     0.182877124462     1.007825032230
         H           -2.939530864143    -0.634291921196    -1.332548875538     1.007825032230
         H           -3.828480864143    -0.740420921196     0.193459124462     1.007825032230
         H           -2.395969864143    -1.749556921196    -0.070543875538     1.007825032230
         H           -0.547816864143     0.527611078804    -1.355392875538     1.007825032230
         H            0.603099135857    -0.075135921196     1.439245124462     1.007825032230
         H            1.777294135857     0.329345078804    -1.438234875538     1.007825032230

  Basis Set: AUG-CC-PVTZ
    Blend: AUG-CC-PVTZ
  Basis Set: (AUG-CC-PVTZ AUX)
    Blend: AUG-CC-PVTZ-JKFIT
	 Reference Energy          =    -268.9360459786473143 [Eh]
	 Singles Energy            =      -0.0000000000000000 [Eh]
	 Same-Spin Energy          =      -0.2694182659567176 [Eh]
	 Opposite-Spin Energy      =      -0.9138950148569304 [Eh]
	 Correlation Energy        =      -1.1833132808136479 [Eh]
	 Total Energy              =    -270.1193592594609640 [Eh]

	 ================> DF-SCS-MP2 Energies <==================
	-----------------------------------------------------------
	 SCS Same-Spin Scale       =       0.3333333333333333 [-]
	 SCS Opposite-Spin Scale   =       1.2000000000000000 [-]
	 SCS Same-Spin Energy      =      -0.0898060886522392 [Eh]
	 SCS Opposite-Spin Energy  =      -1.0966740178283163 [Eh]
	 SCS Correlation Energy    =      -1.1864801064805555 [Eh]
	 SCS Total Energy          =    -270.1225260851278449 [Eh]
	-----------------------------------------------------------

  Dipole Moment: [D]
     X:    -3.9477      Y:     0.4066      Z:    -0.7702     Total:     4.0427

*** Psi4 exiting successfully. Buy a developer a beer!
