                               Psi4 1.4a3.dev225

  ==> Input File <==

--------------------------------------------------------------------------
#psi4
#
memory 32 gb

molecule  {
0 1
  O        3.0568210     0.0670890     0.3064100
  C       -1.7873110     0.5014740    -0.3308760
  C       -2.7589810    -0.3710180     0.4711220
  C       -0.4385240    -0.1343210    -0.4437030
  C        0.6909303     0.3704804     0.0317858
  C        1.9769390    -0.3447360    -0.1093610
  H       -1.6911510     1.4872370     0.1370160
  H       -2.1942130     0.6629350    -1.3374030
  H       -2.8765390    -1.3546870     0.0071490
  H       -3.7457810     0.0968040     0.5260030
  H       -2.3920550    -0.5186010     1.4901810
  H       -0.4015900    -1.1050250    -0.9450900
  H        0.7410060     1.3377710     0.5508970
  H        1.9051690    -1.3201300    -0.6368870
units angstrom
no_reorient  #important for SAPT in psi4, default
symmetry c1  #important for SAPT in psi4, default
}

set PROPERTIES_ORIGIN ["COM"]
properties('MP2/aug-cc-pvtz', properties = ['dipole'])
--------------------------------------------------------------------------

    Molecular point group: c1
  Charge       = 0
  Multiplicity = 1
  Basis Set: AUG-CC-PVTZ
    Blend: AUG-CC-PVTZ
  Basis Set: (AUG-CC-PVTZ AUX)
    Blend: AUG-CC-PVTZ-JKFIT

    Orbital Energies [Eh]
    ---------------------

    Doubly Occupied:

       1A    -20.551208     2A    -11.333578     3A    -11.270724
       4A    -11.250075     5A    -11.244771     6A    -11.235311
       7A     -1.373941     8A     -1.118365     9A     -1.031793
      10A     -0.904451    11A     -0.818785    12A     -0.779754
      13A     -0.679468    14A     -0.649429    15A     -0.615083
      16A     -0.607685    17A     -0.557314    18A     -0.546506
      19A     -0.526657    20A     -0.515893    21A     -0.506303
      22A     -0.423711    23A     -0.385101

  @DF-RHF Final Energy:  -268.93599379830226

   => Energetics <=

    Nuclear Repulsion Energy =            210.0164478036145681
    One-Electron Energy =                -780.0530724882489721
    Two-Electron Energy =                 301.1006308863321124
    Total Energy =                       -268.9359937983022633
  Basis Set: (AUG-CC-PVTZ AUX)
    Blend: AUG-CC-PVTZ-RI
    Molecular point group: c1

    Geometry (in Angstrom), charge = 0, multiplicity = 1:

       Center              X                  Y                   Z               Mass
    ------------   -----------------  -----------------  -----------------  -----------------
         O            2.933670802258     0.059756461873     0.304996054638    15.994914619570
         C           -1.910461197742     0.494141461873    -0.332289945362    12.000000000000
         C           -2.882131197742    -0.378350538127     0.469708054638    12.000000000000
         C           -0.561674197742    -0.141653538127    -0.445116945362    12.000000000000
         C            0.567780102258     0.363147861873     0.030371854638    12.000000000000
         C            1.853788802258    -0.352068538127    -0.110774945362    12.000000000000
         H           -1.814301197742     1.479904461873     0.135602054638     1.007825032230
         H           -2.317363197742     0.655602461873    -1.338816945362     1.007825032230
         H           -2.999689197742    -1.362019538127     0.005735054638     1.007825032230
         H           -3.868931197742     0.089471461873     0.524589054638     1.007825032230
         H           -2.515205197742    -0.525933538127     1.488767054638     1.007825032230
         H           -0.524740197742    -1.112357538127    -0.946503945362     1.007825032230
         H            0.617855802258     1.330438461873     0.549483054638     1.007825032230
         H            1.782018802258    -1.327462538127    -0.638300945362     1.007825032230

  Basis Set: AUG-CC-PVTZ
    Blend: AUG-CC-PVTZ
  Basis Set: (AUG-CC-PVTZ AUX)
    Blend: AUG-CC-PVTZ-JKFIT
	 Reference Energy          =    -268.9359937983022633 [Eh]
	 Singles Energy            =      -0.0000000000000000 [Eh]
	 Same-Spin Energy          =      -0.2691926429600829 [Eh]
	 Opposite-Spin Energy      =      -0.9135944712660318 [Eh]
	 Correlation Energy        =      -1.1827871142261146 [Eh]
	 Total Energy              =    -270.1187809125283934 [Eh]

	 ================> DF-SCS-MP2 Energies <==================
	-----------------------------------------------------------
	 SCS Same-Spin Scale       =       0.3333333333333333 [-]
	 SCS Opposite-Spin Scale   =       1.2000000000000000 [-]
	 SCS Same-Spin Energy      =      -0.0897308809866943 [Eh]
	 SCS Opposite-Spin Energy  =      -1.0963133655192381 [Eh]
	 SCS Correlation Energy    =      -1.1860442465059324 [Eh]
	 SCS Total Energy          =    -270.1220380448082210 [Eh]
	-----------------------------------------------------------

  Dipole Moment: [D]
     X:    -3.8625      Y:    -0.4918      Z:    -0.8631     Total:     3.9882

*** Psi4 exiting successfully. Buy a developer a beer!
