                               Psi4 1.3.2 release

  ==> Input File <==

--------------------------------------------------------------------------
#psi4
#
memory 32 gb

molecule  {
0 1
  O        2.9378530    -0.0680150     0.1840270
  C       -1.9436970     0.3335570     0.3437070
  C       -2.8302210    -0.7631530    -0.2519080
  C       -0.5969367     0.3457337    -0.3022592
  C        0.5697440     0.1186190     0.3690800
  C        1.8486100     0.1294800    -0.3471130
  H       -1.8698727     0.1983200     1.4278627
  H       -2.4196650     1.3090330     0.1828770
  H       -2.9395310    -0.6342920    -1.3325490
  H       -3.8284810    -0.7404210     0.1934590
  H       -2.3959700    -1.7495570    -0.0705440
  H       -0.5478170     0.5276110    -1.3553930
  H        0.6030990    -0.0751360     1.4392450
  H        1.7772940     0.3293450    -1.4382350
units angstrom
no_reorient  #important for SAPT in psi4, default
symmetry c1  #important for SAPT in psi4, default
}

set PROPERTIES_ORIGIN ["COM"]
properties('MP2/aug-cc-pvtz', properties = ['dipole'])
--------------------------------------------------------------------------

    Molecular point group: c1
  Charge       = 0
  Multiplicity = 1
  Basis Set: AUG-CC-PVTZ
    Blend: AUG-CC-PVTZ
  Basis Set: (AUG-CC-PVTZ AUX)
    Blend: AUG-CC-PVTZ-JKFIT

    Orbital Energies [Eh]
    ---------------------

    Doubly Occupied:

       1A    -20.547932     2A    -11.330795     3A    -11.276584
       4A    -11.250833     5A    -11.247771     6A    -11.235587
       7A     -1.372219     8A     -1.114854     9A     -1.030372
      10A     -0.906063    11A     -0.817212    12A     -0.784388
      13A     -0.679204    14A     -0.648645    15A     -0.616315
      16A     -0.606365    17A     -0.561579    18A     -0.545867
      19A     -0.525669    20A     -0.518138    21A     -0.508477
      22A     -0.422978    23A     -0.376429

  @DF-RHF Final Energy:  -268.93433551136314

   => Energetics <=

    Nuclear Repulsion Energy =            209.8492953360180024
    One-Electron Energy =                -779.7187099273086233
    Two-Electron Energy =                 300.9350790799274478
    Total Energy =                       -268.9343355113631446
  Basis Set: (AUG-CC-PVTZ AUX)
    Blend: AUG-CC-PVTZ-RI
    Molecular point group: c1

    Geometry (in Angstrom), charge = 0, multiplicity = 1:

       Center              X                  Y                   Z               Mass
    ------------   -----------------  -----------------  -----------------  -----------------
         O            2.939651512118    -0.068506504195     0.187348047182    15.994914619570
         C           -1.941898487882     0.333065495805     0.347028047182    12.000000000000
         C           -2.828422487882    -0.763644504195    -0.248586952818    12.000000000000
         C           -0.595138187882     0.345242195805    -0.298938152818    12.000000000000
         C            0.571542512118     0.118127495805     0.372401047182    12.000000000000
         C            1.850408512118     0.128988495805    -0.343791952818    12.000000000000
         H           -1.868074187882     0.197828495805     1.431183747182     1.007825032230
         H           -2.417866487882     1.308541495805     0.186198047182     1.007825032230
         H           -2.937732487882    -0.634783504195    -1.329227952818     1.007825032230
         H           -3.826682487882    -0.740912504195     0.196780047182     1.007825032230
         H           -2.394171487882    -1.750048504195    -0.067222952818     1.007825032230
         H           -0.546018487882     0.527119495805    -1.352071952818     1.007825032230
         H            0.604897512118    -0.075627504195     1.442566047182     1.007825032230
         H            1.779092512118     0.328853495805    -1.434913952818     1.007825032230

  Basis Set: AUG-CC-PVTZ
    Blend: AUG-CC-PVTZ
  Basis Set: (AUG-CC-PVTZ AUX)
    Blend: AUG-CC-PVTZ-JKFIT
	 Reference Energy          =    -268.9343355113631446 [Eh]
	 Singles Energy            =      -0.0000000000000000 [Eh]
	 Same-Spin Energy          =      -0.2695867464198383 [Eh]
	 Opposite-Spin Energy      =      -0.9143112919880576 [Eh]
	 Correlation Energy        =      -1.1838980384078959 [Eh]
	 Total Energy              =    -270.1182335497710483 [Eh]

	 ================> DF-SCS-MP2 Energies <==================
	-----------------------------------------------------------
	 SCS Same-Spin Scale       =       0.3333333333333333 [-]
	 SCS Opposite-Spin Scale   =       1.2000000000000000 [-]
	 SCS Same-Spin Energy      =      -0.0898622488066128 [Eh]
	 SCS Opposite-Spin Energy  =      -1.0971735503856690 [Eh]
	 SCS Correlation Energy    =      -1.1870357991922817 [Eh]
	 SCS Total Energy          =    -270.1213713105554461 [Eh]
	-----------------------------------------------------------

  Dipole Moment: [D]
     X:    -3.9722      Y:     0.4151      Z:    -0.7736     Total:     4.0680

*** Psi4 exiting successfully. Buy a developer a beer!
