                               Psi4 1.3.2 release

  ==> Input File <==

--------------------------------------------------------------------------
#psi4
#
memory 32 gb

molecule  {
0 1
  O        2.9279919    -0.0705153     0.2028877
  C       -1.9436970     0.3335570     0.3437070
  C       -2.8302210    -0.7631530    -0.2519080
  C       -0.5859380     0.3423530    -0.2788660
  C        0.5822204     0.1135196     0.3908241
  C        1.8486100     0.1294800    -0.3471130
  H       -1.8508390     0.1975730     1.4263050
  H       -2.4196650     1.3090330     0.1828770
  H       -2.9395310    -0.6342920    -1.3325490
  H       -3.8284810    -0.7404210     0.1934590
  H       -2.3959700    -1.7495570    -0.0705440
  H       -0.5478170     0.5276110    -1.3553930
  H        0.6030990    -0.0751360     1.4392450
  H        1.7772940     0.3293450    -1.4382350
units angstrom
no_reorient  #important for SAPT in psi4, default
symmetry c1  #important for SAPT in psi4, default
}

set PROPERTIES_ORIGIN ["COM"]
properties('MP2/aug-cc-pvtz', properties = ['dipole'])
--------------------------------------------------------------------------

    Molecular point group: c1
  Charge       = 0
  Multiplicity = 1
  Basis Set: AUG-CC-PVTZ
    Blend: AUG-CC-PVTZ
  Basis Set: (AUG-CC-PVTZ AUX)
    Blend: AUG-CC-PVTZ-JKFIT

    Orbital Energies [Eh]
    ---------------------

    Doubly Occupied:

       1A    -20.547232     2A    -11.330948     3A    -11.277430
       4A    -11.250284     5A    -11.245232     6A    -11.235657
       7A     -1.372428     8A     -1.113509     9A     -1.030205
      10A     -0.905428    11A     -0.814810    12A     -0.785599
      13A     -0.678550    14A     -0.648210    15A     -0.617949
      16A     -0.605115    17A     -0.562069    18A     -0.546264
      19A     -0.526028    20A     -0.516735    21A     -0.507216
      22A     -0.423772    23A     -0.375501

  @DF-RHF Final Energy:  -268.93424385556426

   => Energetics <=

    Nuclear Repulsion Energy =            209.9466897874473261
    One-Electron Energy =                -779.9295237090119599
    Two-Electron Energy =                 301.0485900660003722
    Total Energy =                       -268.9342438555642616
  Basis Set: (AUG-CC-PVTZ AUX)
    Blend: AUG-CC-PVTZ-RI
    Molecular point group: c1

    Geometry (in Angstrom), charge = 0, multiplicity = 1:

       Center              X                  Y                   Z               Mass
    ------------   -----------------  -----------------  -----------------  -----------------
         O            2.928087335517    -0.069311463445     0.196194734772    15.994914619570
         C           -1.943601564483     0.334760836555     0.337014034772    12.000000000000
         C           -2.830125564483    -0.761949163445    -0.258600965228    12.000000000000
         C           -0.585842564483     0.343556836555    -0.285558965228    12.000000000000
         C            0.582315835517     0.114723436555     0.384131134772    12.000000000000
         C            1.848705435517     0.130683836555    -0.353805965228    12.000000000000
         H           -1.850743564483     0.198776836555     1.419612034772     1.007825032230
         H           -2.419569564483     1.310236836555     0.176184034772     1.007825032230
         H           -2.939435564483    -0.633088163445    -1.339241965228     1.007825032230
         H           -3.828385564483    -0.739217163445     0.186766034772     1.007825032230
         H           -2.395874564483    -1.748353163445    -0.077236965228     1.007825032230
         H           -0.547721564483     0.528814836555    -1.362085965228     1.007825032230
         H            0.603194435517    -0.073932163445     1.432552034772     1.007825032230
         H            1.777389435517     0.330548836555    -1.444927965228     1.007825032230

  Basis Set: AUG-CC-PVTZ
    Blend: AUG-CC-PVTZ
  Basis Set: (AUG-CC-PVTZ AUX)
    Blend: AUG-CC-PVTZ-JKFIT
	 Reference Energy          =    -268.9342438555642616 [Eh]
	 Singles Energy            =      -0.0000000000000000 [Eh]
	 Same-Spin Energy          =      -0.2695828997218059 [Eh]
	 Opposite-Spin Energy      =      -0.9142993877042562 [Eh]
	 Correlation Energy        =      -1.1838822874260622 [Eh]
	 Total Energy              =    -270.1181261429903202 [Eh]

	 ================> DF-SCS-MP2 Energies <==================
	-----------------------------------------------------------
	 SCS Same-Spin Scale       =       0.3333333333333333 [-]
	 SCS Opposite-Spin Scale   =       1.2000000000000000 [-]
	 SCS Same-Spin Energy      =      -0.0898609665739353 [Eh]
	 SCS Opposite-Spin Energy  =      -1.0971592652451074 [Eh]
	 SCS Correlation Energy    =      -1.1870202318190428 [Eh]
	 SCS Total Energy          =    -270.1212640873832811 [Eh]
	-----------------------------------------------------------

  Dipole Moment: [D]
     X:    -3.9310      Y:     0.4127      Z:    -0.8046     Total:     4.0336

*** Psi4 exiting successfully. Buy a developer a beer!
