                               Psi4 1.4a3.dev225

  ==> Input File <==

--------------------------------------------------------------------------
#psi4
#
memory 32 gb

molecule  {
0 1
  O        3.0568210     0.0670890     0.3064100
  C       -1.7873110     0.5014740    -0.3308760
  C       -2.7589810    -0.3710180     0.4711220
  C       -0.4385240    -0.1343210    -0.4437030
  C        0.7079740     0.3780980     0.0389610
  C        1.9769390    -0.3447360    -0.1093610
  H       -1.6911510     1.4872370     0.1370160
  H       -2.1942130     0.6629350    -1.3374030
  H       -2.8765390    -1.3546870     0.0071490
  H       -3.7457810     0.0968040     0.5260030
  H       -2.3920550    -0.5186010     1.4901810
  H       -0.4015900    -1.1050250    -0.9450900
  H        0.7403989     1.3201329     0.5414880
  H        1.9051690    -1.3201300    -0.6368870
units angstrom
no_reorient  #important for SAPT in psi4, default
symmetry c1  #important for SAPT in psi4, default
}

set PROPERTIES_ORIGIN ["COM"]
properties('MP2/aug-cc-pvtz', properties = ['dipole'])
--------------------------------------------------------------------------

    Molecular point group: c1
  Charge       = 0
  Multiplicity = 1
  Basis Set: AUG-CC-PVTZ
    Blend: AUG-CC-PVTZ
  Basis Set: (AUG-CC-PVTZ AUX)
    Blend: AUG-CC-PVTZ-JKFIT

    Orbital Energies [Eh]
    ---------------------

    Doubly Occupied:

       1A    -20.549122     2A    -11.331777     3A    -11.274740
       4A    -11.250893     5A    -11.243354     6A    -11.235925
       7A     -1.372862     8A     -1.116314     9A     -1.031962
      10A     -0.905752    11A     -0.817408    12A     -0.784241
      13A     -0.679095    14A     -0.649392    15A     -0.617206
      16A     -0.606766    17A     -0.560397    18A     -0.546755
      19A     -0.526413    20A     -0.516835    21A     -0.507056
      22A     -0.423946    23A     -0.380602

  @DF-RHF Final Energy:  -268.93599614036759

   => Energetics <=

    Nuclear Repulsion Energy =            209.9755545885003301
    One-Electron Energy =                -779.9654736545031710
    Two-Electron Energy =                 301.0539229256352201
    Total Energy =                       -268.9359961403675925
  Basis Set: (AUG-CC-PVTZ AUX)
    Blend: AUG-CC-PVTZ-RI
    Molecular point group: c1

    Geometry (in Angstrom), charge = 0, multiplicity = 1:

       Center              X                  Y                   Z               Mass
    ------------   -----------------  -----------------  -----------------  -----------------
         O            2.931244932903     0.058880453566     0.304084538584    15.994914619570
         C           -1.912887067097     0.493265453566    -0.333201461416    12.000000000000
         C           -2.884557067097    -0.379226546434     0.468796538584    12.000000000000
         C           -0.564100067097    -0.142529546434    -0.446028461416    12.000000000000
         C            0.582397932903     0.369889453566     0.036635538584    12.000000000000
         C            1.851362932903    -0.352944546434    -0.111686461416    12.000000000000
         H           -1.816727067097     1.479028453566     0.134690538584     1.007825032230
         H           -2.319789067097     0.654726453566    -1.339728461416     1.007825032230
         H           -3.002115067097    -1.362895546434     0.004823538584     1.007825032230
         H           -3.871357067097     0.088595453566     0.523677538584     1.007825032230
         H           -2.517631067097    -0.526809546434     1.487855538584     1.007825032230
         H           -0.527166067097    -1.113233546434    -0.947415461416     1.007825032230
         H            0.614822832903     1.311924353566     0.539162538584     1.007825032230
         H            1.779592932903    -1.328338546434    -0.639212461416     1.007825032230

  Basis Set: AUG-CC-PVTZ
    Blend: AUG-CC-PVTZ
  Basis Set: (AUG-CC-PVTZ AUX)
    Blend: AUG-CC-PVTZ-JKFIT
	 Reference Energy          =    -268.9359961403675925 [Eh]
	 Singles Energy            =      -0.0000000000000000 [Eh]
	 Same-Spin Energy          =      -0.2693471695317681 [Eh]
	 Opposite-Spin Energy      =      -0.9138405898088633 [Eh]
	 Correlation Energy        =      -1.1831877593406315 [Eh]
	 Total Energy              =    -270.1191838997082186 [Eh]

	 ================> DF-SCS-MP2 Energies <==================
	-----------------------------------------------------------
	 SCS Same-Spin Scale       =       0.3333333333333333 [-]
	 SCS Opposite-Spin Scale   =       1.2000000000000000 [-]
	 SCS Same-Spin Energy      =      -0.0897823898439227 [Eh]
	 SCS Opposite-Spin Energy  =      -1.0966087077706359 [Eh]
	 SCS Correlation Energy    =      -1.1863910976145586 [Eh]
	 SCS Total Energy          =    -270.1223872379821387 [Eh]
	-----------------------------------------------------------

  Dipole Moment: [D]
     X:    -3.9196      Y:    -0.4807      Z:    -0.8647     Total:     4.0425

*** Psi4 exiting successfully. Buy a developer a beer!
