                               Psi4 1.3.2 release

  ==> Input File <==

--------------------------------------------------------------------------
#psi4
#
memory 32 gb

molecule  {
0 1
  O        2.9378530    -0.0680150     0.1840270
  C       -1.9436970     0.3335570     0.3437070
  C       -2.8302210    -0.7631530    -0.2519080
  C       -0.5859380     0.3423530    -0.2788660
  C        0.4837357     0.1352698     0.3208585
  C        1.8486100     0.1294800    -0.3471130
  H       -1.8508390     0.1975730     1.4263050
  H       -2.4196650     1.3090330     0.1828770
  H       -2.9395310    -0.6342920    -1.3325490
  H       -3.8284810    -0.7404210     0.1934590
  H       -2.3959700    -1.7495570    -0.0705440
  H       -0.5478170     0.5276110    -1.3553930
  H        0.6030990    -0.0751360     1.4392450
  H        1.7772940     0.3293450    -1.4382350
units angstrom
no_reorient  #important for SAPT in psi4, default
symmetry c1  #important for SAPT in psi4, default
}

set PROPERTIES_ORIGIN ["COM"]
properties('MP2/aug-cc-pvtz', properties = ['dipole'])
--------------------------------------------------------------------------

    Molecular point group: c1
  Charge       = 0
  Multiplicity = 1
  Basis Set: AUG-CC-PVTZ
    Blend: AUG-CC-PVTZ
  Basis Set: (AUG-CC-PVTZ AUX)
    Blend: AUG-CC-PVTZ-JKFIT

    Orbital Energies [Eh]
    ---------------------

    Doubly Occupied:

       1A    -20.558677     2A    -11.339384     3A    -11.253258
       4A    -11.246824     5A    -11.240537     6A    -11.232960
       7A     -1.378219     8A     -1.131304     9A     -1.033338
      10A     -0.899681    11A     -0.824265    12A     -0.771923
      13A     -0.681241    14A     -0.651899    15A     -0.615941
      16A     -0.608565    17A     -0.554965    18A     -0.543788
      19A     -0.527397    20A     -0.512296    21A     -0.503068
      22A     -0.419859    23A     -0.404420

  @DF-RHF Final Energy:  -268.92207064925947

   => Energetics <=

    Nuclear Repulsion Energy =            210.8208045751970303
    One-Electron Energy =                -781.6181331705996627
    Two-Electron Energy =                 301.8752579461431651
    Total Energy =                       -268.9220706492594672
  Basis Set: (AUG-CC-PVTZ AUX)
    Blend: AUG-CC-PVTZ-RI
    Molecular point group: c1

    Geometry (in Angstrom), charge = 0, multiplicity = 1:

       Center              X                  Y                   Z               Mass
    ------------   -----------------  -----------------  -----------------  -----------------
         O            2.950131628762    -0.070391979336     0.190911196646    15.994914619570
         C           -1.931418371238     0.331180020664     0.350591196646    12.000000000000
         C           -2.817942371238    -0.765529979336    -0.245023803354    12.000000000000
         C           -0.573659371238     0.339976020664    -0.271981803354    12.000000000000
         C            0.496014328762     0.132892820664     0.327742696646    12.000000000000
         C            1.860888628762     0.127103020664    -0.340228803354    12.000000000000
         H           -1.838560371238     0.195196020664     1.433189196646     1.007825032230
         H           -2.407386371238     1.306656020664     0.189761196646     1.007825032230
         H           -2.927252371238    -0.636668979336    -1.325664803354     1.007825032230
         H           -3.816202371238    -0.742797979336     0.200343196646     1.007825032230
         H           -2.383691371238    -1.751933979336    -0.063659803354     1.007825032230
         H           -0.535538371238     0.525234020664    -1.348508803354     1.007825032230
         H            0.615377628762    -0.077512979336     1.446129196646     1.007825032230
         H            1.789572628762     0.326968020664    -1.431350803354     1.007825032230

  Basis Set: AUG-CC-PVTZ
    Blend: AUG-CC-PVTZ
  Basis Set: (AUG-CC-PVTZ AUX)
    Blend: AUG-CC-PVTZ-JKFIT
	 Reference Energy          =    -268.9220706492594672 [Eh]
	 Singles Energy            =      -0.0000000000000000 [Eh]
	 Same-Spin Energy          =      -0.2687663388433491 [Eh]
	 Opposite-Spin Energy      =      -0.9126350784302640 [Eh]
	 Correlation Energy        =      -1.1814014172736131 [Eh]
	 Total Energy              =    -270.1034720665330724 [Eh]

	 ================> DF-SCS-MP2 Energies <==================
	-----------------------------------------------------------
	 SCS Same-Spin Scale       =       0.3333333333333333 [-]
	 SCS Opposite-Spin Scale   =       1.2000000000000000 [-]
	 SCS Same-Spin Energy      =      -0.0895887796144497 [Eh]
	 SCS Opposite-Spin Energy  =      -1.0951620941163167 [Eh]
	 SCS Correlation Energy    =      -1.1847508737307664 [Eh]
	 SCS Total Energy          =    -270.1068215229902307 [Eh]
	-----------------------------------------------------------

  Dipole Moment: [D]
     X:    -3.6629      Y:     0.3996      Z:    -0.8036     Total:     3.7712

*** Psi4 exiting successfully. Buy a developer a beer!
