                               Psi4 1.3.2 release

  ==> Input File <==

--------------------------------------------------------------------------
#psi4
#
memory 32 gb

molecule  {
0 1
  O        2.9378530    -0.0680150     0.1840270
  C       -1.9436970     0.3335570     0.3437070
  C       -2.8302210    -0.7631530    -0.2519080
  C       -0.5859380     0.3423530    -0.2788660
  C        0.5697440     0.1186190     0.3690800
  C        1.8547061     0.1269700    -0.3361514
  H       -1.8508390     0.1975730     1.4263050
  H       -2.4196650     1.3090330     0.1828770
  H       -2.9395310    -0.6342920    -1.3325490
  H       -3.8284810    -0.7404210     0.1934590
  H       -2.3959700    -1.7495570    -0.0705440
  H       -0.5478170     0.5276110    -1.3553930
  H        0.6125502    -0.0759139     1.4387675
  H        1.7772940     0.3293450    -1.4382350
units angstrom
no_reorient  #important for SAPT in psi4, default
symmetry c1  #important for SAPT in psi4, default
}

set PROPERTIES_ORIGIN ["COM"]
properties('MP2/aug-cc-pvtz', properties = ['dipole'])
--------------------------------------------------------------------------

    Molecular point group: c1
  Charge       = 0
  Multiplicity = 1
  Basis Set: AUG-CC-PVTZ
    Blend: AUG-CC-PVTZ
  Basis Set: (AUG-CC-PVTZ AUX)
    Blend: AUG-CC-PVTZ-JKFIT

    Orbital Energies [Eh]
    ---------------------

    Doubly Occupied:

       1A    -20.549669     2A    -11.331046     3A    -11.274460
       4A    -11.250389     5A    -11.244645     6A    -11.235569
       7A     -1.380387     8A     -1.116487     9A     -1.031852
      10A     -0.905648    11A     -0.816608    12A     -0.780029
      13A     -0.679551    14A     -0.650814    15A     -0.616458
      16A     -0.607972    17A     -0.558171    18A     -0.547858
      19A     -0.530129    20A     -0.516909    21A     -0.506761
      22A     -0.422333    23A     -0.381442

  @DF-RHF Final Energy:  -268.93683667763014

   => Energetics <=

    Nuclear Repulsion Energy =            210.1925233800086232
    One-Electron Energy =                -780.3883462610764354
    Two-Electron Energy =                 301.2589862034376438
    Total Energy =                       -268.9368366776301400
  Basis Set: (AUG-CC-PVTZ AUX)
    Blend: AUG-CC-PVTZ-RI
    Molecular point group: c1

    Geometry (in Angstrom), charge = 0, multiplicity = 1:

       Center              X                  Y                   Z               Mass
    ------------   -----------------  -----------------  -----------------  -----------------
         O            2.936869543182    -0.067647268320     0.182467978159    15.994914619570
         C           -1.944680456818     0.333924731680     0.342147978159    12.000000000000
         C           -2.831204456818    -0.762785268320    -0.253467021841    12.000000000000
         C           -0.586921456818     0.342720731680    -0.280425021841    12.000000000000
         C            0.568760543182     0.118986731680     0.367520978159    12.000000000000
         C            1.853722643182     0.127337731680    -0.337710421841    12.000000000000
         H           -1.851822456818     0.197940731680     1.424745978159     1.007825032230
         H           -2.420648456818     1.309400731680     0.181317978159     1.007825032230
         H           -2.940514456818    -0.633924268320    -1.334108021841     1.007825032230
         H           -3.829464456818    -0.740053268320     0.191899978159     1.007825032230
         H           -2.396953456818    -1.749189268320    -0.072103021841     1.007825032230
         H           -0.548800456818     0.527978731680    -1.356952021841     1.007825032230
         H            0.611566743182    -0.075546168320     1.437208478159     1.007825032230
         H            1.776310543182     0.329712731680    -1.439794021841     1.007825032230

  Basis Set: AUG-CC-PVTZ
    Blend: AUG-CC-PVTZ
  Basis Set: (AUG-CC-PVTZ AUX)
    Blend: AUG-CC-PVTZ-JKFIT
	 Reference Energy          =    -268.9368366776301400 [Eh]
	 Singles Energy            =      -0.0000000000000000 [Eh]
	 Same-Spin Energy          =      -0.2691789656498312 [Eh]
	 Opposite-Spin Energy      =      -0.9133017108804105 [Eh]
	 Correlation Energy        =      -1.1824806765302416 [Eh]
	 Total Energy              =    -270.1193173541603869 [Eh]

	 ================> DF-SCS-MP2 Energies <==================
	-----------------------------------------------------------
	 SCS Same-Spin Scale       =       0.3333333333333333 [-]
	 SCS Opposite-Spin Scale   =       1.2000000000000000 [-]
	 SCS Same-Spin Energy      =      -0.0897263218832771 [Eh]
	 SCS Opposite-Spin Energy  =      -1.0959620530564924 [Eh]
	 SCS Correlation Energy    =      -1.1856883749397695 [Eh]
	 SCS Total Energy          =    -270.1225250525699266 [Eh]
	-----------------------------------------------------------

  Dipole Moment: [D]
     X:    -3.9153      Y:     0.3964      Z:    -0.7301     Total:     4.0024

*** Psi4 exiting successfully. Buy a developer a beer!
