                               Psi4 1.3.2 release

  ==> Input File <==

--------------------------------------------------------------------------
#psi4
#
memory 32 gb

molecule  {
0 1
  O        2.9378530    -0.0680150     0.1840270
  C       -1.9436970     0.3335570     0.3437070
  C       -2.8302210    -0.7631530    -0.2519080
  C       -0.5859380     0.3423530    -0.2788660
  C        0.5697440     0.1186190     0.3690800
  C        1.8486100     0.1294800    -0.3471130
  H       -1.8508390     0.1975730     1.4263050
  H       -2.4196650     1.3090330     0.1828770
  H       -2.9395310    -0.6342920    -1.3325490
  H       -3.8284810    -0.7404210     0.1934590
  H       -2.3959700    -1.7495570    -0.0705440
  H       -0.5478170     0.5276110    -1.3553930
  H        0.6030990    -0.0751360     1.4392450
  H        1.7837098     0.3113645    -1.3400742
units angstrom
no_reorient  #important for SAPT in psi4, default
symmetry c1  #important for SAPT in psi4, default
}

set PROPERTIES_ORIGIN ["COM"]
properties('MP2/aug-cc-pvtz', properties = ['dipole'])
--------------------------------------------------------------------------

    Molecular point group: c1
  Charge       = 0
  Multiplicity = 1
  Basis Set: AUG-CC-PVTZ
    Blend: AUG-CC-PVTZ
  Basis Set: (AUG-CC-PVTZ AUX)
    Blend: AUG-CC-PVTZ-JKFIT

    Orbital Energies [Eh]
    ---------------------

    Doubly Occupied:

       1A    -20.546910     2A    -11.319628     3A    -11.273790
       4A    -11.250128     5A    -11.243568     6A    -11.235437
       7A     -1.371960     8A     -1.116724     9A     -1.032830
      10A     -0.908980    11A     -0.827798    12A     -0.789947
      13A     -0.685805    14A     -0.648405    15A     -0.617051
      16A     -0.608657    17A     -0.558363    18A     -0.546780
      19A     -0.525395    20A     -0.516696    21A     -0.506619
      22A     -0.427103    23A     -0.380117

  @DF-RHF Final Energy:  -268.93173877717686

   => Energetics <=

    Nuclear Repulsion Energy =            210.5377879340406082
    One-Electron Energy =                -781.0616672497756099
    Two-Electron Energy =                 301.5921405385581693
    Total Energy =                       -268.9317387771768608
  Basis Set: (AUG-CC-PVTZ AUX)
    Blend: AUG-CC-PVTZ-RI
    Molecular point group: c1

    Geometry (in Angstrom), charge = 0, multiplicity = 1:

       Center              X                  Y                   Z               Mass
    ------------   -----------------  -----------------  -----------------  -----------------
         O            2.937776212291    -0.067799340257     0.182850205164    15.994914619570
         C           -1.943773787709     0.333772659743     0.342530205164    12.000000000000
         C           -2.830297787709    -0.762937340257    -0.253084794836    12.000000000000
         C           -0.586014787709     0.342568659743    -0.280042794836    12.000000000000
         C            0.569667212291     0.118834659743     0.367903205164    12.000000000000
         C            1.848533212291     0.129695659743    -0.348289794836    12.000000000000
         H           -1.850915787709     0.197788659743     1.425128205164     1.007825032230
         H           -2.419741787709     1.309248659743     0.181700205164     1.007825032230
         H           -2.939607787709    -0.634076340257    -1.333725794836     1.007825032230
         H           -3.828557787709    -0.740205340257     0.192282205164     1.007825032230
         H           -2.396046787709    -1.749341340257    -0.071720794836     1.007825032230
         H           -0.547893787709     0.527826659743    -1.356569794836     1.007825032230
         H            0.603022212291    -0.074920340257     1.438068205164     1.007825032230
         H            1.783633012291     0.311580159743    -1.341250994836     1.007825032230

  Basis Set: AUG-CC-PVTZ
    Blend: AUG-CC-PVTZ
  Basis Set: (AUG-CC-PVTZ AUX)
    Blend: AUG-CC-PVTZ-JKFIT
	 Reference Energy          =    -268.9317387771768608 [Eh]
	 Singles Energy            =      -0.0000000000000000 [Eh]
	 Same-Spin Energy          =      -0.2690378887136138 [Eh]
	 Opposite-Spin Energy      =      -0.9132724758587778 [Eh]
	 Correlation Energy        =      -1.1823103645723916 [Eh]
	 Total Energy              =    -270.1140491417492626 [Eh]

	 ================> DF-SCS-MP2 Energies <==================
	-----------------------------------------------------------
	 SCS Same-Spin Scale       =       0.3333333333333333 [-]
	 SCS Opposite-Spin Scale   =       1.2000000000000000 [-]
	 SCS Same-Spin Energy      =      -0.0896792962378713 [Eh]
	 SCS Opposite-Spin Energy  =      -1.0959269710305333 [Eh]
	 SCS Correlation Energy    =      -1.1856062672684045 [Eh]
	 SCS Total Energy          =    -270.1173450444452442 [Eh]
	-----------------------------------------------------------

  Dipole Moment: [D]
     X:    -3.9487      Y:     0.4258      Z:    -0.8659     Total:     4.0649

*** Psi4 exiting successfully. Buy a developer a beer!
