                               Psi4 1.3.2 release

  ==> Input File <==

--------------------------------------------------------------------------
#psi4
#
memory 32 gb

molecule  {
0 1
  O        2.9378530    -0.0680150     0.1840270
  C       -1.9436970     0.3335570     0.3437070
  C       -2.8696564    -0.7476536    -0.2193540
  C       -0.5730720     0.3823988    -0.2480577
  C        0.5697440     0.1186190     0.3690800
  C        1.8486100     0.1294800    -0.3471130
  H       -1.8508390     0.1975730     1.4263050
  H       -2.4196650     1.3090330     0.1828770
  H       -2.9395310    -0.6342920    -1.3325490
  H       -3.8284810    -0.7404210     0.1934590
  H       -2.3959700    -1.7495570    -0.0705440
  H       -0.5478170     0.5276110    -1.3553930
  H        0.6030990    -0.0751360     1.4392450
  H        1.7772940     0.3293450    -1.4382350
units angstrom
no_reorient  #important for SAPT in psi4, default
symmetry c1  #important for SAPT in psi4, default
}

set PROPERTIES_ORIGIN ["COM"]
properties('MP2/aug-cc-pvtz', properties = ['dipole'])
--------------------------------------------------------------------------

    Molecular point group: c1
  Charge       = 0
  Multiplicity = 1
  Basis Set: AUG-CC-PVTZ
    Blend: AUG-CC-PVTZ
  Basis Set: (AUG-CC-PVTZ AUX)
    Blend: AUG-CC-PVTZ-JKFIT

    Orbital Energies [Eh]
    ---------------------

    Doubly Occupied:

       1A    -20.550856     2A    -11.333039     3A    -11.273928
       4A    -11.250137     5A    -11.243896     6A    -11.236836
       7A     -1.374638     8A     -1.118385     9A     -1.034187
      10A     -0.907960    11A     -0.818671    12A     -0.778702
      13A     -0.679433    14A     -0.650197    15A     -0.615802
      16A     -0.609169    17A     -0.561205    18A     -0.547303
      19A     -0.530198    20A     -0.513859    21A     -0.496767
      22A     -0.425805    23A     -0.385726

  @DF-RHF Final Energy:  -268.93138101378884

   => Energetics <=

    Nuclear Repulsion Energy =            209.9835973263470521
    One-Electron Energy =                -779.9565561398439968
    Two-Electron Energy =                 301.0415777997080795
    Total Energy =                       -268.9313810137888368
  Basis Set: (AUG-CC-PVTZ AUX)
    Blend: AUG-CC-PVTZ-RI
    Molecular point group: c1

    Geometry (in Angstrom), charge = 0, multiplicity = 1:

       Center              X                  Y                   Z               Mass
    ------------   -----------------  -----------------  -----------------  -----------------
         O            2.941646167337    -0.075944520363     0.174981560825    15.994914619570
         C           -1.939903832663     0.325627479637     0.334661560825    12.000000000000
         C           -2.865863232663    -0.755583120363    -0.228399439175    12.000000000000
         C           -0.569278832663     0.374469279637    -0.257103139175    12.000000000000
         C            0.573537167337     0.110689479637     0.360034560825    12.000000000000
         C            1.852403167337     0.121550479637    -0.356158439175    12.000000000000
         H           -1.847045832663     0.189643479637     1.417259560825     1.007825032230
         H           -2.415871832663     1.301103479637     0.173831560825     1.007825032230
         H           -2.935737832663    -0.642221520363    -1.341594439175     1.007825032230
         H           -3.824687832663    -0.748350520363     0.184413560825     1.007825032230
         H           -2.392176832663    -1.757486520363    -0.079589439175     1.007825032230
         H           -0.544023832663     0.519681479637    -1.364438439175     1.007825032230
         H            0.606892167337    -0.083065520363     1.430199560825     1.007825032230
         H            1.781087167337     0.321415479637    -1.447280439175     1.007825032230

  Basis Set: AUG-CC-PVTZ
    Blend: AUG-CC-PVTZ
  Basis Set: (AUG-CC-PVTZ AUX)
    Blend: AUG-CC-PVTZ-JKFIT
	 Reference Energy          =    -268.9313810137888368 [Eh]
	 Singles Energy            =      -0.0000000000000000 [Eh]
	 Same-Spin Energy          =      -0.2693471133260648 [Eh]
	 Opposite-Spin Energy      =      -0.9138522926737369 [Eh]
	 Correlation Energy        =      -1.1831994059998017 [Eh]
	 Total Energy              =    -270.1145804197886378 [Eh]

	 ================> DF-SCS-MP2 Energies <==================
	-----------------------------------------------------------
	 SCS Same-Spin Scale       =       0.3333333333333333 [-]
	 SCS Opposite-Spin Scale   =       1.2000000000000000 [-]
	 SCS Same-Spin Energy      =      -0.0897823711086883 [Eh]
	 SCS Opposite-Spin Energy  =      -1.0966227512084843 [Eh]
	 SCS Correlation Energy    =      -1.1864051223171725 [Eh]
	 SCS Total Energy          =    -270.1177861361060195 [Eh]
	-----------------------------------------------------------

  Dipole Moment: [D]
     X:    -3.9025      Y:     0.3680      Z:    -0.7509     Total:     3.9911

*** Psi4 exiting successfully. Buy a developer a beer!
