                               Psi4 1.4a3.dev225

  ==> Input File <==

--------------------------------------------------------------------------
#psi4
#
memory 32 gb

molecule  {
0 1
  O        3.0568210     0.0670890     0.3064100
  C       -1.7873110     0.5014740    -0.3308760
  C       -2.7589810    -0.3710180     0.4711220
  C       -0.4385240    -0.1343210    -0.4437030
  C        0.7079740     0.3780980     0.0389610
  C        1.9769390    -0.3447360    -0.1093610
  H       -1.6911510     1.4872370     0.1370160
  H       -2.1942130     0.6629350    -1.3374030
  H       -2.8765390    -1.3546870     0.0071490
  H       -3.7457810     0.0968040     0.5260030
  H       -2.3920550    -0.5186010     1.4901810
  H       -0.4015900    -1.1050250    -0.9450900
  H        0.7410060     1.3377710     0.5508970
  H        1.9064607    -1.3025748    -0.6273925
units angstrom
no_reorient  #important for SAPT in psi4, default
symmetry c1  #important for SAPT in psi4, default
}

set PROPERTIES_ORIGIN ["COM"]
properties('MP2/aug-cc-pvtz', properties = ['dipole'])
--------------------------------------------------------------------------

    Molecular point group: c1
  Charge       = 0
  Multiplicity = 1
  Basis Set: AUG-CC-PVTZ
    Blend: AUG-CC-PVTZ
  Basis Set: (AUG-CC-PVTZ AUX)
    Blend: AUG-CC-PVTZ-JKFIT

    Orbital Energies [Eh]
    ---------------------

    Doubly Occupied:

       1A    -20.548712     2A    -11.329623     3A    -11.274694
       4A    -11.250781     5A    -11.245261     6A    -11.235840
       7A     -1.372617     8A     -1.115962     9A     -1.031651
      10A     -0.906091    11A     -0.818963    12A     -0.783521
      13A     -0.680442    14A     -0.648734    15A     -0.616396
      16A     -0.606924    17A     -0.558482    18A     -0.546626
      19A     -0.526155    20A     -0.516704    21A     -0.506912
      22A     -0.424705    23A     -0.380476

  @DF-RHF Final Energy:  -268.93613551735399

   => Energetics <=

    Nuclear Repulsion Energy =            209.9719908749295030
    One-Electron Energy =                -779.9637069543570078
    Two-Electron Energy =                 301.0555805620735441
    Total Energy =                       -268.9361355173539891
  Basis Set: (AUG-CC-PVTZ AUX)
    Blend: AUG-CC-PVTZ-RI
    Molecular point group: c1

    Geometry (in Angstrom), charge = 0, multiplicity = 1:

       Center              X                  Y                   Z               Mass
    ------------   -----------------  -----------------  -----------------  -----------------
         O            2.931222166846     0.058458496186     0.303857891144    15.994914619570
         C           -1.912909833154     0.492843496186    -0.333428108856    12.000000000000
         C           -2.884579833154    -0.379648503814     0.468569891144    12.000000000000
         C           -0.564122833154    -0.142951503814    -0.446255108856    12.000000000000
         C            0.582375166846     0.369467496186     0.036408891144    12.000000000000
         C            1.851340166846    -0.353366503814    -0.111913108856    12.000000000000
         H           -1.816749833154     1.478606496186     0.134463891144     1.007825032230
         H           -2.319811833154     0.654304496186    -1.339955108856     1.007825032230
         H           -3.002137833154    -1.363317503814     0.004596891144     1.007825032230
         H           -3.871379833154     0.088173496186     0.523450891144     1.007825032230
         H           -2.517653833154    -0.527231503814     1.487628891144     1.007825032230
         H           -0.527188833154    -1.113655503814    -0.947642108856     1.007825032230
         H            0.615407166846     1.329140496186     0.548344891144     1.007825032230
         H            1.780861866846    -1.311205303814    -0.629944608856     1.007825032230

  Basis Set: AUG-CC-PVTZ
    Blend: AUG-CC-PVTZ
  Basis Set: (AUG-CC-PVTZ AUX)
    Blend: AUG-CC-PVTZ-JKFIT
	 Reference Energy          =    -268.9361355173539891 [Eh]
	 Singles Energy            =      -0.0000000000000000 [Eh]
	 Same-Spin Energy          =      -0.2693038041764970 [Eh]
	 Opposite-Spin Energy      =      -0.9137979026022418 [Eh]
	 Correlation Energy        =      -1.1831017067787388 [Eh]
	 Total Energy              =    -270.1192372241327462 [Eh]

	 ================> DF-SCS-MP2 Energies <==================
	-----------------------------------------------------------
	 SCS Same-Spin Scale       =       0.3333333333333333 [-]
	 SCS Opposite-Spin Scale   =       1.2000000000000000 [-]
	 SCS Same-Spin Energy      =      -0.0897679347254990 [Eh]
	 SCS Opposite-Spin Energy  =      -1.0965574831226901 [Eh]
	 SCS Correlation Energy    =      -1.1863254178481890 [Eh]
	 SCS Total Energy          =    -270.1224609352021844 [Eh]
	-----------------------------------------------------------

  Dipole Moment: [D]
     X:    -3.9161      Y:    -0.5032      Z:    -0.8765     Total:     4.0444

*** Psi4 exiting successfully. Buy a developer a beer!
