                               Psi4 1.3.2 release

  ==> Input File <==

--------------------------------------------------------------------------
#psi4
#
memory 32 gb

molecule  {
0 1
  O        2.9378530    -0.0680150     0.1840270
  C       -1.9436970     0.3335570     0.3437070
  C       -2.8302210    -0.7631530    -0.2519080
  C       -0.5753529     0.3389697    -0.2552832
  C        0.5697440     0.1186190     0.3690800
  C        1.8486100     0.1294800    -0.3471130
  H       -1.8318336     0.1968674     1.4244175
  H       -2.4196650     1.3090330     0.1828770
  H       -2.9395310    -0.6342920    -1.3325490
  H       -3.8284810    -0.7404210     0.1934590
  H       -2.3959700    -1.7495570    -0.0705440
  H       -0.5478170     0.5276110    -1.3553930
  H        0.6030990    -0.0751360     1.4392450
  H        1.7772940     0.3293450    -1.4382350
units angstrom
no_reorient  #important for SAPT in psi4, default
symmetry c1  #important for SAPT in psi4, default
}

set PROPERTIES_ORIGIN ["COM"]
properties('MP2/aug-cc-pvtz', properties = ['dipole'])
--------------------------------------------------------------------------

    Molecular point group: c1
  Charge       = 0
  Multiplicity = 1
  Basis Set: AUG-CC-PVTZ
    Blend: AUG-CC-PVTZ
  Basis Set: (AUG-CC-PVTZ AUX)
    Blend: AUG-CC-PVTZ-JKFIT

    Orbital Energies [Eh]
    ---------------------

    Doubly Occupied:

       1A    -20.550137     2A    -11.332470     3A    -11.272397
       4A    -11.250302     5A    -11.242386     6A    -11.235871
       7A     -1.374018     8A     -1.119222     9A     -1.033995
      10A     -0.905917    11A     -0.818766    12A     -0.778635
      13A     -0.679792    14A     -0.650127    15A     -0.617082
      16A     -0.606618    17A     -0.555843    18A     -0.548271
      19A     -0.527776    20A     -0.516949    21A     -0.502676
      22A     -0.425000    23A     -0.385589

  @DF-RHF Final Energy:  -268.93558150061472

   => Energetics <=

    Nuclear Repulsion Energy =            210.3090302453636298
    One-Electron Energy =                -780.6295543866314119
    Two-Electron Energy =                 301.3849426406530938
    Total Energy =                       -268.9355815006147168
  Basis Set: (AUG-CC-PVTZ AUX)
    Blend: AUG-CC-PVTZ-RI
    Molecular point group: c1

    Geometry (in Angstrom), charge = 0, multiplicity = 1:

       Center              X                  Y                   Z               Mass
    ------------   -----------------  -----------------  -----------------  -----------------
         O            2.936114144191    -0.067523463396     0.180683088766    15.994914619570
         C           -1.945435855809     0.334048536604     0.340363088766    12.000000000000
         C           -2.831959855809    -0.762661463396    -0.255251911234    12.000000000000
         C           -0.577091755809     0.339461236604    -0.258627111234    12.000000000000
         C            0.568005144191     0.119110536604     0.365736088766    12.000000000000
         C            1.846871144191     0.129971536604    -0.350456911234    12.000000000000
         H           -1.833572455809     0.197358936604     1.421073588766     1.007825032230
         H           -2.421403855809     1.309524536604     0.179533088766     1.007825032230
         H           -2.941269855809    -0.633800463396    -1.335892911234     1.007825032230
         H           -3.830219855809    -0.739929463396     0.190115088766     1.007825032230
         H           -2.397708855809    -1.749065463396    -0.073887911234     1.007825032230
         H           -0.549555855809     0.528102536604    -1.358736911234     1.007825032230
         H            0.601360144191    -0.074644463396     1.435901088766     1.007825032230
         H            1.775555144191     0.329836536604    -1.441578911234     1.007825032230

  Basis Set: AUG-CC-PVTZ
    Blend: AUG-CC-PVTZ
  Basis Set: (AUG-CC-PVTZ AUX)
    Blend: AUG-CC-PVTZ-JKFIT
	 Reference Energy          =    -268.9355815006147168 [Eh]
	 Singles Energy            =      -0.0000000000000000 [Eh]
	 Same-Spin Energy          =      -0.2693065571849463 [Eh]
	 Opposite-Spin Energy      =      -0.9136075045310035 [Eh]
	 Correlation Energy        =      -1.1829140617159499 [Eh]
	 Total Energy              =    -270.1184955623306791 [Eh]

	 ================> DF-SCS-MP2 Energies <==================
	-----------------------------------------------------------
	 SCS Same-Spin Scale       =       0.3333333333333333 [-]
	 SCS Opposite-Spin Scale   =       1.2000000000000000 [-]
	 SCS Same-Spin Energy      =      -0.0897688523949821 [Eh]
	 SCS Opposite-Spin Energy  =      -1.0963290054372041 [Eh]
	 SCS Correlation Energy    =      -1.1860978578321864 [Eh]
	 SCS Total Energy          =    -270.1216793584468974 [Eh]
	-----------------------------------------------------------

  Dipole Moment: [D]
     X:    -3.9215      Y:     0.3973      Z:    -0.7631     Total:     4.0148

*** Psi4 exiting successfully. Buy a developer a beer!
