                               Psi4 1.3.2 release

  ==> Input File <==

--------------------------------------------------------------------------
#psi4
#
memory 32 gb

molecule  {
0 1
  O        2.9378530    -0.0680150     0.1840270
  C       -1.9436970     0.3335570     0.3437070
  C       -2.8302210    -0.7631530    -0.2519080
  C       -0.5616916     0.3472949    -0.3187082
  C        0.5697440     0.1186190     0.3690800
  C        1.8232672     0.1396271    -0.3903849
  H       -1.8508390     0.1975730     1.4263050
  H       -2.4196650     1.3090330     0.1828770
  H       -2.9395310    -0.6342920    -1.3325490
  H       -3.8284810    -0.7404210     0.1934590
  H       -2.3959700    -1.7495570    -0.0705440
  H       -0.5478170     0.5276110    -1.3553930
  H        0.6030990    -0.0751360     1.4392450
  H        1.7772940     0.3293450    -1.4382350
units angstrom
no_reorient  #important for SAPT in psi4, default
symmetry c1  #important for SAPT in psi4, default
}

set PROPERTIES_ORIGIN ["COM"]
properties('MP2/aug-cc-pvtz', properties = ['dipole'])
--------------------------------------------------------------------------

    Molecular point group: c1
  Charge       = 0
  Multiplicity = 1
  Basis Set: AUG-CC-PVTZ
    Blend: AUG-CC-PVTZ
  Basis Set: (AUG-CC-PVTZ AUX)
    Blend: AUG-CC-PVTZ-JKFIT

    Orbital Energies [Eh]
    ---------------------

    Doubly Occupied:

       1A    -20.545646     2A    -11.332364     3A    -11.273517
       4A    -11.252201     5A    -11.248382     6A    -11.235120
       7A     -1.344328     8A     -1.115113     9A     -1.032820
      10A     -0.903710    11A     -0.821626    12A     -0.794449
      13A     -0.681855    14A     -0.641547    15A     -0.616936
      16A     -0.596263    17A     -0.570171    18A     -0.541786
      19A     -0.512930    20A     -0.509822    21A     -0.508499
      22A     -0.426371    23A     -0.380133

  @DF-RHF Final Energy:  -268.92573957086643

   => Energetics <=

    Nuclear Repulsion Energy =            209.3996096893591243
    One-Electron Energy =                -778.8795259805002615
    Two-Electron Energy =                 300.5541767202746541
    Total Energy =                       -268.9257395708664262
  Basis Set: (AUG-CC-PVTZ AUX)
    Blend: AUG-CC-PVTZ-RI
    Molecular point group: c1

    Geometry (in Angstrom), charge = 0, multiplicity = 1:

       Center              X                  Y                   Z               Mass
    ------------   -----------------  -----------------  -----------------  -----------------
         O            2.938009657258    -0.070169017712     0.195892443124    15.994914619570
         C           -1.943540342742     0.331402982288     0.355572443124    12.000000000000
         C           -2.830064342742    -0.765307017712    -0.240042556876    12.000000000000
         C           -0.561534942742     0.345140882288    -0.306842756876    12.000000000000
         C            0.569900657258     0.116464982288     0.380945443124    12.000000000000
         C            1.823423857258     0.137473082288    -0.378519456876    12.000000000000
         H           -1.850682342742     0.195418982288     1.438170443124     1.007825032230
         H           -2.419508342742     1.306878982288     0.194742443124     1.007825032230
         H           -2.939374342742    -0.636446017712    -1.320683556876     1.007825032230
         H           -3.828324342742    -0.742575017712     0.205324443124     1.007825032230
         H           -2.395813342742    -1.751711017712    -0.058678556876     1.007825032230
         H           -0.547660342742     0.525456982288    -1.343527556876     1.007825032230
         H            0.603255657258    -0.077290017712     1.451110443124     1.007825032230
         H            1.777450657258     0.327190982288    -1.426369556876     1.007825032230

  Basis Set: AUG-CC-PVTZ
    Blend: AUG-CC-PVTZ
  Basis Set: (AUG-CC-PVTZ AUX)
    Blend: AUG-CC-PVTZ-JKFIT
	 Reference Energy          =    -268.9257395708664262 [Eh]
	 Singles Energy            =      -0.0000000000000000 [Eh]
	 Same-Spin Energy          =      -0.2701176076610780 [Eh]
	 Opposite-Spin Energy      =      -0.9162768791780546 [Eh]
	 Correlation Energy        =      -1.1863944868391325 [Eh]
	 Total Energy              =    -270.1121340577055321 [Eh]

	 ================> DF-SCS-MP2 Energies <==================
	-----------------------------------------------------------
	 SCS Same-Spin Scale       =       0.3333333333333333 [-]
	 SCS Opposite-Spin Scale   =       1.2000000000000000 [-]
	 SCS Same-Spin Energy      =      -0.0900392025536926 [Eh]
	 SCS Opposite-Spin Energy  =      -1.0995322550136655 [Eh]
	 SCS Correlation Energy    =      -1.1895714575673582 [Eh]
	 SCS Total Energy          =    -270.1153110284337799 [Eh]
	-----------------------------------------------------------

  Dipole Moment: [D]
     X:    -4.0160      Y:     0.4461      Z:    -0.9138     Total:     4.1428

*** Psi4 exiting successfully. Buy a developer a beer!
