                               Psi4 1.3.2 release

  ==> Input File <==

--------------------------------------------------------------------------
#psi4
#
memory 32 gb

molecule  {
0 1
  O        2.9378530    -0.0680150     0.1840270
  C       -1.9436970     0.3335570     0.3437070
  C       -2.8302210    -0.7631530    -0.2519080
  C       -0.5859380     0.3423530    -0.2788660
  C        0.5697440     0.1186190     0.3690800
  C        1.8232564     0.1395100    -0.3904059
  H       -1.8508390     0.1975730     1.4263050
  H       -2.4196650     1.3090330     0.1828770
  H       -2.9395310    -0.6342920    -1.3325490
  H       -3.8284810    -0.7404210     0.1934590
  H       -2.3959700    -1.7495570    -0.0705440
  H       -0.5478170     0.5276110    -1.3553930
  H        0.5652758    -0.0718776     1.4403399
  H        1.7772940     0.3293450    -1.4382350
units angstrom
no_reorient  #important for SAPT in psi4, default
symmetry c1  #important for SAPT in psi4, default
}

set PROPERTIES_ORIGIN ["COM"]
properties('MP2/aug-cc-pvtz', properties = ['dipole'])
--------------------------------------------------------------------------

    Molecular point group: c1
  Charge       = 0
  Multiplicity = 1
  Basis Set: AUG-CC-PVTZ
    Blend: AUG-CC-PVTZ
  Basis Set: (AUG-CC-PVTZ AUX)
    Blend: AUG-CC-PVTZ-JKFIT

    Orbital Energies [Eh]
    ---------------------

    Doubly Occupied:

       1A    -20.546715     2A    -11.334229     3A    -11.274595
       4A    -11.251066     5A    -11.247188     6A    -11.236382
       7A     -1.345074     8A     -1.118650     9A     -1.033841
      10A     -0.907539    11A     -0.823603    12A     -0.787222
      13A     -0.680965    14A     -0.644932    15A     -0.618124
      16A     -0.598100    17A     -0.559572    18A     -0.545935
      19A     -0.517316    20A     -0.511843    21A     -0.507468
      22A     -0.428617    23A     -0.378872

  @DF-RHF Final Energy:  -268.92738755400137

   => Energetics <=

    Nuclear Repulsion Energy =            209.6429218111082378
    One-Electron Energy =                -779.3449232540211824
    Two-Electron Energy =                 300.7746138889115173
    Total Energy =                       -268.9273875540013705
  Basis Set: (AUG-CC-PVTZ AUX)
    Blend: AUG-CC-PVTZ-RI
    Molecular point group: c1

    Geometry (in Angstrom), charge = 0, multiplicity = 1:

       Center              X                  Y                   Z               Mass
    ------------   -----------------  -----------------  -----------------  -----------------
         O            2.941926089576    -0.069485865195     0.190194465159    15.994914619570
         C           -1.939623910424     0.332086134805     0.349874465159    12.000000000000
         C           -2.826147910424    -0.764623865195    -0.245740534841    12.000000000000
         C           -0.581864910424     0.340882134805    -0.272698534841    12.000000000000
         C            0.573817089576     0.117148134805     0.375247465159    12.000000000000
         C            1.827329489576     0.138039134805    -0.384238434841    12.000000000000
         H           -1.846765910424     0.196102134805     1.432472465159     1.007825032230
         H           -2.415591910424     1.307562134805     0.189044465159     1.007825032230
         H           -2.935457910424    -0.635762865195    -1.326381534841     1.007825032230
         H           -3.824407910424    -0.741891865195     0.199626465159     1.007825032230
         H           -2.391896910424    -1.751027865195    -0.064376534841     1.007825032230
         H           -0.543743910424     0.526140134805    -1.349225534841     1.007825032230
         H            0.569348889576    -0.073348465195     1.446507365159     1.007825032230
         H            1.781367089576     0.327874134805    -1.432067534841     1.007825032230

  Basis Set: AUG-CC-PVTZ
    Blend: AUG-CC-PVTZ
  Basis Set: (AUG-CC-PVTZ AUX)
    Blend: AUG-CC-PVTZ-JKFIT
	 Reference Energy          =    -268.9273875540013705 [Eh]
	 Singles Energy            =      -0.0000000000000000 [Eh]
	 Same-Spin Energy          =      -0.2705249976508540 [Eh]
	 Opposite-Spin Energy      =      -0.9166164555235030 [Eh]
	 Correlation Energy        =      -1.1871414531743572 [Eh]
	 Total Energy              =    -270.1145290071757472 [Eh]

	 ================> DF-SCS-MP2 Energies <==================
	-----------------------------------------------------------
	 SCS Same-Spin Scale       =       0.3333333333333333 [-]
	 SCS Opposite-Spin Scale   =       1.2000000000000000 [-]
	 SCS Same-Spin Energy      =      -0.0901749992169513 [Eh]
	 SCS Opposite-Spin Energy  =      -1.0999397466282035 [Eh]
	 SCS Correlation Energy    =      -1.1901147458451549 [Eh]
	 SCS Total Energy          =    -270.1175022998465352 [Eh]
	-----------------------------------------------------------

  Dipole Moment: [D]
     X:    -4.0693      Y:     0.4417      Z:    -0.9021     Total:     4.1914

*** Psi4 exiting successfully. Buy a developer a beer!
