                               Psi4 1.3.2 release

  ==> Input File <==

--------------------------------------------------------------------------
#psi4
#
memory 32 gb

molecule  {
0 1
  O        2.9378530    -0.0680150     0.1840270
  C       -1.9436970     0.3335570     0.3437070
  C       -2.8302210    -0.7631530    -0.2519080
  C       -0.5859380     0.3423530    -0.2788660
  C        0.5697440     0.1186190     0.3690800
  C        1.8486100     0.1294800    -0.3471130
  H       -1.8508390     0.1975730     1.4263050
  H       -2.4196650     1.3090330     0.1828770
  H       -2.9395310    -0.6342920    -1.3325490
  H       -3.8284810    -0.7404210     0.1934590
  H       -2.3959700    -1.7495570    -0.0705440
  H       -0.5478170     0.5276110    -1.3553930
  H        0.6092300    -0.1107503     1.6359530
  H        1.7772940     0.3293450    -1.4382350
units angstrom
no_reorient  #important for SAPT in psi4, default
symmetry c1  #important for SAPT in psi4, default
}

set PROPERTIES_ORIGIN ["COM"]
properties('MP2/aug-cc-pvtz', properties = ['dipole'])
--------------------------------------------------------------------------

    Molecular point group: c1
  Charge       = 0
  Multiplicity = 1
  Basis Set: AUG-CC-PVTZ
    Blend: AUG-CC-PVTZ
  Basis Set: (AUG-CC-PVTZ AUX)
    Blend: AUG-CC-PVTZ-JKFIT

    Orbital Energies [Eh]
    ---------------------

    Doubly Occupied:

       1A    -20.549924     2A    -11.334019     3A    -11.276093
       4A    -11.265367     5A    -11.250353     6A    -11.235589
       7A     -1.373749     8A     -1.115381     9A     -1.030044
      10A     -0.905778    11A     -0.818758    12A     -0.763413
      13A     -0.680518    14A     -0.646681    15A     -0.612899
      16A     -0.601413    17A     -0.548126    18A     -0.534432
      19A     -0.526889    20A     -0.514135    21A     -0.504898
      22A     -0.424733    23A     -0.382119

  @DF-RHF Final Energy:  -268.91402303378658

   => Energetics <=

    Nuclear Repulsion Energy =            209.2710848145253522
    One-Electron Energy =                -778.5795922205127226
    Two-Electron Energy =                 300.3944843722007931
    Total Energy =                       -268.9140230337865773
  Basis Set: (AUG-CC-PVTZ AUX)
    Blend: AUG-CC-PVTZ-RI
    Molecular point group: c1

    Geometry (in Angstrom), charge = 0, multiplicity = 1:

       Center              X                  Y                   Z               Mass
    ------------   -----------------  -----------------  -----------------  -----------------
         O            2.937779626960    -0.067587916149     0.181668653042    15.994914619570
         C           -1.943770373040     0.333984083851     0.341348653042    12.000000000000
         C           -2.830294373040    -0.762725916149    -0.254266346958    12.000000000000
         C           -0.586011373040     0.342780083851    -0.281224346958    12.000000000000
         C            0.569670626960     0.119046083851     0.366721653042    12.000000000000
         C            1.848536626960     0.129907083851    -0.349471346958    12.000000000000
         H           -1.850912373040     0.198000083851     1.423946653042     1.007825032230
         H           -2.419738373040     1.309460083851     0.180518653042     1.007825032230
         H           -2.939604373040    -0.633864916149    -1.334907346958     1.007825032230
         H           -3.828554373040    -0.739993916149     0.191100653042     1.007825032230
         H           -2.396043373040    -1.749129916149    -0.072902346958     1.007825032230
         H           -0.547890373040     0.528038083851    -1.357751346958     1.007825032230
         H            0.609156626960    -0.110323216149     1.633594653042     1.007825032230
         H            1.777220626960     0.329772083851    -1.440593346958     1.007825032230

  Basis Set: AUG-CC-PVTZ
    Blend: AUG-CC-PVTZ
  Basis Set: (AUG-CC-PVTZ AUX)
    Blend: AUG-CC-PVTZ-JKFIT
	 Reference Energy          =    -268.9140230337865773 [Eh]
	 Singles Energy            =      -0.0000000000000000 [Eh]
	 Same-Spin Energy          =      -0.2699846118435701 [Eh]
	 Opposite-Spin Energy      =      -0.9159037138926873 [Eh]
	 Correlation Energy        =      -1.1858883257362574 [Eh]
	 Total Energy              =    -270.0999113595228209 [Eh]

	 ================> DF-SCS-MP2 Energies <==================
	-----------------------------------------------------------
	 SCS Same-Spin Scale       =       0.3333333333333333 [-]
	 SCS Opposite-Spin Scale   =       1.2000000000000000 [-]
	 SCS Same-Spin Energy      =      -0.0899948706145234 [Eh]
	 SCS Opposite-Spin Energy  =      -1.0990844566712248 [Eh]
	 SCS Correlation Energy    =      -1.1890793272857483 [Eh]
	 SCS Total Energy          =    -270.1031023610723310 [Eh]
	-----------------------------------------------------------

  Dipole Moment: [D]
     X:    -3.9134      Y:     0.4137      Z:    -0.8267     Total:     4.0211

*** Psi4 exiting successfully. Buy a developer a beer!
