                               Psi4 1.3.2 release

  ==> Input File <==

--------------------------------------------------------------------------
#psi4
#
memory 32 gb

molecule  {
0 1
  O        2.9329638    -0.0692727     0.1934779
  C       -1.9436970     0.3335570     0.3437070
  C       -2.8302210    -0.7631530    -0.2519080
  C       -0.5859380     0.3423530    -0.2788660
  C        0.5759337     0.1160688     0.3799797
  C        1.8486100     0.1294800    -0.3471130
  H       -1.8508390     0.1975730     1.4263050
  H       -2.4196650     1.3090330     0.1828770
  H       -2.9395310    -0.6342920    -1.3325490
  H       -3.8284810    -0.7404210     0.1934590
  H       -2.3959700    -1.7495570    -0.0705440
  H       -0.5478170     0.5276110    -1.3553930
  H        0.6030990    -0.0751360     1.4392450
  H        1.7772940     0.3293450    -1.4382350
units angstrom
no_reorient  #important for SAPT in psi4, default
symmetry c1  #important for SAPT in psi4, default
}

set PROPERTIES_ORIGIN ["COM"]
properties('MP2/aug-cc-pvtz', properties = ['dipole'])
--------------------------------------------------------------------------

    Molecular point group: c1
  Charge       = 0
  Multiplicity = 1
  Basis Set: AUG-CC-PVTZ
    Blend: AUG-CC-PVTZ
  Basis Set: (AUG-CC-PVTZ AUX)
    Blend: AUG-CC-PVTZ-JKFIT

    Orbital Energies [Eh]
    ---------------------

    Doubly Occupied:

       1A    -20.548121     2A    -11.331265     3A    -11.275937
       4A    -11.250389     5A    -11.245135     6A    -11.235684
       7A     -1.372752     8A     -1.115159     9A     -1.031211
      10A     -0.905662    11A     -0.816158    12A     -0.783645
      13A     -0.679067    14A     -0.648744    15A     -0.617118
      16A     -0.605877    17A     -0.560233    18A     -0.546757
      19A     -0.526347    20A     -0.516771    21A     -0.507102
      22A     -0.423935    23A     -0.378222

  @DF-RHF Final Energy:  -268.93544001898732

   => Energetics <=

    Nuclear Repulsion Energy =            210.0106363969972278
    One-Electron Energy =                -780.0495723768674452
    Two-Electron Energy =                 301.1034959608828672
    Total Energy =                       -268.9354400189873218
  Basis Set: (AUG-CC-PVTZ AUX)
    Blend: AUG-CC-PVTZ-RI
    Molecular point group: c1

    Geometry (in Angstrom), charge = 0, multiplicity = 1:

       Center              X                  Y                   Z               Mass
    ------------   -----------------  -----------------  -----------------  -----------------
         O            2.933010641218    -0.068669234286     0.190123621956    15.994914619570
         C           -1.943650158782     0.334160465714     0.340352721956    12.000000000000
         C           -2.830174158782    -0.762549534286    -0.255262278044    12.000000000000
         C           -0.585891158782     0.342956465714    -0.282220278044    12.000000000000
         C            0.575980541218     0.116672265714     0.376625421956    12.000000000000
         C            1.848656841218     0.130083465714    -0.350467278044    12.000000000000
         H           -1.850792158782     0.198176465714     1.422950721956     1.007825032230
         H           -2.419618158782     1.309636465714     0.179522721956     1.007825032230
         H           -2.939484158782    -0.633688534286    -1.335903278044     1.007825032230
         H           -3.828434158782    -0.739817534286     0.190104721956     1.007825032230
         H           -2.395923158782    -1.748953534286    -0.073898278044     1.007825032230
         H           -0.547770158782     0.528214465714    -1.358747278044     1.007825032230
         H            0.603145841218    -0.074532534286     1.435890721956     1.007825032230
         H            1.777340841218     0.329948465714    -1.441589278044     1.007825032230

  Basis Set: AUG-CC-PVTZ
    Blend: AUG-CC-PVTZ
  Basis Set: (AUG-CC-PVTZ AUX)
    Blend: AUG-CC-PVTZ-JKFIT
	 Reference Energy          =    -268.9354400189873218 [Eh]
	 Singles Energy            =      -0.0000000000000000 [Eh]
	 Same-Spin Energy          =      -0.2694937490636491 [Eh]
	 Opposite-Spin Energy      =      -0.9140808447804376 [Eh]
	 Correlation Energy        =      -1.1835745938440867 [Eh]
	 Total Energy              =    -270.1190146128313927 [Eh]

	 ================> DF-SCS-MP2 Energies <==================
	-----------------------------------------------------------
	 SCS Same-Spin Scale       =       0.3333333333333333 [-]
	 SCS Opposite-Spin Scale   =       1.2000000000000000 [-]
	 SCS Same-Spin Energy      =      -0.0898312496878830 [Eh]
	 SCS Opposite-Spin Energy  =      -1.0968970137365250 [Eh]
	 SCS Correlation Energy    =      -1.1867282634244081 [Eh]
	 SCS Total Energy          =    -270.1221682824117352 [Eh]
	-----------------------------------------------------------

  Dipole Moment: [D]
     X:    -3.9400      Y:     0.4097      Z:    -0.7872     Total:     4.0387

*** Psi4 exiting successfully. Buy a developer a beer!
