                               Psi4 1.3.2 release

  ==> Input File <==

--------------------------------------------------------------------------
#psi4
#
memory 32 gb

molecule  {
0 1
  O        2.9378530    -0.0680150     0.1840270
  C       -1.9436970     0.3335570     0.3437070
  C       -2.8302210    -0.7631530    -0.2519080
  C       -0.5859380     0.3423530    -0.2788660
  C        0.3977273     0.1519205     0.2726369
  C        1.8486100     0.1294800    -0.3471130
  H       -1.8508390     0.1975730     1.4263050
  H       -2.4196650     1.3090330     0.1828770
  H       -2.9395310    -0.6342920    -1.3325490
  H       -3.8284810    -0.7404210     0.1934590
  H       -2.3959700    -1.7495570    -0.0705440
  H       -0.5478170     0.5276110    -1.3553930
  H        0.6030990    -0.0751360     1.4392450
  H        1.7772940     0.3293450    -1.4382350
units angstrom
no_reorient  #important for SAPT in psi4, default
symmetry c1  #important for SAPT in psi4, default
}

set PROPERTIES_ORIGIN ["COM"]
properties('MP2/aug-cc-pvtz', properties = ['dipole'])
--------------------------------------------------------------------------

    Molecular point group: c1
  Charge       = 0
  Multiplicity = 1
  Basis Set: AUG-CC-PVTZ
    Blend: AUG-CC-PVTZ
  Basis Set: (AUG-CC-PVTZ AUX)
    Blend: AUG-CC-PVTZ-JKFIT

    Orbital Energies [Eh]
    ---------------------

    Doubly Occupied:

       1A    -20.567005     2A    -11.346020     3A    -11.244319
       4A    -11.236817     5A    -11.230902     6A    -11.229701
       7A     -1.382837     8A     -1.152231     9A     -1.034595
      10A     -0.893187    11A     -0.830440    12A     -0.761483
      13A     -0.682382    14A     -0.655056    15A     -0.621991
      16A     -0.606320    17A     -0.556647    18A     -0.539519
      19A     -0.527072    20A     -0.508262    21A     -0.498220
      22A     -0.430821    23A     -0.407986

  @DF-RHF Final Energy:  -268.86312804186088

   => Energetics <=

    Nuclear Repulsion Energy =            211.8076265775806064
    One-Electron Energy =                -783.4538808837023680
    Two-Electron Energy =                 302.7831262642609431
    Total Energy =                       -268.8631280418608753
  Basis Set: (AUG-CC-PVTZ AUX)
    Blend: AUG-CC-PVTZ-RI
    Molecular point group: c1

    Geometry (in Angstrom), charge = 0, multiplicity = 1:

       Center              X                  Y                   Z               Mass
    ------------   -----------------  -----------------  -----------------  -----------------
         O            2.962410135942    -0.072769023201     0.197795283105    15.994914619570
         C           -1.919139864058     0.328802976799     0.357475283105    12.000000000000
         C           -2.805663864058    -0.767907023201    -0.238139716895    12.000000000000
         C           -0.561380864058     0.337598976799    -0.265097716895    12.000000000000
         C            0.422284435942     0.147166476799     0.286405183105    12.000000000000
         C            1.873167135942     0.124725976799    -0.333344716895    12.000000000000
         H           -1.826281864058     0.192818976799     1.440073283105     1.007825032230
         H           -2.395107864058     1.304278976799     0.196645283105     1.007825032230
         H           -2.914973864058    -0.639046023201    -1.318780716895     1.007825032230
         H           -3.803923864058    -0.745175023201     0.207227283105     1.007825032230
         H           -2.371412864058    -1.754311023201    -0.056775716895     1.007825032230
         H           -0.523259864058     0.522856976799    -1.341624716895     1.007825032230
         H            0.627656135942    -0.079890023201     1.453013283105     1.007825032230
         H            1.801851135942     0.324590976799    -1.424466716895     1.007825032230

  Basis Set: AUG-CC-PVTZ
    Blend: AUG-CC-PVTZ
  Basis Set: (AUG-CC-PVTZ AUX)
    Blend: AUG-CC-PVTZ-JKFIT
	 Reference Energy          =    -268.8631280418608753 [Eh]
	 Singles Energy            =      -0.0000000000000000 [Eh]
	 Same-Spin Energy          =      -0.2690312671163226 [Eh]
	 Opposite-Spin Energy      =      -0.9127561731675289 [Eh]
	 Correlation Energy        =      -1.1817874402838515 [Eh]
	 Total Energy              =    -270.0449154821447451 [Eh]

	 ================> DF-SCS-MP2 Energies <==================
	-----------------------------------------------------------
	 SCS Same-Spin Scale       =       0.3333333333333333 [-]
	 SCS Opposite-Spin Scale   =       1.2000000000000000 [-]
	 SCS Same-Spin Energy      =      -0.0896770890387742 [Eh]
	 SCS Opposite-Spin Energy  =      -1.0953074078010345 [Eh]
	 SCS Correlation Energy    =      -1.1849844968398087 [Eh]
	 SCS Total Energy          =    -270.0481125387007069 [Eh]
	-----------------------------------------------------------

  Dipole Moment: [D]
     X:    -3.3802      Y:     0.3948      Z:    -0.8556     Total:     3.5091

*** Psi4 exiting successfully. Buy a developer a beer!
