                               Psi4 1.3.2 release

  ==> Input File <==

--------------------------------------------------------------------------
#psi4
#
memory 32 gb

molecule  {
0 1
  O        2.9654339    -0.0601563     0.1264973
  C       -1.9436970     0.3335570     0.3437070
  C       -2.8302210    -0.7631530    -0.2519080
  C       -0.5859380     0.3423530    -0.2788660
  C        0.5346669     0.1339308     0.3025656
  C        1.8486100     0.1294800    -0.3471130
  H       -1.8508390     0.1975730     1.4263050
  H       -2.4196650     1.3090330     0.1828770
  H       -2.9395310    -0.6342920    -1.3325490
  H       -3.8284810    -0.7404210     0.1934590
  H       -2.3959700    -1.7495570    -0.0705440
  H       -0.5478170     0.5276110    -1.3553930
  H        0.6030990    -0.0751360     1.4392450
  H        1.7772940     0.3293450    -1.4382350
units angstrom
no_reorient  #important for SAPT in psi4, default
symmetry c1  #important for SAPT in psi4, default
}

set PROPERTIES_ORIGIN ["COM"]
properties('MP2/aug-cc-pvtz', properties = ['dipole'])
--------------------------------------------------------------------------

    Molecular point group: c1
  Charge       = 0
  Multiplicity = 1
  Basis Set: AUG-CC-PVTZ
    Blend: AUG-CC-PVTZ
  Basis Set: (AUG-CC-PVTZ AUX)
    Blend: AUG-CC-PVTZ-JKFIT

    Orbital Energies [Eh]
    ---------------------

    Doubly Occupied:

       1A    -20.554568     2A    -11.334446     3A    -11.265302
       4A    -11.251256     5A    -11.245137     6A    -11.235900
       7A     -1.375775     8A     -1.128468     9A     -1.037716
      10A     -0.907852    11A     -0.826890    12A     -0.771254
      13A     -0.682665    14A     -0.652828    15A     -0.617952
      16A     -0.606965    17A     -0.553366    18A     -0.544082
      19A     -0.528660    20A     -0.515751    21A     -0.504588
      22A     -0.422247    23A     -0.397773

  @DF-RHF Final Energy:  -268.92729365375624

   => Energetics <=

    Nuclear Repulsion Energy =            210.5291584248049901
    One-Electron Energy =                -780.9900249900954350
    Two-Electron Energy =                 301.5335729115341792
    Total Energy =                       -268.9272936537562373
  Basis Set: (AUG-CC-PVTZ AUX)
    Blend: AUG-CC-PVTZ-RI
    Molecular point group: c1

    Geometry (in Angstrom), charge = 0, multiplicity = 1:

       Center              X                  Y                   Z               Mass
    ------------   -----------------  -----------------  -----------------  -----------------
         O            2.965193379913    -0.063837520078     0.146940039760    15.994914619570
         C           -1.943937520087     0.329875779922     0.364149739760    12.000000000000
         C           -2.830461520087    -0.766834220078    -0.231465260240    12.000000000000
         C           -0.586178520087     0.338671779922    -0.258423260240    12.000000000000
         C            0.534426379913     0.130249579922     0.323008339760    12.000000000000
         C            1.848369479913     0.125798779922    -0.326670260240    12.000000000000
         H           -1.851079520087     0.193891779922     1.446747739760     1.007825032230
         H           -2.419905520087     1.305351779922     0.203319739760     1.007825032230
         H           -2.939771520087    -0.637973220078    -1.312106260240     1.007825032230
         H           -3.828721520087    -0.744102220078     0.213901739760     1.007825032230
         H           -2.396210520087    -1.753238220078    -0.050101260240     1.007825032230
         H           -0.548057520087     0.523929779922    -1.334950260240     1.007825032230
         H            0.602858479913    -0.078817220078     1.459687739760     1.007825032230
         H            1.777053479913     0.325663779922    -1.417792260240     1.007825032230

  Basis Set: AUG-CC-PVTZ
    Blend: AUG-CC-PVTZ
  Basis Set: (AUG-CC-PVTZ AUX)
    Blend: AUG-CC-PVTZ-JKFIT
	 Reference Energy          =    -268.9272936537562373 [Eh]
	 Singles Energy            =      -0.0000000000000000 [Eh]
	 Same-Spin Energy          =      -0.2692429755000338 [Eh]
	 Opposite-Spin Energy      =      -0.9134281913934518 [Eh]
	 Correlation Energy        =      -1.1826711668934857 [Eh]
	 Total Energy              =    -270.1099648206497363 [Eh]

	 ================> DF-SCS-MP2 Energies <==================
	-----------------------------------------------------------
	 SCS Same-Spin Scale       =       0.3333333333333333 [-]
	 SCS Opposite-Spin Scale   =       1.2000000000000000 [-]
	 SCS Same-Spin Energy      =      -0.0897476585000113 [Eh]
	 SCS Opposite-Spin Energy  =      -1.0961138296721420 [Eh]
	 SCS Correlation Energy    =      -1.1858614881721532 [Eh]
	 SCS Total Energy          =    -270.1131551419284165 [Eh]
	-----------------------------------------------------------

  Dipole Moment: [D]
     X:    -3.9717      Y:     0.3886      Z:    -0.6795     Total:     4.0481

*** Psi4 exiting successfully. Buy a developer a beer!
