                               Psi4 1.4a3.dev225

  ==> Input File <==

--------------------------------------------------------------------------
#psi4
#
memory 32 gb

molecule  {
0 1
  O        3.0568210     0.0670890     0.3064100
  C       -1.7873110     0.5014740    -0.3308760
  C       -2.7589810    -0.3710180     0.4711220
  C       -0.4385240    -0.1343210    -0.4437030
  C        0.7079740     0.3780980     0.0389610
  C        1.9769390    -0.3447360    -0.1093610
  H       -1.6911510     1.4872370     0.1370160
  H       -2.1942130     0.6629350    -1.3374030
  H       -2.8765390    -1.3546870     0.0071490
  H       -3.7457810     0.0968040     0.5260030
  H       -2.3920550    -0.5186010     1.4901810
  H       -0.3999007    -1.1494236    -0.9680227
  H        0.7410060     1.3377710     0.5508970
  H        1.9051690    -1.3201300    -0.6368870
units angstrom
no_reorient  #important for SAPT in psi4, default
symmetry c1  #important for SAPT in psi4, default
}

set PROPERTIES_ORIGIN ["COM"]
properties('MP2/aug-cc-pvtz', properties = ['dipole'])
--------------------------------------------------------------------------

    Molecular point group: c1
  Charge       = 0
  Multiplicity = 1
  Basis Set: AUG-CC-PVTZ
    Blend: AUG-CC-PVTZ
  Basis Set: (AUG-CC-PVTZ AUX)
    Blend: AUG-CC-PVTZ-JKFIT

    Orbital Energies [Eh]
    ---------------------

    Doubly Occupied:

       1A    -20.549212     2A    -11.331983     3A    -11.280490
       4A    -11.251479     5A    -11.246016     6A    -11.235943
       7A     -1.372937     8A     -1.114847     9A     -1.031634
      10A     -0.905054    11A     -0.816491    12A     -0.776776
      13A     -0.676451    14A     -0.648999    15A     -0.616208
      16A     -0.606052    17A     -0.555111    18A     -0.546875
      19A     -0.526519    20A     -0.516475    21A     -0.505492
      22A     -0.424118    23A     -0.380967

  @DF-RHF Final Energy:  -268.93349254252485

   => Energetics <=

    Nuclear Repulsion Energy =            209.6691459418018439
    One-Electron Energy =                -779.3730209705344123
    Two-Electron Energy =                 300.7703824862077226
    Total Energy =                       -268.9334925425248457
  Basis Set: (AUG-CC-PVTZ AUX)
    Blend: AUG-CC-PVTZ-RI
    Molecular point group: c1

    Geometry (in Angstrom), charge = 0, multiplicity = 1:

       Center              X                  Y                   Z               Mass
    ------------   -----------------  -----------------  -----------------  -----------------
         O            2.931217399738     0.059201304138     0.304246683794    15.994914619570
         C           -1.912914600262     0.493586304138    -0.333039316206    12.000000000000
         C           -2.884584600262    -0.378905695862     0.468958683794    12.000000000000
         C           -0.564127600262    -0.142208695862    -0.445866316206    12.000000000000
         C            0.582370399738     0.370210304138     0.036797683794    12.000000000000
         C            1.851335399738    -0.352623695862    -0.111524316206    12.000000000000
         H           -1.816754600262     1.479349304138     0.134852683794     1.007825032230
         H           -2.319816600262     0.655047304138    -1.339566316206     1.007825032230
         H           -3.002142600262    -1.362574695862     0.004985683794     1.007825032230
         H           -3.871384600262     0.088916304138     0.523839683794     1.007825032230
         H           -2.517658600262    -0.526488695862     1.488017683794     1.007825032230
         H           -0.525504300262    -1.157311295862    -0.970186016206     1.007825032230
         H            0.615402399738     1.329883304138     0.548733683794     1.007825032230
         H            1.779565399738    -1.328017695862    -0.639050316206     1.007825032230

  Basis Set: AUG-CC-PVTZ
    Blend: AUG-CC-PVTZ
  Basis Set: (AUG-CC-PVTZ AUX)
    Blend: AUG-CC-PVTZ-JKFIT
	 Reference Energy          =    -268.9334925425248457 [Eh]
	 Singles Energy            =      -0.0000000000000000 [Eh]
	 Same-Spin Energy          =      -0.2695214614420961 [Eh]
	 Opposite-Spin Energy      =      -0.9143708761510054 [Eh]
	 Correlation Energy        =      -1.1838923375931016 [Eh]
	 Total Energy              =    -270.1173848801179247 [Eh]

	 ================> DF-SCS-MP2 Energies <==================
	-----------------------------------------------------------
	 SCS Same-Spin Scale       =       0.3333333333333333 [-]
	 SCS Opposite-Spin Scale   =       1.2000000000000000 [-]
	 SCS Same-Spin Energy      =      -0.0898404871473654 [Eh]
	 SCS Opposite-Spin Energy  =      -1.0972450513812064 [Eh]
	 SCS Correlation Energy    =      -1.1870855385285717 [Eh]
	 SCS Total Energy          =    -270.1205780810533952 [Eh]
	-----------------------------------------------------------

  Dipole Moment: [D]
     X:    -3.9213      Y:    -0.4638      Z:    -0.8556     Total:     4.0402

*** Psi4 exiting successfully. Buy a developer a beer!
