                               Psi4 1.3.2 release

  ==> Input File <==

--------------------------------------------------------------------------
#psi4
#
memory 32 gb

molecule  {
0 1
  O        2.9178201    -0.0727631     0.2216152
  C       -1.9436970     0.3335570     0.3437070
  C       -2.8302210    -0.7631530    -0.2519080
  C       -0.5859380     0.3423530    -0.2788660
  C        0.5697440     0.1186190     0.3690800
  C        1.8486100     0.1294800    -0.3471130
  H       -1.8508390     0.1975730     1.4263050
  H       -2.4196650     1.3090330     0.1828770
  H       -2.9395310    -0.6342920    -1.3325490
  H       -3.8284810    -0.7404210     0.1934590
  H       -2.3959700    -1.7495570    -0.0705440
  H       -0.5478170     0.5276110    -1.3553930
  H        0.6030990    -0.0751360     1.4392450
  H        1.7387933     0.3323390    -1.4344803
units angstrom
no_reorient  #important for SAPT in psi4, default
symmetry c1  #important for SAPT in psi4, default
}

set PROPERTIES_ORIGIN ["COM"]
properties('MP2/aug-cc-pvtz', properties = ['dipole'])
--------------------------------------------------------------------------

    Molecular point group: c1
  Charge       = 0
  Multiplicity = 1
  Basis Set: AUG-CC-PVTZ
    Blend: AUG-CC-PVTZ
  Basis Set: (AUG-CC-PVTZ AUX)
    Blend: AUG-CC-PVTZ-JKFIT

    Orbital Energies [Eh]
    ---------------------

    Doubly Occupied:

       1A    -20.550228     2A    -11.332630     3A    -11.273007
       4A    -11.249769     5A    -11.243026     6A    -11.235176
       7A     -1.374084     8A     -1.116013     9A     -1.031630
      10A     -0.905715    11A     -0.817762    12A     -0.781869
      13A     -0.678655    14A     -0.649194    15A     -0.615371
      16A     -0.607397    17A     -0.557324    18A     -0.546878
      19A     -0.527379    20A     -0.516393    21A     -0.506344
      22A     -0.424717    23A     -0.379851

  @DF-RHF Final Energy:  -268.93509627067550

   => Energetics <=

    Nuclear Repulsion Energy =            210.2898150814741030
    One-Electron Energy =                -780.6090027348467402
    Two-Electron Energy =                 301.3840913826971359
    Total Energy =                       -268.9350962706755013
  Basis Set: (AUG-CC-PVTZ AUX)
    Blend: AUG-CC-PVTZ-RI
    Molecular point group: c1

    Geometry (in Angstrom), charge = 0, multiplicity = 1:

       Center              X                  Y                   Z               Mass
    ------------   -----------------  -----------------  -----------------  -----------------
         O            2.922093815618    -0.071895424455     0.214417822475    15.994914619570
         C           -1.939423284382     0.334424675545     0.336509622475    12.000000000000
         C           -2.825947284382    -0.762285324455    -0.259105377525    12.000000000000
         C           -0.581664284382     0.343220675545    -0.286063377525    12.000000000000
         C            0.574017715618     0.119486675545     0.361882622475    12.000000000000
         C            1.852883715618     0.130347675545    -0.354310377525    12.000000000000
         H           -1.846565284382     0.198440675545     1.419107622475     1.007825032230
         H           -2.415391284382     1.309900675545     0.175679622475     1.007825032230
         H           -2.935257284382    -0.633424324455    -1.339746377525     1.007825032230
         H           -3.824207284382    -0.739553324455     0.186261622475     1.007825032230
         H           -2.391696284382    -1.748689324455    -0.077741377525     1.007825032230
         H           -0.543543284382     0.528478675545    -1.362590377525     1.007825032230
         H            0.607372715618    -0.074268324455     1.432047622475     1.007825032230
         H            1.743067015618     0.333206675545    -1.441677677525     1.007825032230

  Basis Set: AUG-CC-PVTZ
    Blend: AUG-CC-PVTZ
  Basis Set: (AUG-CC-PVTZ AUX)
    Blend: AUG-CC-PVTZ-JKFIT
	 Reference Energy          =    -268.9350962706755013 [Eh]
	 Singles Energy            =      -0.0000000000000000 [Eh]
	 Same-Spin Energy          =      -0.2695498585048557 [Eh]
	 Opposite-Spin Energy      =      -0.9140705458381335 [Eh]
	 Correlation Energy        =      -1.1836204043429892 [Eh]
	 Total Energy              =    -270.1187166750185042 [Eh]

	 ================> DF-SCS-MP2 Energies <==================
	-----------------------------------------------------------
	 SCS Same-Spin Scale       =       0.3333333333333333 [-]
	 SCS Opposite-Spin Scale   =       1.2000000000000000 [-]
	 SCS Same-Spin Energy      =      -0.0898499528349519 [Eh]
	 SCS Opposite-Spin Energy  =      -1.0968846550057603 [Eh]
	 SCS Correlation Energy    =      -1.1867346078407122 [Eh]
	 SCS Total Energy          =    -270.1218308785162208 [Eh]
	-----------------------------------------------------------

  Dipole Moment: [D]
     X:    -3.8773      Y:     0.4145      Z:    -0.8370     Total:     3.9882

*** Psi4 exiting successfully. Buy a developer a beer!
