                               Psi4 1.3.2 release

  ==> Input File <==

--------------------------------------------------------------------------
#psi4
#
memory 32 gb

molecule  {
0 1
  O        2.9378530    -0.0680150     0.1840270
  C       -1.9436970     0.3335570     0.3437070
  C       -2.7690582    -0.7838913    -0.2993662
  C       -0.6083333     0.2822794    -0.3236447
  C        0.5697440     0.1186190     0.3690800
  C        1.8486100     0.1294800    -0.3471130
  H       -1.8508390     0.1975730     1.4263050
  H       -2.4196650     1.3090330     0.1828770
  H       -2.9395310    -0.6342920    -1.3325490
  H       -3.8284810    -0.7404210     0.1934590
  H       -2.3959700    -1.7495570    -0.0705440
  H       -0.5478170     0.5276110    -1.3553930
  H        0.6030990    -0.0751360     1.4392450
  H        1.7772940     0.3293450    -1.4382350
units angstrom
no_reorient  #important for SAPT in psi4, default
symmetry c1  #important for SAPT in psi4, default
}

set PROPERTIES_ORIGIN ["COM"]
properties('MP2/aug-cc-pvtz', properties = ['dipole'])
--------------------------------------------------------------------------

    Molecular point group: c1
  Charge       = 0
  Multiplicity = 1
  Basis Set: AUG-CC-PVTZ
    Blend: AUG-CC-PVTZ
  Basis Set: (AUG-CC-PVTZ AUX)
    Blend: AUG-CC-PVTZ-JKFIT

    Orbital Energies [Eh]
    ---------------------

    Doubly Occupied:

       1A    -20.546870     2A    -11.329924     3A    -11.276895
       4A    -11.252063     5A    -11.248313     6A    -11.236247
       7A     -1.371320     8A     -1.115702     9A     -1.029352
      10A     -0.904366    11A     -0.818630    12A     -0.784923
      13A     -0.680075    14A     -0.648070    15A     -0.624172
      16A     -0.600736    17A     -0.562846    18A     -0.549719
      19A     -0.525923    20A     -0.520222    21A     -0.499142
      22A     -0.421729    23A     -0.372778

  @DF-RHF Final Energy:  -268.92373590799610

   => Energetics <=

    Nuclear Repulsion Energy =            210.1902639879126014
    One-Electron Energy =                -780.3879639617924795
    Two-Electron Energy =                 301.2739640658838312
    Total Energy =                       -268.9237359079961038
  Basis Set: (AUG-CC-PVTZ AUX)
    Blend: AUG-CC-PVTZ-RI
    Molecular point group: c1

    Geometry (in Angstrom), charge = 0, multiplicity = 1:

       Center              X                  Y                   Z               Mass
    ------------   -----------------  -----------------  -----------------  -----------------
         O            2.932318710997    -0.056478263213     0.197194808536    15.994914619570
         C           -1.949231289003     0.345093736787     0.356874808536    12.000000000000
         C           -2.774592489003    -0.772354563213    -0.286198391464    12.000000000000
         C           -0.613867589003     0.293816136787    -0.310476891464    12.000000000000
         C            0.564209710997     0.130155736787     0.382247808536    12.000000000000
         C            1.843075710997     0.141016736787    -0.333945191464    12.000000000000
         H           -1.856373289003     0.209109736787     1.439472808536     1.007825032230
         H           -2.425199289003     1.320569736787     0.196044808536     1.007825032230
         H           -2.945065289003    -0.622755263213    -1.319381191464     1.007825032230
         H           -3.834015289003    -0.728884263213     0.206626808536     1.007825032230
         H           -2.401504289003    -1.738020263213    -0.057376191464     1.007825032230
         H           -0.553351289003     0.539147736787    -1.342225191464     1.007825032230
         H            0.597564710997    -0.063599263213     1.452412808536     1.007825032230
         H            1.771759710997     0.340881736787    -1.425067191464     1.007825032230

  Basis Set: AUG-CC-PVTZ
    Blend: AUG-CC-PVTZ
  Basis Set: (AUG-CC-PVTZ AUX)
    Blend: AUG-CC-PVTZ-JKFIT
	 Reference Energy          =    -268.9237359079961038 [Eh]
	 Singles Energy            =      -0.0000000000000000 [Eh]
	 Same-Spin Energy          =      -0.2700948254793362 [Eh]
	 Opposite-Spin Energy      =      -0.9153806446365823 [Eh]
	 Correlation Energy        =      -1.1854754701159185 [Eh]
	 Total Energy              =    -270.1092113781120361 [Eh]

	 ================> DF-SCS-MP2 Energies <==================
	-----------------------------------------------------------
	 SCS Same-Spin Scale       =       0.3333333333333333 [-]
	 SCS Opposite-Spin Scale   =       1.2000000000000000 [-]
	 SCS Same-Spin Energy      =      -0.0900316084931121 [Eh]
	 SCS Opposite-Spin Energy  =      -1.0984567735638988 [Eh]
	 SCS Correlation Energy    =      -1.1884883820570109 [Eh]
	 SCS Total Energy          =    -270.1122242900531205 [Eh]
	-----------------------------------------------------------

  Dipole Moment: [D]
     X:    -3.9680      Y:     0.4686      Z:    -0.7836     Total:     4.0717

*** Psi4 exiting successfully. Buy a developer a beer!
