                               Psi4 1.3.2 release

  ==> Input File <==

--------------------------------------------------------------------------
#psi4
#
memory 32 gb

molecule  {
0 1
  O        2.9378530    -0.0680150     0.1840270
  C       -1.9436970     0.3335570     0.3437070
  C       -2.8302210    -0.7631530    -0.2519080
  C       -0.5859380     0.3423530    -0.2788660
  C        0.5813292     0.1210676     0.3488376
  C        1.8486100     0.1294800    -0.3471130
  H       -1.8508390     0.1975730     1.4263050
  H       -2.4196650     1.3090330     0.1828770
  H       -2.9395310    -0.6342920    -1.3325490
  H       -3.8284810    -0.7404210     0.1934590
  H       -2.3959700    -1.7495570    -0.0705440
  H       -0.5288420     0.5257139    -1.3548785
  H        0.6030990    -0.0751360     1.4392450
  H        1.7772940     0.3293450    -1.4382350
units angstrom
no_reorient  #important for SAPT in psi4, default
symmetry c1  #important for SAPT in psi4, default
}

set PROPERTIES_ORIGIN ["COM"]
properties('MP2/aug-cc-pvtz', properties = ['dipole'])
--------------------------------------------------------------------------

    Molecular point group: c1
  Charge       = 0
  Multiplicity = 1
  Basis Set: AUG-CC-PVTZ
    Blend: AUG-CC-PVTZ
  Basis Set: (AUG-CC-PVTZ AUX)
    Blend: AUG-CC-PVTZ-JKFIT

    Orbital Energies [Eh]
    ---------------------

    Doubly Occupied:

       1A    -20.548452     2A    -11.330078     3A    -11.275742
       4A    -11.252188     5A    -11.244963     6A    -11.236542
       7A     -1.372905     8A     -1.117971     9A     -1.034740
      10A     -0.908541    11A     -0.820354    12A     -0.778709
      13A     -0.680192    14A     -0.650073    15A     -0.617139
      16A     -0.606262    17A     -0.552720    18A     -0.548525
      19A     -0.527730    20A     -0.518141    21A     -0.507173
      22A     -0.425101    23A     -0.381160

  @DF-RHF Final Energy:  -268.93498163193635

   => Energetics <=

    Nuclear Repulsion Energy =            210.2309371278243759
    One-Electron Energy =                -780.4610380214578527
    Two-Electron Energy =                 301.2951192616970957
    Total Energy =                       -268.9349816319363526
  Basis Set: (AUG-CC-PVTZ AUX)
    Blend: AUG-CC-PVTZ-RI
    Molecular point group: c1

    Geometry (in Angstrom), charge = 0, multiplicity = 1:

       Center              X                  Y                   Z               Mass
    ------------   -----------------  -----------------  -----------------  -----------------
         O            2.935971735007    -0.068341736177     0.186910748542    15.994914619570
         C           -1.945578264993     0.333230263823     0.346590748542    12.000000000000
         C           -2.832102264993    -0.763479736177    -0.249024251458    12.000000000000
         C           -0.587819264993     0.342026263823    -0.275982251458    12.000000000000
         C            0.579447935007     0.120740863823     0.351721348542    12.000000000000
         C            1.846728735007     0.129153263823    -0.344229251458    12.000000000000
         H           -1.852720264993     0.197246263823     1.429188748542     1.007825032230
         H           -2.421546264993     1.308706263823     0.185760748542     1.007825032230
         H           -2.941412264993    -0.634618736177    -1.329665251458     1.007825032230
         H           -3.830362264993    -0.740747736177     0.196342748542     1.007825032230
         H           -2.397851264993    -1.749883736177    -0.067660251458     1.007825032230
         H           -0.530723264993     0.525387163823    -1.351994751458     1.007825032230
         H            0.601217735007    -0.075462736177     1.442128748542     1.007825032230
         H            1.775412735007     0.329018263823    -1.435351251458     1.007825032230

  Basis Set: AUG-CC-PVTZ
    Blend: AUG-CC-PVTZ
  Basis Set: (AUG-CC-PVTZ AUX)
    Blend: AUG-CC-PVTZ-JKFIT
	 Reference Energy          =    -268.9349816319363526 [Eh]
	 Singles Energy            =      -0.0000000000000000 [Eh]
	 Same-Spin Energy          =      -0.2696545881991481 [Eh]
	 Opposite-Spin Energy      =      -0.9141375279926613 [Eh]
	 Correlation Energy        =      -1.1837921161918095 [Eh]
	 Total Energy              =    -270.1187737481281488 [Eh]

	 ================> DF-SCS-MP2 Energies <==================
	-----------------------------------------------------------
	 SCS Same-Spin Scale       =       0.3333333333333333 [-]
	 SCS Opposite-Spin Scale   =       1.2000000000000000 [-]
	 SCS Same-Spin Energy      =      -0.0898848627330494 [Eh]
	 SCS Opposite-Spin Energy  =      -1.0969650335911936 [Eh]
	 SCS Correlation Energy    =      -1.1868498963242429 [Eh]
	 SCS Total Energy          =    -270.1218315282606000 [Eh]
	-----------------------------------------------------------

  Dipole Moment: [D]
     X:    -4.0120      Y:     0.4064      Z:    -0.7649     Total:     4.1045

*** Psi4 exiting successfully. Buy a developer a beer!
