                               Psi4 1.3.2 release

  ==> Input File <==

--------------------------------------------------------------------------
#psi4
#
memory 32 gb

molecule  {
0 1
  O        2.9378530    -0.0680150     0.1840270
  C       -1.9436970     0.3335570     0.3437070
  C       -2.8302210    -0.7631530    -0.2519080
  C       -0.4041417     0.3435307    -0.3622250
  C        0.5697440     0.1186190     0.3690800
  C        1.8486100     0.1294800    -0.3471130
  H       -1.8508390     0.1975730     1.4263050
  H       -2.4196650     1.3090330     0.1828770
  H       -2.9395310    -0.6342920    -1.3325490
  H       -3.8284810    -0.7404210     0.1934590
  H       -2.3959700    -1.7495570    -0.0705440
  H       -0.5478170     0.5276110    -1.3553930
  H        0.6030990    -0.0751360     1.4392450
  H        1.7772940     0.3293450    -1.4382350
units angstrom
no_reorient  #important for SAPT in psi4, default
symmetry c1  #important for SAPT in psi4, default
}

set PROPERTIES_ORIGIN ["COM"]
properties('MP2/aug-cc-pvtz', properties = ['dipole'])
--------------------------------------------------------------------------

    Molecular point group: c1
  Charge       = 0
  Multiplicity = 1
  Basis Set: AUG-CC-PVTZ
    Blend: AUG-CC-PVTZ
  Basis Set: (AUG-CC-PVTZ AUX)
    Blend: AUG-CC-PVTZ-JKFIT

    Orbital Energies [Eh]
    ---------------------

    Doubly Occupied:

       1A    -20.548868     2A    -11.329294     3A    -11.258981
       4A    -11.252780     5A    -11.235844     6A    -11.230502
       7A     -1.373489     8A     -1.126517     9A     -1.030184
      10A     -0.885639    11A     -0.816348    12A     -0.795853
      13A     -0.691735    14A     -0.645257    15A     -0.612802
      16A     -0.605805    17A     -0.579101    18A     -0.540242
      19A     -0.523626    20A     -0.505481    21A     -0.471021
      22A     -0.414235    23A     -0.410691

  @DF-RHF Final Energy:  -268.89904523453032

   => Energetics <=

    Nuclear Repulsion Energy =            210.2175798886857194
    One-Electron Energy =                -780.4646578754757229
    Two-Electron Energy =                 301.3480327522597122
    Total Energy =                       -268.8990452345303197
  Basis Set: (AUG-CC-PVTZ AUX)
    Blend: AUG-CC-PVTZ-RI
    Molecular point group: c1

    Geometry (in Angstrom), charge = 0, multiplicity = 1:

       Center              X                  Y                   Z               Mass
    ------------   -----------------  -----------------  -----------------  -----------------
         O            2.911900005989    -0.068183048936     0.195927404900    15.994914619570
         C           -1.969649994011     0.333388951064     0.355607404900    12.000000000000
         C           -2.856173994011    -0.763321048936    -0.240007595100    12.000000000000
         C           -0.430094694011     0.343362651064    -0.350324595100    12.000000000000
         C            0.543791005989     0.118450951064     0.380980404900    12.000000000000
         C            1.822657005989     0.129311951064    -0.335212595100    12.000000000000
         H           -1.876791994011     0.197404951064     1.438205404900     1.007825032230
         H           -2.445617994011     1.308864951064     0.194777404900     1.007825032230
         H           -2.965483994011    -0.634460048936    -1.320648595100     1.007825032230
         H           -3.854433994011    -0.740589048936     0.205359404900     1.007825032230
         H           -2.421922994011    -1.749725048936    -0.058643595100     1.007825032230
         H           -0.573769994011     0.527442951064    -1.343492595100     1.007825032230
         H            0.577146005989    -0.075304048936     1.451145404900     1.007825032230
         H            1.751341005989     0.329176951064    -1.426334595100     1.007825032230

  Basis Set: AUG-CC-PVTZ
    Blend: AUG-CC-PVTZ
  Basis Set: (AUG-CC-PVTZ AUX)
    Blend: AUG-CC-PVTZ-JKFIT
	 Reference Energy          =    -268.8990452345303197 [Eh]
	 Singles Energy            =      -0.0000000000000000 [Eh]
	 Same-Spin Energy          =      -0.2682413500547555 [Eh]
	 Opposite-Spin Energy      =      -0.9126938854005169 [Eh]
	 Correlation Energy        =      -1.1809352354552725 [Eh]
	 Total Energy              =    -270.0799804699855713 [Eh]

	 ================> DF-SCS-MP2 Energies <==================
	-----------------------------------------------------------
	 SCS Same-Spin Scale       =       0.3333333333333333 [-]
	 SCS Opposite-Spin Scale   =       1.2000000000000000 [-]
	 SCS Same-Spin Energy      =      -0.0894137833515851 [Eh]
	 SCS Opposite-Spin Energy  =      -1.0952326624806201 [Eh]
	 SCS Correlation Energy    =      -1.1846464458322052 [Eh]
	 SCS Total Energy          =    -270.0836916803625058 [Eh]
	-----------------------------------------------------------

  Dipole Moment: [D]
     X:    -3.6230      Y:     0.4011      Z:    -0.8136     Total:     3.7348

*** Psi4 exiting successfully. Buy a developer a beer!
