                               Psi4 1.4a3.dev225

  ==> Input File <==

--------------------------------------------------------------------------
#psi4
#
memory 32 gb

molecule  {
0 1
  O        3.0568210     0.0670890     0.3064100
  C       -1.7873110     0.5014740    -0.3308760
  C       -2.7589810    -0.3710180     0.4711220
  C       -0.4385240    -0.1343210    -0.4437030
  C        0.7079740     0.3780980     0.0389610
  C        1.9769390    -0.3447360    -0.1093610
  H       -1.6911510     1.4872370     0.1370160
  H       -2.1942130     0.6629350    -1.3374030
  H       -2.8765390    -1.3546870     0.0071490
  H       -3.7457810     0.0968040     0.5260030
  H       -2.3920550    -0.5186010     1.4901810
  H       -0.4015900    -1.1050250    -0.9450900
  H        0.7410060     1.3377710     0.5508970
  H        1.9019397    -1.3640181    -0.6606232
units angstrom
no_reorient  #important for SAPT in psi4, default
symmetry c1  #important for SAPT in psi4, default
}

set PROPERTIES_ORIGIN ["COM"]
properties('MP2/aug-cc-pvtz', properties = ['dipole'])
--------------------------------------------------------------------------

    Molecular point group: c1
  Charge       = 0
  Multiplicity = 1
  Basis Set: AUG-CC-PVTZ
    Blend: AUG-CC-PVTZ
  Basis Set: (AUG-CC-PVTZ AUX)
    Blend: AUG-CC-PVTZ-JKFIT

    Orbital Energies [Eh]
    ---------------------

    Doubly Occupied:

       1A    -20.550531     2A    -11.337732     3A    -11.275239
       4A    -11.251090     5A    -11.246468     6A    -11.236068
       7A     -1.373756     8A     -1.116196     9A     -1.031485
      10A     -0.904859    11A     -0.814861    12A     -0.776870
      13A     -0.675879    14A     -0.649492    15A     -0.616243
      16A     -0.604868    17A     -0.558493    18A     -0.546990
      19A     -0.527251    20A     -0.516784    21A     -0.507183
      22A     -0.422196    23A     -0.381175

  @DF-RHF Final Energy:  -268.93339004029679

   => Energetics <=

    Nuclear Repulsion Energy =            209.6752674183380805
    One-Electron Energy =                -779.3739034317723053
    Two-Electron Energy =                 300.7652459731374393
    Total Energy =                       -268.9333900402967856
  Basis Set: (AUG-CC-PVTZ AUX)
    Blend: AUG-CC-PVTZ-RI
    Molecular point group: c1

    Geometry (in Angstrom), charge = 0, multiplicity = 1:

       Center              X                  Y                   Z               Mass
    ------------   -----------------  -----------------  -----------------  -----------------
         O            2.931276372314     0.059195183393     0.304256317524    15.994914619570
         C           -1.912855627686     0.493580183393    -0.333029682476    12.000000000000
         C           -2.884525627686    -0.378911816607     0.468968317524    12.000000000000
         C           -0.564068627686    -0.142214816607    -0.445856682476    12.000000000000
         C            0.582429372314     0.370204183393     0.036807317524    12.000000000000
         C            1.851394372314    -0.352629816607    -0.111514682476    12.000000000000
         H           -1.816695627686     1.479343183393     0.134862317524     1.007825032230
         H           -2.319757627686     0.655041183393    -1.339556682476     1.007825032230
         H           -3.002083627686    -1.362580816607     0.004995317524     1.007825032230
         H           -3.871325627686     0.088910183393     0.523849317524     1.007825032230
         H           -2.517599627686    -0.526494816607     1.488027317524     1.007825032230
         H           -0.527134627686    -1.112918816607    -0.947243682476     1.007825032230
         H            0.615461372314     1.329877183393     0.548743317524     1.007825032230
         H            1.776395072314    -1.371911916607    -0.662776882476     1.007825032230

  Basis Set: AUG-CC-PVTZ
    Blend: AUG-CC-PVTZ
  Basis Set: (AUG-CC-PVTZ AUX)
    Blend: AUG-CC-PVTZ-JKFIT
	 Reference Energy          =    -268.9333900402967856 [Eh]
	 Singles Energy            =      -0.0000000000000000 [Eh]
	 Same-Spin Energy          =      -0.2696331853625562 [Eh]
	 Opposite-Spin Energy      =      -0.9144547822018598 [Eh]
	 Correlation Energy        =      -1.1840879675644160 [Eh]
	 Total Energy              =    -270.1174780078612230 [Eh]

	 ================> DF-SCS-MP2 Energies <==================
	-----------------------------------------------------------
	 SCS Same-Spin Scale       =       0.3333333333333333 [-]
	 SCS Opposite-Spin Scale   =       1.2000000000000000 [-]
	 SCS Same-Spin Energy      =      -0.0898777284541854 [Eh]
	 SCS Opposite-Spin Energy  =      -1.0973457386422318 [Eh]
	 SCS Correlation Energy    =      -1.1872234670964172 [Eh]
	 SCS Total Energy          =    -270.1206135073932160 [Eh]
	-----------------------------------------------------------

  Dipole Moment: [D]
     X:    -3.9162      Y:    -0.4304      Z:    -0.8364     Total:     4.0276

*** Psi4 exiting successfully. Buy a developer a beer!
