                               Psi4 1.3.2 release

  ==> Input File <==

--------------------------------------------------------------------------
#psi4
#
memory 32 gb

molecule  {
0 1
  O        2.9378530    -0.0680150     0.1840270
  C       -1.9436970     0.3335570     0.3437070
  C       -2.8302210    -0.7631530    -0.2519080
  C       -0.7677343     0.3411753    -0.1955070
  C        0.5697440     0.1186190     0.3690800
  C        1.8486100     0.1294800    -0.3471130
  H       -1.8508390     0.1975730     1.4263050
  H       -2.4196650     1.3090330     0.1828770
  H       -2.9395310    -0.6342920    -1.3325490
  H       -3.8284810    -0.7404210     0.1934590
  H       -2.3959700    -1.7495570    -0.0705440
  H       -0.5478170     0.5276110    -1.3553930
  H        0.6030990    -0.0751360     1.4392450
  H        1.7772940     0.3293450    -1.4382350
units angstrom
no_reorient  #important for SAPT in psi4, default
symmetry c1  #important for SAPT in psi4, default
}

set PROPERTIES_ORIGIN ["COM"]
properties('MP2/aug-cc-pvtz', properties = ['dipole'])
--------------------------------------------------------------------------

    Molecular point group: c1
  Charge       = 0
  Multiplicity = 1
  Basis Set: AUG-CC-PVTZ
    Blend: AUG-CC-PVTZ
  Basis Set: (AUG-CC-PVTZ AUX)
    Blend: AUG-CC-PVTZ-JKFIT

    Orbital Energies [Eh]
    ---------------------

    Doubly Occupied:

       1A    -20.544447     2A    -11.331176     3A    -11.295818
       4A    -11.253598     5A    -11.246444     6A    -11.245267
       7A     -1.368958     8A     -1.152043     9A     -1.017788
      10A     -0.932920    11A     -0.811839    12A     -0.769970
      13A     -0.682888    14A     -0.667394    15A     -0.620889
      16A     -0.608971    17A     -0.574111    18A     -0.545612
      19A     -0.540907    20A     -0.522751    21A     -0.481894
      22A     -0.422034    23A     -0.348202

  @DF-RHF Final Energy:  -268.87039969502985

   => Energetics <=

    Nuclear Repulsion Energy =            210.5558175310334263
    One-Electron Energy =                -780.8805902352459043
    Two-Electron Energy =                 301.4543730091826319
    Total Energy =                       -268.8703996950298460
  Basis Set: (AUG-CC-PVTZ AUX)
    Blend: AUG-CC-PVTZ-RI
    Molecular point group: c1

    Geometry (in Angstrom), charge = 0, multiplicity = 1:

       Center              X                  Y                   Z               Mass
    ------------   -----------------  -----------------  -----------------  -----------------
         O            2.963806265725    -0.067846793456     0.172126844023    15.994914619570
         C           -1.917743734275     0.333725206544     0.331806844023    12.000000000000
         C           -2.804267734275    -0.762984793456    -0.263808155977    12.000000000000
         C           -0.741781034275     0.341343506544    -0.207407155977    12.000000000000
         C            0.595697265725     0.118787206544     0.357179844023    12.000000000000
         C            1.874563265725     0.129648206544    -0.359013155977    12.000000000000
         H           -1.824885734275     0.197741206544     1.414404844023     1.007825032230
         H           -2.393711734275     1.309201206544     0.170976844023     1.007825032230
         H           -2.913577734275    -0.634123793456    -1.344449155977     1.007825032230
         H           -3.802527734275    -0.740252793456     0.181558844023     1.007825032230
         H           -2.370016734275    -1.749388793456    -0.082444155977     1.007825032230
         H           -0.521863734275     0.527779206544    -1.367293155977     1.007825032230
         H            0.629052265725    -0.074967793456     1.427344844023     1.007825032230
         H            1.803247265725     0.329513206544    -1.450135155977     1.007825032230

  Basis Set: AUG-CC-PVTZ
    Blend: AUG-CC-PVTZ
  Basis Set: (AUG-CC-PVTZ AUX)
    Blend: AUG-CC-PVTZ-JKFIT
	 Reference Energy          =    -268.8703996950298460 [Eh]
	 Singles Energy            =      -0.0000000000000000 [Eh]
	 Same-Spin Energy          =      -0.2748158122462377 [Eh]
	 Opposite-Spin Energy      =      -0.9216413475689642 [Eh]
	 Correlation Energy        =      -1.1964571598152021 [Eh]
	 Total Energy              =    -270.0668568548450708 [Eh]

	 ================> DF-SCS-MP2 Energies <==================
	-----------------------------------------------------------
	 SCS Same-Spin Scale       =       0.3333333333333333 [-]
	 SCS Opposite-Spin Scale   =       1.2000000000000000 [-]
	 SCS Same-Spin Energy      =      -0.0916052707487459 [Eh]
	 SCS Opposite-Spin Energy  =      -1.1059696170827571 [Eh]
	 SCS Correlation Energy    =      -1.1975748878315029 [Eh]
	 SCS Total Energy          =    -270.0679745828613250 [Eh]
	-----------------------------------------------------------

  Dipole Moment: [D]
     X:    -4.4593      Y:     0.3985      Z:    -0.6822     Total:     4.5287

*** Psi4 exiting successfully. Buy a developer a beer!
