                               Psi4 1.3.2 release

  ==> Input File <==

--------------------------------------------------------------------------
#psi4
#
memory 32 gb

molecule  {
0 1
  O        2.9378530    -0.0680150     0.1840270
  C       -1.9436970     0.3335570     0.3437070
  C       -2.8302210    -0.7631530    -0.2519080
  C       -0.6196431     0.3346000    -0.2176076
  C        0.5697440     0.1186190     0.3690800
  C        1.8486100     0.1294800    -0.3471130
  H       -1.8508390     0.1975730     1.4263050
  H       -2.4196650     1.3090330     0.1828770
  H       -2.9395310    -0.6342920    -1.3325490
  H       -3.8284810    -0.7404210     0.1934590
  H       -2.3959700    -1.7495570    -0.0705440
  H       -0.5478170     0.5276110    -1.3553930
  H        0.5463756    -0.0700292     1.4404214
  H        1.7772940     0.3293450    -1.4382350
units angstrom
no_reorient  #important for SAPT in psi4, default
symmetry c1  #important for SAPT in psi4, default
}

set PROPERTIES_ORIGIN ["COM"]
properties('MP2/aug-cc-pvtz', properties = ['dipole'])
--------------------------------------------------------------------------

    Molecular point group: c1
  Charge       = 0
  Multiplicity = 1
  Basis Set: AUG-CC-PVTZ
    Blend: AUG-CC-PVTZ
  Basis Set: (AUG-CC-PVTZ AUX)
    Blend: AUG-CC-PVTZ-JKFIT

    Orbital Energies [Eh]
    ---------------------

    Doubly Occupied:

       1A    -20.550643     2A    -11.334601     3A    -11.276775
       4A    -11.248888     5A    -11.244164     6A    -11.237780
       7A     -1.374346     8A     -1.124117     9A     -1.033659
      10A     -0.912454    11A     -0.820355    12A     -0.772988
      13A     -0.679410    14A     -0.654458    15A     -0.620280
      16A     -0.607865    17A     -0.554780    18A     -0.545816
      19A     -0.529527    20A     -0.522859    21A     -0.497779
      22A     -0.427160    23A     -0.379305

  @DF-RHF Final Energy:  -268.92851697953660

   => Energetics <=

    Nuclear Repulsion Energy =            210.4712106098705533
    One-Electron Energy =                -780.8994341143994689
    Two-Electron Energy =                 301.4997065249922912
    Total Energy =                       -268.9285169795365960
  Basis Set: (AUG-CC-PVTZ AUX)
    Blend: AUG-CC-PVTZ-RI
    Molecular point group: c1

    Geometry (in Angstrom), charge = 0, multiplicity = 1:

       Center              X                  Y                   Z               Mass
    ------------   -----------------  -----------------  -----------------  -----------------
         O            2.943344952539    -0.066969336643     0.175267807625    15.994914619570
         C           -1.938205047461     0.334602663357     0.334947807625    12.000000000000
         C           -2.824729047461    -0.762107336643    -0.260667192375    12.000000000000
         C           -0.614151147461     0.335645663357    -0.226366792375    12.000000000000
         C            0.575235952539     0.119664663357     0.360320807625    12.000000000000
         C            1.854101952539     0.130525663357    -0.355872192375    12.000000000000
         H           -1.845347047461     0.198618663357     1.417545807625     1.007825032230
         H           -2.414173047461     1.310078663357     0.174117807625     1.007825032230
         H           -2.934039047461    -0.633246336643    -1.341308192375     1.007825032230
         H           -3.822989047461    -0.739375336643     0.184699807625     1.007825032230
         H           -2.390478047461    -1.748511336643    -0.079303192375     1.007825032230
         H           -0.542325047461     0.528656663357    -1.364152192375     1.007825032230
         H            0.551867552539    -0.068983536643     1.431662207625     1.007825032230
         H            1.782785952539     0.330390663357    -1.446994192375     1.007825032230

  Basis Set: AUG-CC-PVTZ
    Blend: AUG-CC-PVTZ
  Basis Set: (AUG-CC-PVTZ AUX)
    Blend: AUG-CC-PVTZ-JKFIT
	 Reference Energy          =    -268.9285169795365960 [Eh]
	 Singles Energy            =      -0.0000000000000000 [Eh]
	 Same-Spin Energy          =      -0.2703193618319860 [Eh]
	 Opposite-Spin Energy      =      -0.9150541777718205 [Eh]
	 Correlation Energy        =      -1.1853735396038065 [Eh]
	 Total Energy              =    -270.1138905191403978 [Eh]

	 ================> DF-SCS-MP2 Energies <==================
	-----------------------------------------------------------
	 SCS Same-Spin Scale       =       0.3333333333333333 [-]
	 SCS Opposite-Spin Scale   =       1.2000000000000000 [-]
	 SCS Same-Spin Energy      =      -0.0901064539439953 [Eh]
	 SCS Opposite-Spin Energy  =      -1.0980650133261847 [Eh]
	 SCS Correlation Energy    =      -1.1881714672701800 [Eh]
	 SCS Total Energy          =    -270.1166884468067906 [Eh]
	-----------------------------------------------------------

  Dipole Moment: [D]
     X:    -4.0239      Y:     0.3959      Z:    -0.7371     Total:     4.1100

*** Psi4 exiting successfully. Buy a developer a beer!
