                               Psi4 1.3.2 release

  ==> Input File <==

--------------------------------------------------------------------------
#psi4
#
memory 32 gb

molecule  {
0 1
  O        2.9378530    -0.0680150     0.1840270
  C       -1.9436970     0.3335570     0.3437070
  C       -2.8302210    -0.7631530    -0.2519080
  C       -0.5554363     0.3321991    -0.2075774
  C        0.5697440     0.1186190     0.3690800
  C        1.8486100     0.1294800    -0.3471130
  H       -1.7939307     0.1955813     1.4196556
  H       -2.4196650     1.3090330     0.1828770
  H       -2.9395310    -0.6342920    -1.3325490
  H       -3.8284810    -0.7404210     0.1934590
  H       -2.3959700    -1.7495570    -0.0705440
  H       -0.5478170     0.5276110    -1.3553930
  H        0.6030990    -0.0751360     1.4392450
  H        1.7772940     0.3293450    -1.4382350
units angstrom
no_reorient  #important for SAPT in psi4, default
symmetry c1  #important for SAPT in psi4, default
}

set PROPERTIES_ORIGIN ["COM"]
properties('MP2/aug-cc-pvtz', properties = ['dipole'])
--------------------------------------------------------------------------

    Molecular point group: c1
  Charge       = 0
  Multiplicity = 1
  Basis Set: AUG-CC-PVTZ
    Blend: AUG-CC-PVTZ
  Basis Set: (AUG-CC-PVTZ AUX)
    Blend: AUG-CC-PVTZ-JKFIT

    Orbital Energies [Eh]
    ---------------------

    Doubly Occupied:

       1A    -20.552480     2A    -11.334283     3A    -11.268761
       4A    -11.250338     5A    -11.237247     6A    -11.236305
       7A     -1.375934     8A     -1.124910     9A     -1.037447
      10A     -0.906356    11A     -0.822873    12A     -0.772075
      13A     -0.679682    14A     -0.652194    15A     -0.619194
      16A     -0.606656    17A     -0.555295    18A     -0.547384
      19A     -0.530189    20A     -0.518660    21A     -0.489574
      22A     -0.426869    23A     -0.395104

  @DF-RHF Final Energy:  -268.92817248982533

   => Energetics <=

    Nuclear Repulsion Energy =            210.7819260935161196
    One-Electron Energy =                -781.5405752064414173
    Two-Electron Energy =                 301.8304766230999121
    Total Energy =                       -268.9281724898253287
  Basis Set: (AUG-CC-PVTZ AUX)
    Blend: AUG-CC-PVTZ-RI
    Molecular point group: c1

    Geometry (in Angstrom), charge = 0, multiplicity = 1:

       Center              X                  Y                   Z               Mass
    ------------   -----------------  -----------------  -----------------  -----------------
         O            2.932816417726    -0.066541476670     0.173929731392    15.994914619570
         C           -1.948733582274     0.335030523330     0.333609731392    12.000000000000
         C           -2.835257582274    -0.761679476670    -0.262005268608    12.000000000000
         C           -0.560472882274     0.333672623330    -0.217674668608    12.000000000000
         C            0.564707417726     0.120092523330     0.358982731392    12.000000000000
         C            1.843573417726     0.130953523330    -0.357210268608    12.000000000000
         H           -1.798967282274     0.197054823330     1.409558331392     1.007825032230
         H           -2.424701582274     1.310506523330     0.172779731392     1.007825032230
         H           -2.944567582274    -0.632818476670    -1.342646268608     1.007825032230
         H           -3.833517582274    -0.738947476670     0.183361731392     1.007825032230
         H           -2.401006582274    -1.748083476670    -0.080641268608     1.007825032230
         H           -0.552853582274     0.529084523330    -1.365490268608     1.007825032230
         H            0.598062417726    -0.073662476670     1.429147731392     1.007825032230
         H            1.772257417726     0.330818523330    -1.448332268608     1.007825032230

  Basis Set: AUG-CC-PVTZ
    Blend: AUG-CC-PVTZ
  Basis Set: (AUG-CC-PVTZ AUX)
    Blend: AUG-CC-PVTZ-JKFIT
	 Reference Energy          =    -268.9281724898253287 [Eh]
	 Singles Energy            =      -0.0000000000000000 [Eh]
	 Same-Spin Energy          =      -0.2692495699140153 [Eh]
	 Opposite-Spin Energy      =      -0.9133928387766701 [Eh]
	 Correlation Energy        =      -1.1826424086906853 [Eh]
	 Total Energy              =    -270.1108148985160256 [Eh]

	 ================> DF-SCS-MP2 Energies <==================
	-----------------------------------------------------------
	 SCS Same-Spin Scale       =       0.3333333333333333 [-]
	 SCS Opposite-Spin Scale   =       1.2000000000000000 [-]
	 SCS Same-Spin Energy      =      -0.0897498566380051 [Eh]
	 SCS Opposite-Spin Energy  =      -1.0960714065320041 [Eh]
	 SCS Correlation Energy    =      -1.1858212631700091 [Eh]
	 SCS Total Energy          =    -270.1139937529953272 [Eh]
	-----------------------------------------------------------

  Dipole Moment: [D]
     X:    -3.8640      Y:     0.3756      Z:    -0.7375     Total:     3.9517

*** Psi4 exiting successfully. Buy a developer a beer!
