                               Psi4 1.3.2 release

  ==> Input File <==

--------------------------------------------------------------------------
#psi4
#
memory 32 gb

molecule  {
0 1
  O        2.9378530    -0.0680150     0.1840270
  C       -1.9436970     0.3335570     0.3437070
  C       -2.8201915    -0.7668198    -0.2599346
  C       -0.5894136     0.3323380    -0.2864510
  C        0.5697440     0.1186190     0.3690800
  C        1.8486100     0.1294800    -0.3471130
  H       -1.8508390     0.1975730     1.4263050
  H       -2.4196650     1.3090330     0.1828770
  H       -2.9395310    -0.6342920    -1.3325490
  H       -3.8284810    -0.7404210     0.1934590
  H       -2.3959700    -1.7495570    -0.0705440
  H       -0.5478170     0.5276110    -1.3553930
  H        0.6030990    -0.0751360     1.4392450
  H        1.7772940     0.3293450    -1.4382350
units angstrom
no_reorient  #important for SAPT in psi4, default
symmetry c1  #important for SAPT in psi4, default
}

set PROPERTIES_ORIGIN ["COM"]
properties('MP2/aug-cc-pvtz', properties = ['dipole'])
--------------------------------------------------------------------------

    Molecular point group: c1
  Charge       = 0
  Multiplicity = 1
  Basis Set: AUG-CC-PVTZ
    Blend: AUG-CC-PVTZ
  Basis Set: (AUG-CC-PVTZ AUX)
    Blend: AUG-CC-PVTZ-JKFIT

    Orbital Energies [Eh]
    ---------------------

    Doubly Occupied:

       1A    -20.548607     2A    -11.331296     3A    -11.274702
       4A    -11.250677     5A    -11.245482     6A    -11.235609
       7A     -1.372763     8A     -1.116574     9A     -1.031720
      10A     -0.905540    11A     -0.817511    12A     -0.782399
      13A     -0.679638    14A     -0.649064    15A     -0.617548
      16A     -0.605403    17A     -0.558796    18A     -0.547225
      19A     -0.526039    20A     -0.515666    21A     -0.509219
      22A     -0.423585    23A     -0.379685

  @DF-RHF Final Energy:  -268.93554601639232

   => Energetics <=

    Nuclear Repulsion Energy =            210.0982553182306845
    One-Electron Energy =                -780.2181045179377179
    Two-Electron Energy =                 301.1843031833146824
    Total Energy =                       -268.9355460163923226
  Basis Set: (AUG-CC-PVTZ AUX)
    Blend: AUG-CC-PVTZ-RI
    Molecular point group: c1

    Geometry (in Angstrom), charge = 0, multiplicity = 1:

       Center              X                  Y                   Z               Mass
    ------------   -----------------  -----------------  -----------------  -----------------
         O            2.936917505056    -0.066061715700     0.186255827039    15.994914619570
         C           -1.944632494944     0.335510284300     0.345935827039    12.000000000000
         C           -2.821126994944    -0.764866515700    -0.257705772961    12.000000000000
         C           -0.590349094944     0.334291284300    -0.284222172961    12.000000000000
         C            0.568808505056     0.120572284300     0.371308827039    12.000000000000
         C            1.847674505056     0.131433284300    -0.344884172961    12.000000000000
         H           -1.851774494944     0.199526284300     1.428533827039     1.007825032230
         H           -2.420600494944     1.310986284300     0.185105827039     1.007825032230
         H           -2.940466494944    -0.632338715700    -1.330320172961     1.007825032230
         H           -3.829416494944    -0.738467715700     0.195687827039     1.007825032230
         H           -2.396905494944    -1.747603715700    -0.068315172961     1.007825032230
         H           -0.548752494944     0.529564284300    -1.353164172961     1.007825032230
         H            0.602163505056    -0.073182715700     1.441473827039     1.007825032230
         H            1.776358505056     0.331298284300    -1.436006172961     1.007825032230

  Basis Set: AUG-CC-PVTZ
    Blend: AUG-CC-PVTZ
  Basis Set: (AUG-CC-PVTZ AUX)
    Blend: AUG-CC-PVTZ-JKFIT
	 Reference Energy          =    -268.9355460163923226 [Eh]
	 Singles Energy            =      -0.0000000000000000 [Eh]
	 Same-Spin Energy          =      -0.2694822980548174 [Eh]
	 Opposite-Spin Energy      =      -0.9140231336695752 [Eh]
	 Correlation Energy        =      -1.1835054317243927 [Eh]
	 Total Energy              =    -270.1190514481166929 [Eh]

	 ================> DF-SCS-MP2 Energies <==================
	-----------------------------------------------------------
	 SCS Same-Spin Scale       =       0.3333333333333333 [-]
	 SCS Opposite-Spin Scale   =       1.2000000000000000 [-]
	 SCS Same-Spin Energy      =      -0.0898274326849391 [Eh]
	 SCS Opposite-Spin Energy  =      -1.0968277604034902 [Eh]
	 SCS Correlation Energy    =      -1.1866551930884293 [Eh]
	 SCS Total Energy          =    -270.1222012094807496 [Eh]
	-----------------------------------------------------------

  Dipole Moment: [D]
     X:    -3.9551      Y:     0.4167      Z:    -0.7736     Total:     4.0516

*** Psi4 exiting successfully. Buy a developer a beer!
