                               Psi4 1.4a3.dev225

  ==> Input File <==

--------------------------------------------------------------------------
#psi4
#
memory 32 gb

molecule  {
0 1
  O        3.0568210     0.0670890     0.3064100
  C       -1.7873110     0.5014740    -0.3308760
  C       -2.7589810    -0.3710180     0.4711220
  C       -0.4385240    -0.1343210    -0.4437030
  C        0.6653647     0.3590541     0.0210229
  C        1.9769390    -0.3447360    -0.1093610
  H       -1.6911510     1.4872370     0.1370160
  H       -2.1942130     0.6629350    -1.3374030
  H       -2.8765390    -1.3546870     0.0071490
  H       -3.7457810     0.0968040     0.5260030
  H       -2.3920550    -0.5186010     1.4901810
  H       -0.4015900    -1.1050250    -0.9450900
  H        0.7410060     1.3377710     0.5508970
  H        1.9051690    -1.3201300    -0.6368870
units angstrom
no_reorient  #important for SAPT in psi4, default
symmetry c1  #important for SAPT in psi4, default
}

set PROPERTIES_ORIGIN ["COM"]
properties('MP2/aug-cc-pvtz', properties = ['dipole'])
--------------------------------------------------------------------------

    Molecular point group: c1
  Charge       = 0
  Multiplicity = 1
  Basis Set: AUG-CC-PVTZ
    Blend: AUG-CC-PVTZ
  Basis Set: (AUG-CC-PVTZ AUX)
    Blend: AUG-CC-PVTZ-JKFIT

    Orbital Energies [Eh]
    ---------------------

    Doubly Occupied:

       1A    -20.554150     2A    -11.335934     3A    -11.264423
       4A    -11.248938     5A    -11.243470     6A    -11.234463
       7A     -1.375485     8A     -1.122381     9A     -1.032135
      10A     -0.902602    11A     -0.820792    12A     -0.776832
      13A     -0.679982    14A     -0.650184    15A     -0.614075
      16A     -0.609020    17A     -0.555892    18A     -0.545768
      19A     -0.526919    20A     -0.514584    21A     -0.505190
      22A     -0.422776    23A     -0.391987

  @DF-RHF Final Energy:  -268.93366637530579

   => Energetics <=

    Nuclear Repulsion Energy =            210.2290079193773522
    One-Electron Energy =                -780.4693818303534272
    Two-Electron Energy =                 301.3067075356703413
    Total Energy =                       -268.9336663753057906
  Basis Set: (AUG-CC-PVTZ AUX)
    Blend: AUG-CC-PVTZ-RI
    Molecular point group: c1

    Geometry (in Angstrom), charge = 0, multiplicity = 1:

       Center              X                  Y                   Z               Mass
    ------------   -----------------  -----------------  -----------------  -----------------
         O            2.937320531856     0.061387673552     0.306532559734    15.994914619570
         C           -1.906811468144     0.495772673552    -0.330753440266    12.000000000000
         C           -2.878481468144    -0.376719326448     0.471244559734    12.000000000000
         C           -0.558024468144    -0.140022326448    -0.443580440266    12.000000000000
         C            0.545864231856     0.353352773552     0.021145459734    12.000000000000
         C            1.857438531856    -0.350437326448    -0.109238440266    12.000000000000
         H           -1.810651468144     1.481535673552     0.137138559734     1.007825032230
         H           -2.313713468144     0.657233673552    -1.337280440266     1.007825032230
         H           -2.996039468144    -1.360388326448     0.007271559734     1.007825032230
         H           -3.865281468144     0.091102673552     0.526125559734     1.007825032230
         H           -2.511555468144    -0.524302326448     1.490303559734     1.007825032230
         H           -0.521090468144    -1.110726326448    -0.944967440266     1.007825032230
         H            0.621505531856     1.332069673552     0.551019559734     1.007825032230
         H            1.785668531856    -1.325831326448    -0.636764440266     1.007825032230

  Basis Set: AUG-CC-PVTZ
    Blend: AUG-CC-PVTZ
  Basis Set: (AUG-CC-PVTZ AUX)
    Blend: AUG-CC-PVTZ-JKFIT
	 Reference Energy          =    -268.9336663753057906 [Eh]
	 Singles Energy            =      -0.0000000000000000 [Eh]
	 Same-Spin Energy          =      -0.2689563535721397 [Eh]
	 Opposite-Spin Energy      =      -0.9131508714198640 [Eh]
	 Correlation Energy        =      -1.1821072249920035 [Eh]
	 Total Energy              =    -270.1157736002978140 [Eh]

	 ================> DF-SCS-MP2 Energies <==================
	-----------------------------------------------------------
	 SCS Same-Spin Scale       =       0.3333333333333333 [-]
	 SCS Opposite-Spin Scale   =       1.2000000000000000 [-]
	 SCS Same-Spin Energy      =      -0.0896521178573799 [Eh]
	 SCS Opposite-Spin Energy  =      -1.0957810457038366 [Eh]
	 SCS Correlation Energy    =      -1.1854331635612165 [Eh]
	 SCS Total Energy          =    -270.1190995388670331 [Eh]
	-----------------------------------------------------------

  Dipole Moment: [D]
     X:    -3.7787      Y:    -0.5043      Z:    -0.8586     Total:     3.9077

*** Psi4 exiting successfully. Buy a developer a beer!
