                               Psi4 1.3.2 release

  ==> Input File <==

--------------------------------------------------------------------------
#psi4
#
memory 32 gb

molecule  {
0 1
  O        2.9073136    -0.0750452     0.2401523
  C       -1.9436970     0.3335570     0.3437070
  C       -2.8302210    -0.7631530    -0.2519080
  C       -0.5859380     0.3423530    -0.2788660
  C        0.5697440     0.1186190     0.3690800
  C        1.8486100     0.1294800    -0.3471130
  H       -1.8508390     0.1975730     1.4263050
  H       -2.4196650     1.3090330     0.1828770
  H       -2.9395310    -0.6342920    -1.3325490
  H       -3.8284810    -0.7404210     0.1934590
  H       -2.3959700    -1.7495570    -0.0705440
  H       -0.5478170     0.5276110    -1.3553930
  H        0.6030990    -0.0751360     1.4392450
  H        1.7195902     0.3337435    -1.4321059
units angstrom
no_reorient  #important for SAPT in psi4, default
symmetry c1  #important for SAPT in psi4, default
}

set PROPERTIES_ORIGIN ["COM"]
properties('MP2/aug-cc-pvtz', properties = ['dipole'])
--------------------------------------------------------------------------

    Molecular point group: c1
  Charge       = 0
  Multiplicity = 1
  Basis Set: AUG-CC-PVTZ
    Blend: AUG-CC-PVTZ
  Basis Set: (AUG-CC-PVTZ AUX)
    Blend: AUG-CC-PVTZ-JKFIT

    Orbital Energies [Eh]
    ---------------------

    Doubly Occupied:

       1A    -20.550820     2A    -11.333143     3A    -11.272279
       4A    -11.249398     5A    -11.241994     6A    -11.234903
       7A     -1.374634     8A     -1.115581     9A     -1.031349
      10A     -0.905620    11A     -0.817856    12A     -0.781906
      13A     -0.678234    14A     -0.649142    15A     -0.614805
      16A     -0.607770    17A     -0.556779    18A     -0.546728
      19A     -0.527741    20A     -0.516193    21A     -0.506036
      22A     -0.424846    23A     -0.379284

  @DF-RHF Final Energy:  -268.93410384261114

   => Energetics <=

    Nuclear Repulsion Energy =            210.4026177469325205
    One-Electron Energy =                -780.8393583108163511
    Two-Electron Energy =                 301.5026367212727223
    Total Energy =                       -268.9341038426111368
  Basis Set: (AUG-CC-PVTZ AUX)
    Blend: AUG-CC-PVTZ-RI
    Molecular point group: c1

    Geometry (in Angstrom), charge = 0, multiplicity = 1:

       Center              X                  Y                   Z               Mass
    ------------   -----------------  -----------------  -----------------  -----------------
         O            2.913816788326    -0.073760113775     0.229399115335    15.994914619570
         C           -1.937193811674     0.334842086225     0.332953815335    12.000000000000
         C           -2.823717811674    -0.761867913775    -0.262661184665    12.000000000000
         C           -0.579434811674     0.343638086225    -0.289619184665    12.000000000000
         C            0.576247188326     0.119904086225     0.358326815335    12.000000000000
         C            1.855113188326     0.130765086225    -0.357866184665    12.000000000000
         H           -1.844335811674     0.198858086225     1.415551815335     1.007825032230
         H           -2.413161811674     1.310318086225     0.172123815335     1.007825032230
         H           -2.933027811674    -0.633006913775    -1.343302184665     1.007825032230
         H           -3.821977811674    -0.739135913775     0.182705815335     1.007825032230
         H           -2.389466811674    -1.748271913775    -0.081297184665     1.007825032230
         H           -0.541313811674     0.528896086225    -1.366146184665     1.007825032230
         H            0.609602188326    -0.073850913775     1.428491815335     1.007825032230
         H            1.726093388326     0.335028586225    -1.442859084665     1.007825032230

  Basis Set: AUG-CC-PVTZ
    Blend: AUG-CC-PVTZ
  Basis Set: (AUG-CC-PVTZ AUX)
    Blend: AUG-CC-PVTZ-JKFIT
	 Reference Energy          =    -268.9341038426111368 [Eh]
	 Singles Energy            =      -0.0000000000000000 [Eh]
	 Same-Spin Energy          =      -0.2696332298560686 [Eh]
	 Opposite-Spin Energy      =      -0.9141907676710165 [Eh]
	 Correlation Energy        =      -1.1838239975270852 [Eh]
	 Total Energy              =    -270.1179278401382362 [Eh]

	 ================> DF-SCS-MP2 Energies <==================
	-----------------------------------------------------------
	 SCS Same-Spin Scale       =       0.3333333333333333 [-]
	 SCS Opposite-Spin Scale   =       1.2000000000000000 [-]
	 SCS Same-Spin Energy      =      -0.0898777432853562 [Eh]
	 SCS Opposite-Spin Energy  =      -1.0970289212052198 [Eh]
	 SCS Correlation Energy    =      -1.1869066644905759 [Eh]
	 SCS Total Energy          =    -270.1210105071016869 [Eh]
	-----------------------------------------------------------

  Dipole Moment: [D]
     X:    -3.8409      Y:     0.4181      Z:    -0.8691     Total:     3.9601

*** Psi4 exiting successfully. Buy a developer a beer!
