                               Psi4 1.4a3.dev225

  ==> Input File <==

--------------------------------------------------------------------------
#psi4
#
memory 32 gb

molecule  {
0 1
  O        3.0568210     0.0670890     0.3064100
  C       -1.7873110     0.5014740    -0.3308760
  C       -2.7589810    -0.3710180     0.4711220
  C       -0.4385240    -0.1343210    -0.4437030
  C        0.7079740     0.3780980     0.0389610
  C        1.9596496    -0.3348875    -0.1073401
  H       -1.6911510     1.4872370     0.1370160
  H       -2.1942130     0.6629350    -1.3374030
  H       -2.8765390    -1.3546870     0.0071490
  H       -3.7457810     0.0968040     0.5260030
  H       -2.3920550    -0.5186010     1.4901810
  H       -0.4015900    -1.1050250    -0.9450900
  H        0.7410060     1.3377710     0.5508970
  H        1.9051690    -1.3201300    -0.6368870
units angstrom
no_reorient  #important for SAPT in psi4, default
symmetry c1  #important for SAPT in psi4, default
}

set PROPERTIES_ORIGIN ["COM"]
properties('MP2/aug-cc-pvtz', properties = ['dipole'])
--------------------------------------------------------------------------

    Molecular point group: c1
  Charge       = 0
  Multiplicity = 1
  Basis Set: AUG-CC-PVTZ
    Blend: AUG-CC-PVTZ
  Basis Set: (AUG-CC-PVTZ AUX)
    Blend: AUG-CC-PVTZ-JKFIT

    Orbital Energies [Eh]
    ---------------------

    Doubly Occupied:

       1A    -20.547267     2A    -11.331773     3A    -11.277540
       4A    -11.252193     5A    -11.245569     6A    -11.237012
       7A     -1.364367     8A     -1.118738     9A     -1.034840
      10A     -0.908465    11A     -0.818285    12A     -0.781586
      13A     -0.679660    14A     -0.648540    15A     -0.617190
      16A     -0.603100    17A     -0.559114    18A     -0.547335
      19A     -0.523389    20A     -0.517213    21A     -0.508231
      22A     -0.424233    23A     -0.381169

  @DF-RHF Final Energy:  -268.93390771552077

   => Energetics <=

    Nuclear Repulsion Energy =            209.9783356089086794
    One-Electron Energy =                -779.9708644007671410
    Two-Electron Energy =                 301.0586210763377153
    Total Energy =                       -268.9339077155207747
  Basis Set: (AUG-CC-PVTZ AUX)
    Blend: AUG-CC-PVTZ-RI
    Molecular point group: c1

    Geometry (in Angstrom), charge = 0, multiplicity = 1:

       Center              X                  Y                   Z               Mass
    ------------   -----------------  -----------------  -----------------  -----------------
         O            2.933705878242     0.057263011997     0.303683224962    15.994914619570
         C           -1.910426121758     0.491648011997    -0.333602775038    12.000000000000
         C           -2.882096121758    -0.380843988003     0.468395224962    12.000000000000
         C           -0.561639121758    -0.144146988003    -0.446429775038    12.000000000000
         C            0.584858878242     0.368272011997     0.036234224962    12.000000000000
         C            1.836534478242    -0.344713488003    -0.110066875038    12.000000000000
         H           -1.814266121758     1.477411011997     0.134289224962     1.007825032230
         H           -2.317328121758     0.653109011997    -1.340129775038     1.007825032230
         H           -2.999654121758    -1.364512988003     0.004422224962     1.007825032230
         H           -3.868896121758     0.086978011997     0.523276224962     1.007825032230
         H           -2.515170121758    -0.528426988003     1.487454224962     1.007825032230
         H           -0.524705121758    -1.114850988003    -0.947816775038     1.007825032230
         H            0.617890878242     1.327945011997     0.548170224962     1.007825032230
         H            1.782053878242    -1.329955988003    -0.639613775038     1.007825032230

  Basis Set: AUG-CC-PVTZ
    Blend: AUG-CC-PVTZ
  Basis Set: (AUG-CC-PVTZ AUX)
    Blend: AUG-CC-PVTZ-JKFIT
	 Reference Energy          =    -268.9339077155207747 [Eh]
	 Singles Energy            =      -0.0000000000000000 [Eh]
	 Same-Spin Energy          =      -0.2698968961022625 [Eh]
	 Opposite-Spin Energy      =      -0.9148061977083914 [Eh]
	 Correlation Energy        =      -1.1847030938106540 [Eh]
	 Total Energy              =    -270.1186108093314147 [Eh]

	 ================> DF-SCS-MP2 Energies <==================
	-----------------------------------------------------------
	 SCS Same-Spin Scale       =       0.3333333333333333 [-]
	 SCS Opposite-Spin Scale   =       1.2000000000000000 [-]
	 SCS Same-Spin Energy      =      -0.0899656320340875 [Eh]
	 SCS Opposite-Spin Energy  =      -1.0977674372500696 [Eh]
	 SCS Correlation Energy    =      -1.1877330692841572 [Eh]
	 SCS Total Energy          =    -270.1216407848049244 [Eh]
	-----------------------------------------------------------

  Dipole Moment: [D]
     X:    -4.0505      Y:    -0.4554      Z:    -0.8705     Total:     4.1679

*** Psi4 exiting successfully. Buy a developer a beer!
