                               Psi4 1.3.2 release

  ==> Input File <==

--------------------------------------------------------------------------
#psi4
#
memory 32 gb

molecule  {
0 1
  O        2.9378530    -0.0680150     0.1840270
  C       -1.9436970     0.3335570     0.3437070
  C       -2.8302210    -0.7631530    -0.2519080
  C       -0.5859380     0.3423530    -0.2788660
  C        0.5697440     0.1186190     0.3690800
  C        1.8607044     0.1244593    -0.3251360
  H       -1.8508390     0.1975730     1.4263050
  H       -2.4196650     1.3090330     0.1828770
  H       -2.9395310    -0.6342920    -1.3325490
  H       -3.8284810    -0.7404210     0.1934590
  H       -2.3959700    -1.7495570    -0.0705440
  H       -0.5478170     0.5276110    -1.3553930
  H        0.6219982    -0.0766769     1.4382085
  H        1.7772940     0.3293450    -1.4382350
units angstrom
no_reorient  #important for SAPT in psi4, default
symmetry c1  #important for SAPT in psi4, default
}

set PROPERTIES_ORIGIN ["COM"]
properties('MP2/aug-cc-pvtz', properties = ['dipole'])
--------------------------------------------------------------------------

    Molecular point group: c1
  Charge       = 0
  Multiplicity = 1
  Basis Set: AUG-CC-PVTZ
    Blend: AUG-CC-PVTZ
  Basis Set: (AUG-CC-PVTZ AUX)
    Blend: AUG-CC-PVTZ-JKFIT

    Orbital Energies [Eh]
    ---------------------

    Doubly Occupied:

       1A    -20.550361     2A    -11.330516     3A    -11.274518
       4A    -11.250295     5A    -11.244279     6A    -11.235438
       7A     -1.387772     8A     -1.116129     9A     -1.031531
      10A     -0.905436    11A     -0.815860    12A     -0.778230
      13A     -0.679632    14A     -0.652517    15A     -0.616612
      16A     -0.609114    17A     -0.558003    18A     -0.548867
      19A     -0.533409    20A     -0.517004    21A     -0.506582
      22A     -0.420451    23A     -0.381909

  @DF-RHF Final Energy:  -268.93706800545408

   => Energetics <=

    Nuclear Repulsion Energy =            210.3103215022795496
    One-Electron Energy =                -780.6058528233220386
    Two-Electron Energy =                 301.3584633155884376
    Total Energy =                       -268.9370680054540799
  Basis Set: (AUG-CC-PVTZ AUX)
    Blend: AUG-CC-PVTZ-RI
    Molecular point group: c1

    Geometry (in Angstrom), charge = 0, multiplicity = 1:

       Center              X                  Y                   Z               Mass
    ------------   -----------------  -----------------  -----------------  -----------------
         O            2.935899950743    -0.067279694159     0.180902128562    15.994914619570
         C           -1.945650049257     0.334292305841     0.340582128562    12.000000000000
         C           -2.832174049257    -0.762417694159    -0.255032871438    12.000000000000
         C           -0.587891049257     0.343088305841    -0.281990871438    12.000000000000
         C            0.567790950743     0.119354305841     0.365955128562    12.000000000000
         C            1.858751350743     0.125194605841    -0.328260871438    12.000000000000
         H           -1.852792049257     0.198308305841     1.423180128562     1.007825032230
         H           -2.421618049257     1.309768305841     0.179752128562     1.007825032230
         H           -2.941484049257    -0.633556694159    -1.335673871438     1.007825032230
         H           -3.830434049257    -0.739685694159     0.190334128562     1.007825032230
         H           -2.397923049257    -1.748821694159    -0.073668871438     1.007825032230
         H           -0.549770049257     0.528346305841    -1.358517871438     1.007825032230
         H            0.620045150743    -0.075941594159     1.435083628562     1.007825032230
         H            1.775340950743     0.330080305841    -1.441359871438     1.007825032230

  Basis Set: AUG-CC-PVTZ
    Blend: AUG-CC-PVTZ
  Basis Set: (AUG-CC-PVTZ AUX)
    Blend: AUG-CC-PVTZ-JKFIT
	 Reference Energy          =    -268.9370680054540799 [Eh]
	 Singles Energy            =      -0.0000000000000000 [Eh]
	 Same-Spin Energy          =      -0.2689540673356160 [Eh]
	 Opposite-Spin Energy      =      -0.9127425469623340 [Eh]
	 Correlation Energy        =      -1.1816966142979499 [Eh]
	 Total Energy              =    -270.1187646197520280 [Eh]

	 ================> DF-SCS-MP2 Energies <==================
	-----------------------------------------------------------
	 SCS Same-Spin Scale       =       0.3333333333333333 [-]
	 SCS Opposite-Spin Scale   =       1.2000000000000000 [-]
	 SCS Same-Spin Energy      =      -0.0896513557785387 [Eh]
	 SCS Opposite-Spin Energy  =      -1.0952910563548008 [Eh]
	 SCS Correlation Energy    =      -1.1849424121333394 [Eh]
	 SCS Total Energy          =    -270.1220104175874326 [Eh]
	-----------------------------------------------------------

  Dipole Moment: [D]
     X:    -3.8821      Y:     0.3854      Z:    -0.6870     Total:     3.9613

*** Psi4 exiting successfully. Buy a developer a beer!
