                               Psi4 1.3.2 release

  ==> Input File <==

--------------------------------------------------------------------------
#psi4
#
memory 32 gb

molecule  {
0 1
  O        2.9378530    -0.0680150     0.1840270
  C       -1.9436970     0.3335570     0.3437070
  C       -2.8302210    -0.7631530    -0.2519080
  C       -0.5617021     0.3471822    -0.3187284
  C        0.5697440     0.1186190     0.3690800
  C        1.8486100     0.1294800    -0.3471130
  H       -1.8508390     0.1975730     1.4263050
  H       -2.4196650     1.3090330     0.1828770
  H       -2.9395310    -0.6342920    -1.3325490
  H       -3.8284810    -0.7404210     0.1934590
  H       -2.3959700    -1.7495570    -0.0705440
  H       -0.5478170     0.5276110    -1.3553930
  H        0.6408734    -0.0782463     1.4368306
  H        1.7772940     0.3293450    -1.4382350
units angstrom
no_reorient  #important for SAPT in psi4, default
symmetry c1  #important for SAPT in psi4, default
}

set PROPERTIES_ORIGIN ["COM"]
properties('MP2/aug-cc-pvtz', properties = ['dipole'])
--------------------------------------------------------------------------

    Molecular point group: c1
  Charge       = 0
  Multiplicity = 1
  Basis Set: AUG-CC-PVTZ
    Blend: AUG-CC-PVTZ
  Basis Set: (AUG-CC-PVTZ AUX)
    Blend: AUG-CC-PVTZ-JKFIT

    Orbital Energies [Eh]
    ---------------------

    Doubly Occupied:

       1A    -20.548059     2A    -11.329743     3A    -11.273357
       4A    -11.251695     5A    -11.246254     6A    -11.234479
       7A     -1.372415     8A     -1.113254     9A     -1.031297
      10A     -0.902234    11A     -0.817392    12A     -0.786848
      13A     -0.681298    14A     -0.646226    15A     -0.615167
      16A     -0.604384    17A     -0.568327    18A     -0.543345
      19A     -0.525577    20A     -0.510234    21A     -0.509081
      22A     -0.421780    23A     -0.382330

  @DF-RHF Final Energy:  -268.93399974021844

   => Energetics <=

    Nuclear Repulsion Energy =            209.8349064146749470
    One-Electron Energy =                -779.7082574149259244
    Two-Electron Energy =                 300.9393512600325380
    Total Energy =                       -268.9339997402184395
  Basis Set: (AUG-CC-PVTZ AUX)
    Blend: AUG-CC-PVTZ-RI
    Molecular point group: c1

    Geometry (in Angstrom), charge = 0, multiplicity = 1:

       Center              X                  Y                   Z               Mass
    ------------   -----------------  -----------------  -----------------  -----------------
         O            2.933940329413    -0.068667043280     0.189746804534    15.994914619570
         C           -1.947609670587     0.332904956720     0.349426804534    12.000000000000
         C           -2.834133670587    -0.763805043280    -0.246188195466    12.000000000000
         C           -0.565614770587     0.346530156720    -0.313008595466    12.000000000000
         C            0.565831329413     0.117966956720     0.374799804534    12.000000000000
         C            1.844697329413     0.128827956720    -0.341393195466    12.000000000000
         H           -1.854751670587     0.196920956720     1.432024804534     1.007825032230
         H           -2.423577670587     1.308380956720     0.188596804534     1.007825032230
         H           -2.943443670587    -0.634944043280    -1.326829195466     1.007825032230
         H           -3.832393670587    -0.741073043280     0.199178804534     1.007825032230
         H           -2.399882670587    -1.750209043280    -0.064824195466     1.007825032230
         H           -0.551729670587     0.526958956720    -1.349673195466     1.007825032230
         H            0.636960729413    -0.078898343280     1.442550404534     1.007825032230
         H            1.773381329413     0.328692956720    -1.432515195466     1.007825032230

  Basis Set: AUG-CC-PVTZ
    Blend: AUG-CC-PVTZ
  Basis Set: (AUG-CC-PVTZ AUX)
    Blend: AUG-CC-PVTZ-JKFIT
	 Reference Energy          =    -268.9339997402184395 [Eh]
	 Singles Energy            =      -0.0000000000000000 [Eh]
	 Same-Spin Energy          =      -0.2690329797976802 [Eh]
	 Opposite-Spin Energy      =      -0.9136052025511796 [Eh]
	 Correlation Energy        =      -1.1826381823488599 [Eh]
	 Total Energy              =    -270.1166379225672927 [Eh]

	 ================> DF-SCS-MP2 Energies <==================
	-----------------------------------------------------------
	 SCS Same-Spin Scale       =       0.3333333333333333 [-]
	 SCS Opposite-Spin Scale   =       1.2000000000000000 [-]
	 SCS Same-Spin Energy      =      -0.0896776599325601 [Eh]
	 SCS Opposite-Spin Energy  =      -1.0963262430614156 [Eh]
	 SCS Correlation Energy    =      -1.1860039029939757 [Eh]
	 SCS Total Energy          =    -270.1200036432124421 [Eh]
	-----------------------------------------------------------

  Dipole Moment: [D]
     X:    -3.8953      Y:     0.4108      Z:    -0.7818     Total:     3.9942

*** Psi4 exiting successfully. Buy a developer a beer!
