                               Psi4 1.3.2 release

  ==> Input File <==

--------------------------------------------------------------------------
#psi4
#
memory 32 gb

molecule  {
0 1
  O        2.9378530    -0.0680150     0.1840270
  C       -1.9436970     0.3335570     0.3437070
  C       -2.8302210    -0.7631530    -0.2519080
  C       -0.5859380     0.3423530    -0.2788660
  C        0.5578067     0.1162386     0.3891251
  C        1.8486100     0.1294800    -0.3471130
  H       -1.8508390     0.1975730     1.4263050
  H       -2.4196650     1.3090330     0.1828770
  H       -2.9395310    -0.6342920    -1.3325490
  H       -3.8284810    -0.7404210     0.1934590
  H       -2.3959700    -1.7495570    -0.0705440
  H       -0.5668036     0.5294517    -1.3555796
  H        0.6030990    -0.0751360     1.4392450
  H        1.7772940     0.3293450    -1.4382350
units angstrom
no_reorient  #important for SAPT in psi4, default
symmetry c1  #important for SAPT in psi4, default
}

set PROPERTIES_ORIGIN ["COM"]
properties('MP2/aug-cc-pvtz', properties = ['dipole'])
--------------------------------------------------------------------------

    Molecular point group: c1
  Charge       = 0
  Multiplicity = 1
  Basis Set: AUG-CC-PVTZ
    Blend: AUG-CC-PVTZ
  Basis Set: (AUG-CC-PVTZ AUX)
    Blend: AUG-CC-PVTZ-JKFIT

    Orbital Energies [Eh]
    ---------------------

    Doubly Occupied:

       1A    -20.549567     2A    -11.333080     3A    -11.273292
       4A    -11.248864     5A    -11.245249     6A    -11.234920
       7A     -1.373277     8A     -1.115925     9A     -1.029808
      10A     -0.903464    11A     -0.814978    12A     -0.784830
      13A     -0.679009    14A     -0.648587    15A     -0.616467
      16A     -0.606694    17A     -0.563568    18A     -0.545839
      19A     -0.525691    20A     -0.515301    21A     -0.506541
      22A     -0.422633    23A     -0.380821

  @DF-RHF Final Energy:  -268.93559075007119

   => Energetics <=

    Nuclear Repulsion Energy =            209.9285343755219628
    One-Electron Energy =                -779.8914359163342169
    Two-Electron Energy =                 301.0273107907410690
    Total Energy =                       -268.9355907500711851
  Basis Set: (AUG-CC-PVTZ AUX)
    Blend: AUG-CC-PVTZ-RI
    Molecular point group: c1

    Geometry (in Angstrom), charge = 0, multiplicity = 1:

       Center              X                  Y                   Z               Mass
    ------------   -----------------  -----------------  -----------------  -----------------
         O            2.939784941372    -0.067697166186     0.181167735385    15.994914619570
         C           -1.941765058628     0.333874833814     0.340847735385    12.000000000000
         C           -2.828289058628    -0.762835166186    -0.254767264615    12.000000000000
         C           -0.584006058628     0.342670833814    -0.281725264615    12.000000000000
         C            0.559738641372     0.116556433814     0.386265835385    12.000000000000
         C            1.850541941372     0.129797833814    -0.349972264615    12.000000000000
         H           -1.848907058628     0.197890833814     1.423445735385     1.007825032230
         H           -2.417733058628     1.309350833814     0.180017735385     1.007825032230
         H           -2.937599058628    -0.633974166186    -1.335408264615     1.007825032230
         H           -3.826549058628    -0.740103166186     0.190599735385     1.007825032230
         H           -2.394038058628    -1.749239166186    -0.073403264615     1.007825032230
         H           -0.564871658628     0.529769533814    -1.358438864615     1.007825032230
         H            0.605030941372    -0.074818166186     1.436385735385     1.007825032230
         H            1.779225941372     0.329662833814    -1.441094264615     1.007825032230

  Basis Set: AUG-CC-PVTZ
    Blend: AUG-CC-PVTZ
  Basis Set: (AUG-CC-PVTZ AUX)
    Blend: AUG-CC-PVTZ-JKFIT
	 Reference Energy          =    -268.9355907500711851 [Eh]
	 Singles Energy            =      -0.0000000000000000 [Eh]
	 Same-Spin Energy          =      -0.2692298631959855 [Eh]
	 Opposite-Spin Energy      =      -0.9137582880869770 [Eh]
	 Correlation Energy        =      -1.1829881512829625 [Eh]
	 Total Energy              =    -270.1185789013541694 [Eh]

	 ================> DF-SCS-MP2 Energies <==================
	-----------------------------------------------------------
	 SCS Same-Spin Scale       =       0.3333333333333333 [-]
	 SCS Opposite-Spin Scale   =       1.2000000000000000 [-]
	 SCS Same-Spin Energy      =      -0.0897432877319952 [Eh]
	 SCS Opposite-Spin Energy  =      -1.0965099457043723 [Eh]
	 SCS Correlation Energy    =      -1.1862532334363676 [Eh]
	 SCS Total Energy          =    -270.1218439835075742 [Eh]
	-----------------------------------------------------------

  Dipole Moment: [D]
     X:    -3.8848      Y:     0.4071      Z:    -0.7763     Total:     3.9825

*** Psi4 exiting successfully. Buy a developer a beer!
