                               Psi4 1.3.2 release

  ==> Input File <==

--------------------------------------------------------------------------
#psi4
#
memory 32 gb

molecule  {
0 1
  O        2.9378530    -0.0680150     0.1840270
  C       -1.9436970     0.3335570     0.3437070
  C       -2.8302210    -0.7631530    -0.2519080
  C       -0.5859380     0.3423530    -0.2788660
  C        0.5697440     0.1186190     0.3690800
  C        1.8486100     0.1294800    -0.3471130
  H       -1.8508390     0.1975730     1.4263050
  H       -2.4196650     1.3090330     0.1828770
  H       -2.9395310    -0.6342920    -1.3325490
  H       -3.8284810    -0.7404210     0.1934590
  H       -2.3959700    -1.7495570    -0.0705440
  H       -0.5478170     0.5276110    -1.3553930
  H        0.6030990    -0.0751360     1.4392450
  H        1.7708782     0.3473255    -1.5363958
units angstrom
no_reorient  #important for SAPT in psi4, default
symmetry c1  #important for SAPT in psi4, default
}

set PROPERTIES_ORIGIN ["COM"]
properties('MP2/aug-cc-pvtz', properties = ['dipole'])
--------------------------------------------------------------------------

    Molecular point group: c1
  Charge       = 0
  Multiplicity = 1
  Basis Set: AUG-CC-PVTZ
    Blend: AUG-CC-PVTZ
  Basis Set: (AUG-CC-PVTZ AUX)
    Blend: AUG-CC-PVTZ-JKFIT

    Orbital Energies [Eh]
    ---------------------

    Doubly Occupied:

       1A    -20.551901     2A    -11.342945     3A    -11.275287
       4A    -11.250979     5A    -11.246907     6A    -11.236068
       7A     -1.374990     8A     -1.117307     9A     -1.032148
      10A     -0.904662    11A     -0.813476    12A     -0.772351
      13A     -0.673092    14A     -0.650485    15A     -0.616525
      16A     -0.603073    17A     -0.558376    18A     -0.547781
      19A     -0.528411    20A     -0.516907    21A     -0.507371
      22A     -0.420077    23A     -0.382055

  @DF-RHF Final Energy:  -268.92896407622271

   => Energetics <=

    Nuclear Repulsion Energy =            209.6702269996198709
    One-Electron Energy =                -779.3520388659150058
    Two-Electron Energy =                 300.7528477900723942
    Total Energy =                       -268.9289640762227123
  Basis Set: (AUG-CC-PVTZ AUX)
    Blend: AUG-CC-PVTZ-RI
    Molecular point group: c1

    Geometry (in Angstrom), charge = 0, multiplicity = 1:

       Center              X                  Y                   Z               Mass
    ------------   -----------------  -----------------  -----------------  -----------------
         O            2.937930059424    -0.068230502135     0.185204043760    15.994914619570
         C           -1.943619940576     0.333341497865     0.344884043760    12.000000000000
         C           -2.830143940576    -0.763368502135    -0.250730956240    12.000000000000
         C           -0.585860940576     0.342137497865    -0.277688956240    12.000000000000
         C            0.569821059424     0.118403497865     0.370257043760    12.000000000000
         C            1.848687059424     0.129264497865    -0.345935956240    12.000000000000
         H           -1.850761940576     0.197357497865     1.427482043760     1.007825032230
         H           -2.419587940576     1.308817497865     0.184054043760     1.007825032230
         H           -2.939453940576    -0.634507502135    -1.331371956240     1.007825032230
         H           -3.828403940576    -0.740636502135     0.194636043760     1.007825032230
         H           -2.395892940576    -1.749772502135    -0.069366956240     1.007825032230
         H           -0.547739940576     0.527395497865    -1.354215956240     1.007825032230
         H            0.603176059424    -0.075351502135     1.440422043760     1.007825032230
         H            1.770955259424     0.347109997865    -1.535218756240     1.007825032230

  Basis Set: AUG-CC-PVTZ
    Blend: AUG-CC-PVTZ
  Basis Set: (AUG-CC-PVTZ AUX)
    Blend: AUG-CC-PVTZ-JKFIT
	 Reference Energy          =    -268.9289640762227123 [Eh]
	 Singles Energy            =      -0.0000000000000000 [Eh]
	 Same-Spin Energy          =      -0.2699301661138580 [Eh]
	 Opposite-Spin Energy      =      -0.9150007870659516 [Eh]
	 Correlation Energy        =      -1.1849309531798096 [Eh]
	 Total Energy              =    -270.1138950294024994 [Eh]

	 ================> DF-SCS-MP2 Energies <==================
	-----------------------------------------------------------
	 SCS Same-Spin Scale       =       0.3333333333333333 [-]
	 SCS Opposite-Spin Scale   =       1.2000000000000000 [-]
	 SCS Same-Spin Energy      =      -0.0899767220379527 [Eh]
	 SCS Opposite-Spin Energy  =      -1.0980009444791419 [Eh]
	 SCS Correlation Energy    =      -1.1879776665170945 [Eh]
	 SCS Total Energy          =    -270.1169417427398116 [Eh]
	-----------------------------------------------------------

  Dipole Moment: [D]
     X:    -3.9481      Y:     0.3812      Z:    -0.6413     Total:     4.0179

*** Psi4 exiting successfully. Buy a developer a beer!
