                               Psi4 1.3.2 release

  ==> Input File <==

--------------------------------------------------------------------------
#psi4
#
memory 32 gb

molecule  {
0 1
  O        2.9378530    -0.0680150     0.1840270
  C       -1.9436970     0.3335570     0.3437070
  C       -2.8302210    -0.7631530    -0.2519080
  C       -0.6087764     0.3371385    -0.2382344
  C        0.5697440     0.1186190     0.3690800
  C        1.8723947     0.1193197    -0.3029686
  H       -1.8508390     0.1975730     1.4263050
  H       -2.4196650     1.3090330     0.1828770
  H       -2.9395310    -0.6342920    -1.3325490
  H       -3.8284810    -0.7404210     0.1934590
  H       -2.3959700    -1.7495570    -0.0705440
  H       -0.5478170     0.5276110    -1.3553930
  H        0.6030990    -0.0751360     1.4392450
  H        1.7772940     0.3293450    -1.4382350
units angstrom
no_reorient  #important for SAPT in psi4, default
symmetry c1  #important for SAPT in psi4, default
}

set PROPERTIES_ORIGIN ["COM"]
properties('MP2/aug-cc-pvtz', properties = ['dipole'])
--------------------------------------------------------------------------

    Molecular point group: c1
  Charge       = 0
  Multiplicity = 1
  Basis Set: AUG-CC-PVTZ
    Blend: AUG-CC-PVTZ
  Basis Set: (AUG-CC-PVTZ AUX)
    Blend: AUG-CC-PVTZ-JKFIT

    Orbital Energies [Eh]
    ---------------------

    Doubly Occupied:

       1A    -20.552829     2A    -11.331545     3A    -11.276157
       4A    -11.248978     5A    -11.242966     6A    -11.236529
       7A     -1.403562     8A     -1.120122     9A     -1.031823
      10A     -0.909258    11A     -0.815043    12A     -0.770342
      13A     -0.679228    14A     -0.659061    15A     -0.621623
      16A     -0.610642    17A     -0.555746    18A     -0.549098
      19A     -0.541694    20A     -0.522123    21A     -0.501126
      22A     -0.418084    23A     -0.381569

  @DF-RHF Final Energy:  -268.93265959641019

   => Energetics <=

    Nuclear Repulsion Energy =            210.8113745689830409
    One-Electron Energy =                -781.5297723740835636
    Two-Electron Energy =                 301.7857382086903044
    Total Energy =                       -268.9326595964101898
  Basis Set: (AUG-CC-PVTZ AUX)
    Blend: AUG-CC-PVTZ-RI
    Molecular point group: c1

    Geometry (in Angstrom), charge = 0, multiplicity = 1:

       Center              X                  Y                   Z               Mass
    ------------   -----------------  -----------------  -----------------  -----------------
         O            2.937718042642    -0.065820024044     0.171924553960    15.994914619570
         C           -1.943831957358     0.335751975956     0.331604553960    12.000000000000
         C           -2.830355957358    -0.760958024044    -0.264010446040    12.000000000000
         C           -0.608911357358     0.339333475956    -0.250336846040    12.000000000000
         C            0.569609042642     0.120813975956     0.356977553960    12.000000000000
         C            1.872259742642     0.121514675956    -0.315071046040    12.000000000000
         H           -1.850973957358     0.199767975956     1.414202553960     1.007825032230
         H           -2.419799957358     1.311227975956     0.170774553960     1.007825032230
         H           -2.939665957358    -0.632097024044    -1.344651446040     1.007825032230
         H           -3.828615957358    -0.738226024044     0.181356553960     1.007825032230
         H           -2.396104957358    -1.747362024044    -0.082646446040     1.007825032230
         H           -0.547951957358     0.529805975956    -1.367495446040     1.007825032230
         H            0.602964042642    -0.072941024044     1.427142553960     1.007825032230
         H            1.777159042642     0.331539975956    -1.450337446040     1.007825032230

  Basis Set: AUG-CC-PVTZ
    Blend: AUG-CC-PVTZ
  Basis Set: (AUG-CC-PVTZ AUX)
    Blend: AUG-CC-PVTZ-JKFIT
	 Reference Energy          =    -268.9326595964101898 [Eh]
	 Singles Energy            =      -0.0000000000000000 [Eh]
	 Same-Spin Energy          =      -0.2690808666151354 [Eh]
	 Opposite-Spin Energy      =      -0.9123583681903468 [Eh]
	 Correlation Energy        =      -1.1814392348054821 [Eh]
	 Total Energy              =    -270.1140988312156992 [Eh]

	 ================> DF-SCS-MP2 Energies <==================
	-----------------------------------------------------------
	 SCS Same-Spin Scale       =       0.3333333333333333 [-]
	 SCS Opposite-Spin Scale   =       1.2000000000000000 [-]
	 SCS Same-Spin Energy      =      -0.0896936222050451 [Eh]
	 SCS Opposite-Spin Energy  =      -1.0948300418284160 [Eh]
	 SCS Correlation Energy    =      -1.1845236640334611 [Eh]
	 SCS Total Energy          =    -270.1171832604436531 [Eh]
	-----------------------------------------------------------

  Dipole Moment: [D]
     X:    -3.8645      Y:     0.3554      Z:    -0.5726     Total:     3.9228

*** Psi4 exiting successfully. Buy a developer a beer!
