                               Psi4 1.4a3.dev225

  ==> Input File <==

--------------------------------------------------------------------------
#psi4
#
memory 32 gb

molecule  {
0 1
  O        3.0568210     0.0670890     0.3064100
  C       -1.7873110     0.5014740    -0.3308760
  C       -2.7589810    -0.3710180     0.4711220
  C       -0.4385240    -0.1343210    -0.4437030
  C        0.7079740     0.3780980     0.0389610
  C        1.9769390    -0.3447360    -0.1093610
  H       -1.6911510     1.4872370     0.1370160
  H       -2.1942130     0.6629350    -1.3374030
  H       -2.8765390    -1.3546870     0.0071490
  H       -3.7457810     0.0968040     0.5260030
  H       -2.3920550    -0.5186010     1.4901810
  H       -0.4009143    -1.1227844    -0.9542631
  H        0.7410060     1.3377710     0.5508970
  H        1.9051690    -1.3201300    -0.6368870
units angstrom
no_reorient  #important for SAPT in psi4, default
symmetry c1  #important for SAPT in psi4, default
}

set PROPERTIES_ORIGIN ["COM"]
properties('MP2/aug-cc-pvtz', properties = ['dipole'])
--------------------------------------------------------------------------

    Molecular point group: c1
  Charge       = 0
  Multiplicity = 1
  Basis Set: AUG-CC-PVTZ
    Blend: AUG-CC-PVTZ
  Basis Set: (AUG-CC-PVTZ AUX)
    Blend: AUG-CC-PVTZ-JKFIT

    Orbital Energies [Eh]
    ---------------------

    Doubly Occupied:

       1A    -20.549196     2A    -11.331976     3A    -11.277126
       4A    -11.251104     5A    -11.245750     6A    -11.235917
       7A     -1.372914     8A     -1.115509     9A     -1.031592
      10A     -0.905388    11A     -0.817026    12A     -0.779655
      13A     -0.678057    14A     -0.648959    15A     -0.616269
      16A     -0.606258    17A     -0.557137    18A     -0.546787
      19A     -0.526472    20A     -0.516620    21A     -0.506451
      22A     -0.424062    23A     -0.380777

  @DF-RHF Final Energy:  -268.93525222079450

   => Energetics <=

    Nuclear Repulsion Energy =            209.7969315630014364
    One-Electron Energy =                -779.6223652886741320
    Two-Electron Energy =                 300.8901815048782282
    Total Energy =                       -268.9352522207944958
  Basis Set: (AUG-CC-PVTZ AUX)
    Blend: AUG-CC-PVTZ-RI
    Molecular point group: c1

    Geometry (in Angstrom), charge = 0, multiplicity = 1:

       Center              X                  Y                   Z               Mass
    ------------   -----------------  -----------------  -----------------  -----------------
         O            2.931229552506     0.058881907917     0.304081710212    15.994914619570
         C           -1.912902447494     0.493266907917    -0.333204289788    12.000000000000
         C           -2.884572447494    -0.379225092083     0.468793710212    12.000000000000
         C           -0.564115447494    -0.142528092083    -0.446031289788    12.000000000000
         C            0.582382552506     0.369890907917     0.036632710212    12.000000000000
         C            1.851347552506    -0.352943092083    -0.111689289788    12.000000000000
         H           -1.816742447494     1.479029907917     0.134687710212     1.007825032230
         H           -2.319804447494     0.654727907917    -1.339731289788     1.007825032230
         H           -3.002130447494    -1.362894092083     0.004820710212     1.007825032230
         H           -3.871372447494     0.088596907917     0.523674710212     1.007825032230
         H           -2.517646447494    -0.526808092083     1.487852710212     1.007825032230
         H           -0.526505747494    -1.130991492083    -0.956591389788     1.007825032230
         H            0.615414552506     1.329563907917     0.548568710212     1.007825032230
         H            1.779577552506    -1.328337092083    -0.639215289788     1.007825032230

  Basis Set: AUG-CC-PVTZ
    Blend: AUG-CC-PVTZ
  Basis Set: (AUG-CC-PVTZ AUX)
    Blend: AUG-CC-PVTZ-JKFIT
	 Reference Energy          =    -268.9352522207944958 [Eh]
	 Singles Energy            =      -0.0000000000000000 [Eh]
	 Same-Spin Energy          =      -0.2694415672255661 [Eh]
	 Opposite-Spin Energy      =      -0.9141134743849523 [Eh]
	 Correlation Energy        =      -1.1835550416105183 [Eh]
	 Total Energy              =    -270.1188072624050278 [Eh]

	 ================> DF-SCS-MP2 Energies <==================
	-----------------------------------------------------------
	 SCS Same-Spin Scale       =       0.3333333333333333 [-]
	 SCS Opposite-Spin Scale   =       1.2000000000000000 [-]
	 SCS Same-Spin Energy      =      -0.0898138557418554 [Eh]
	 SCS Opposite-Spin Energy  =      -1.0969361692619426 [Eh]
	 SCS Correlation Energy    =      -1.1867500250037979 [Eh]
	 SCS Total Energy          =    -270.1220022457982850 [Eh]
	-----------------------------------------------------------

  Dipole Moment: [D]
     X:    -3.9182      Y:    -0.4762      Z:    -0.8620     Total:     4.0401

*** Psi4 exiting successfully. Buy a developer a beer!
