                               Psi4 1.3.2 release

  ==> Input File <==

--------------------------------------------------------------------------
#psi4
#
memory 32 gb

molecule  {
0 1
  O        2.9378530    -0.0680150     0.1840270
  C       -1.9489734     0.3362759     0.3321018
  C       -2.8302210    -0.7631530    -0.2519080
  C       -0.5859380     0.3423530    -0.2788660
  C        0.5756047     0.1201018     0.3590327
  C        1.8486100     0.1294800    -0.3471130
  H       -1.8508390     0.1975730     1.4263050
  H       -2.4196650     1.3090330     0.1828770
  H       -2.9395310    -0.6342920    -1.3325490
  H       -3.8284810    -0.7404210     0.1934590
  H       -2.3959700    -1.7495570    -0.0705440
  H       -0.5478170     0.5276110    -1.3553930
  H        0.6030990    -0.0751360     1.4392450
  H        1.7772940     0.3293450    -1.4382350
units angstrom
no_reorient  #important for SAPT in psi4, default
symmetry c1  #important for SAPT in psi4, default
}

set PROPERTIES_ORIGIN ["COM"]
properties('MP2/aug-cc-pvtz', properties = ['dipole'])
--------------------------------------------------------------------------

    Molecular point group: c1
  Charge       = 0
  Multiplicity = 1
  Basis Set: AUG-CC-PVTZ
    Blend: AUG-CC-PVTZ
  Basis Set: (AUG-CC-PVTZ AUX)
    Blend: AUG-CC-PVTZ-JKFIT

    Orbital Energies [Eh]
    ---------------------

    Doubly Occupied:

       1A    -20.548894     2A    -11.331004     3A    -11.275155
       4A    -11.251384     5A    -11.245462     6A    -11.235899
       7A     -1.373145     8A     -1.117508     9A     -1.034197
      10A     -0.907465    11A     -0.818590    12A     -0.779997
      13A     -0.679983    14A     -0.650184    15A     -0.616936
      16A     -0.606294    17A     -0.556104    18A     -0.549417
      19A     -0.527615    20A     -0.517928    21A     -0.503373
      22A     -0.424764    23A     -0.381564

  @DF-RHF Final Energy:  -268.93541916708574

   => Energetics <=

    Nuclear Repulsion Energy =            210.1639099699011979
    One-Electron Energy =                -780.3329351554527875
    Two-Electron Energy =                 301.2336060184658777
    Total Energy =                       -268.9354191670857404
  Basis Set: (AUG-CC-PVTZ AUX)
    Blend: AUG-CC-PVTZ-RI
    Molecular point group: c1

    Geometry (in Angstrom), charge = 0, multiplicity = 1:

       Center              X                  Y                   Z               Mass
    ------------   -----------------  -----------------  -----------------  -----------------
         O            2.937769721543    -0.068614753347     0.187118222270    15.994914619570
         C           -1.949056678457     0.335676146653     0.335193022270    12.000000000000
         C           -2.830304278457    -0.763752753347    -0.248816777730    12.000000000000
         C           -0.586021278457     0.341753246653    -0.275774777730    12.000000000000
         C            0.575521421543     0.119502046653     0.362123922270    12.000000000000
         C            1.848526721543     0.128880246653    -0.344021777730    12.000000000000
         H           -1.850922278457     0.196973246653     1.429396222270     1.007825032230
         H           -2.419748278457     1.308433246653     0.185968222270     1.007825032230
         H           -2.939614278457    -0.634891753347    -1.329457777730     1.007825032230
         H           -3.828564278457    -0.741020753347     0.196550222270     1.007825032230
         H           -2.396053278457    -1.750156753347    -0.067452777730     1.007825032230
         H           -0.547900278457     0.527011246653    -1.352301777730     1.007825032230
         H            0.603015721543    -0.075735753347     1.442336222270     1.007825032230
         H            1.777210721543     0.328745246653    -1.435143777730     1.007825032230

  Basis Set: AUG-CC-PVTZ
    Blend: AUG-CC-PVTZ
  Basis Set: (AUG-CC-PVTZ AUX)
    Blend: AUG-CC-PVTZ-JKFIT
	 Reference Energy          =    -268.9354191670857404 [Eh]
	 Singles Energy            =      -0.0000000000000000 [Eh]
	 Same-Spin Energy          =      -0.2695471348449963 [Eh]
	 Opposite-Spin Energy      =      -0.9140627403504495 [Eh]
	 Correlation Energy        =      -1.1836098751954458 [Eh]
	 Total Energy              =    -270.1190290422811700 [Eh]

	 ================> DF-SCS-MP2 Energies <==================
	-----------------------------------------------------------
	 SCS Same-Spin Scale       =       0.3333333333333333 [-]
	 SCS Opposite-Spin Scale   =       1.2000000000000000 [-]
	 SCS Same-Spin Energy      =      -0.0898490449483321 [Eh]
	 SCS Opposite-Spin Energy  =      -1.0968752884205395 [Eh]
	 SCS Correlation Energy    =      -1.1867243333688715 [Eh]
	 SCS Total Energy          =    -270.1221435004546265 [Eh]
	-----------------------------------------------------------

  Dipole Moment: [D]
     X:    -3.9753      Y:     0.4077      Z:    -0.7738     Total:     4.0704

*** Psi4 exiting successfully. Buy a developer a beer!
