                               Psi4 1.3.2 release

  ==> Input File <==

--------------------------------------------------------------------------
#psi4
#
memory 32 gb

molecule  {
0 1
  O        2.9378530    -0.0680150     0.1840270
  C       -1.9436970     0.3335570     0.3437070
  C       -2.8302210    -0.7631530    -0.2519080
  C       -0.5859380     0.3423530    -0.2788660
  C        0.5697440     0.1186190     0.3690800
  C        1.8837098     0.1144140    -0.2805544
  H       -1.8508390     0.1975730     1.4263050
  H       -2.4196650     1.3090330     0.1828770
  H       -2.9395310    -0.6342920    -1.3325490
  H       -3.8284810    -0.7404210     0.1934590
  H       -2.3959700    -1.7495570    -0.0705440
  H       -0.5478170     0.5276110    -1.3553930
  H        0.6597432    -0.0795798     1.4351588
  H        1.7772940     0.3293450    -1.4382350
units angstrom
no_reorient  #important for SAPT in psi4, default
symmetry c1  #important for SAPT in psi4, default
}

set PROPERTIES_ORIGIN ["COM"]
properties('MP2/aug-cc-pvtz', properties = ['dipole'])
--------------------------------------------------------------------------

    Molecular point group: c1
  Charge       = 0
  Multiplicity = 1
  Basis Set: AUG-CC-PVTZ
    Blend: AUG-CC-PVTZ
  Basis Set: (AUG-CC-PVTZ AUX)
    Blend: AUG-CC-PVTZ-JKFIT

    Orbital Energies [Eh]
    ---------------------

    Doubly Occupied:

       1A    -20.553654     2A    -11.328887     3A    -11.275056
       4A    -11.250069     5A    -11.243356     6A    -11.235031
       7A     -1.418260     8A     -1.114968     9A     -1.030542
      10A     -0.905120    11A     -0.814587    12A     -0.770574
      13A     -0.681131    14A     -0.660929    15A     -0.618687
      16A     -0.611339    17A     -0.559855    18A     -0.557543
      19A     -0.541283    20A     -0.517183    21A     -0.505983
      22A     -0.410721    23A     -0.383707

  @DF-RHF Final Energy:  -268.93231720565564

   => Energetics <=

    Nuclear Repulsion Energy =            210.8050952378545446
    One-Electron Energy =                -781.4978934286123149
    Two-Electron Energy =                 301.7604809851021628
    Total Energy =                       -268.9323172056556359
  Basis Set: (AUG-CC-PVTZ AUX)
    Blend: AUG-CC-PVTZ-RI
    Molecular point group: c1

    Geometry (in Angstrom), charge = 0, multiplicity = 1:

       Center              X                  Y                   Z               Mass
    ------------   -----------------  -----------------  -----------------  -----------------
         O            2.932163162232    -0.065810828282     0.174574251313    15.994914619570
         C           -1.949386837768     0.335761171718     0.334254251313    12.000000000000
         C           -2.835910837768    -0.760948828282    -0.261360748687    12.000000000000
         C           -0.591627837768     0.344557171718    -0.288318748687    12.000000000000
         C            0.564054162232     0.120823171718     0.359627251313    12.000000000000
         C            1.878019962232     0.116618171718    -0.290007148687    12.000000000000
         H           -1.856528837768     0.199777171718     1.416852251313     1.007825032230
         H           -2.425354837768     1.311237171718     0.173424251313     1.007825032230
         H           -2.945220837768    -0.632087828282    -1.342001748687     1.007825032230
         H           -3.834170837768    -0.738216828282     0.184006251313     1.007825032230
         H           -2.401659837768    -1.747352828282    -0.079996748687     1.007825032230
         H           -0.553506837768     0.529815171718    -1.364845748687     1.007825032230
         H            0.654053362232    -0.077375628282     1.425706051313     1.007825032230
         H            1.771604162232     0.331549171718    -1.447687748687     1.007825032230

  Basis Set: AUG-CC-PVTZ
    Blend: AUG-CC-PVTZ
  Basis Set: (AUG-CC-PVTZ AUX)
    Blend: AUG-CC-PVTZ-JKFIT
	 Reference Energy          =    -268.9323172056556359 [Eh]
	 Singles Energy            =      -0.0000000000000000 [Eh]
	 Same-Spin Energy          =      -0.2681909425951814 [Eh]
	 Opposite-Spin Energy      =      -0.9108362192826439 [Eh]
	 Correlation Energy        =      -1.1790271618778254 [Eh]
	 Total Energy              =    -270.1113443675334338 [Eh]

	 ================> DF-SCS-MP2 Energies <==================
	-----------------------------------------------------------
	 SCS Same-Spin Scale       =       0.3333333333333333 [-]
	 SCS Opposite-Spin Scale   =       1.2000000000000000 [-]
	 SCS Same-Spin Energy      =      -0.0893969808650605 [Eh]
	 SCS Opposite-Spin Energy  =      -1.0930034631391727 [Eh]
	 SCS Correlation Energy    =      -1.1824004440042333 [Eh]
	 SCS Total Energy          =    -270.1147176496598945 [Eh]
	-----------------------------------------------------------

  Dipole Moment: [D]
     X:    -3.7450      Y:     0.3353      Z:    -0.4836     Total:     3.7910

*** Psi4 exiting successfully. Buy a developer a beer!
