                               Psi4 1.3.2 release

  ==> Input File <==

--------------------------------------------------------------------------
#psi4
#
memory 32 gb

molecule  {
0 1
  O        2.9378530    -0.0680150     0.1840270
  C       -1.9436970     0.3335570     0.3437070
  C       -2.8302210    -0.7631530    -0.2519080
  C       -0.5859380     0.3423530    -0.2788660
  C        0.5697440     0.1186190     0.3690800
  C        1.6741152     0.1279981    -0.2493921
  H       -1.8508390     0.1975730     1.4263050
  H       -2.4196650     1.3090330     0.1828770
  H       -2.9395310    -0.6342920    -1.3325490
  H       -3.8284810    -0.7404210     0.1934590
  H       -2.3959700    -1.7495570    -0.0705440
  H       -0.5478170     0.5276110    -1.3553930
  H        0.6030990    -0.0751360     1.4392450
  H        1.7772940     0.3293450    -1.4382350
units angstrom
no_reorient  #important for SAPT in psi4, default
symmetry c1  #important for SAPT in psi4, default
}

set PROPERTIES_ORIGIN ["COM"]
properties('MP2/aug-cc-pvtz', properties = ['dipole'])
--------------------------------------------------------------------------

    Molecular point group: c1
  Charge       = 0
  Multiplicity = 1
  Basis Set: AUG-CC-PVTZ
    Blend: AUG-CC-PVTZ
  Basis Set: (AUG-CC-PVTZ AUX)
    Blend: AUG-CC-PVTZ-JKFIT

    Orbital Energies [Eh]
    ---------------------

    Doubly Occupied:

       1A    -20.524876     2A    -11.325232     3A    -11.306309
       4A    -11.265650     5A    -11.248626     6A    -11.238431
       7A     -1.288802     8A     -1.150613     9A     -1.068353
      10A     -0.937308    11A     -0.835878    12A     -0.777688
      13A     -0.685999    14A     -0.653006    15A     -0.625478
      16A     -0.587858    17A     -0.560598    18A     -0.537550
      19A     -0.524606    20A     -0.520155    21A     -0.507405
      22A     -0.406809    23A     -0.374477

  @DF-RHF Final Energy:  -268.86239229118848

   => Energetics <=

    Nuclear Repulsion Energy =            211.3390244056481606
    One-Electron Energy =                -782.4994203788954792
    Two-Electron Energy =                 302.2980036820588339
    Total Energy =                       -268.8623922911884847
  Basis Set: (AUG-CC-PVTZ AUX)
    Blend: AUG-CC-PVTZ-RI
    Molecular point group: c1

    Geometry (in Angstrom), charge = 0, multiplicity = 1:

       Center              X                  Y                   Z               Mass
    ------------   -----------------  -----------------  -----------------  -----------------
         O            2.962763908000    -0.067803366048     0.170076547863    15.994914619570
         C           -1.918786092000     0.333768633952     0.329756547863    12.000000000000
         C           -2.805310092000    -0.762941366048    -0.265858452137    12.000000000000
         C           -0.561027092000     0.342564633952    -0.292816452137    12.000000000000
         C            0.594654908000     0.118830633952     0.355129547863    12.000000000000
         C            1.699026108000     0.128209733952    -0.263342552137    12.000000000000
         H           -1.825928092000     0.197784633952     1.412354547863     1.007825032230
         H           -2.394754092000     1.309244633952     0.168926547863     1.007825032230
         H           -2.914620092000    -0.634080366048    -1.346499452137     1.007825032230
         H           -3.803570092000    -0.740209366048     0.179508547863     1.007825032230
         H           -2.371059092000    -1.749345366048    -0.084494452137     1.007825032230
         H           -0.522906092000     0.527822633952    -1.369343452137     1.007825032230
         H            0.628009908000    -0.074924366048     1.425294547863     1.007825032230
         H            1.802204908000     0.329556633952    -1.452185452137     1.007825032230

  Basis Set: AUG-CC-PVTZ
    Blend: AUG-CC-PVTZ
  Basis Set: (AUG-CC-PVTZ AUX)
    Blend: AUG-CC-PVTZ-JKFIT
	 Reference Energy          =    -268.8623922911884847 [Eh]
	 Singles Energy            =      -0.0000000000000000 [Eh]
	 Same-Spin Energy          =      -0.2760899436631024 [Eh]
	 Opposite-Spin Energy      =      -0.9252121867298253 [Eh]
	 Correlation Energy        =      -1.2013021303929277 [Eh]
	 Total Energy              =    -270.0636944215814310 [Eh]

	 ================> DF-SCS-MP2 Energies <==================
	-----------------------------------------------------------
	 SCS Same-Spin Scale       =       0.3333333333333333 [-]
	 SCS Opposite-Spin Scale   =       1.2000000000000000 [-]
	 SCS Same-Spin Energy      =      -0.0920299812210341 [Eh]
	 SCS Opposite-Spin Energy  =      -1.1102546240757902 [Eh]
	 SCS Correlation Energy    =      -1.2022846052968243 [Eh]
	 SCS Total Energy          =    -270.0646768964853095 [Eh]
	-----------------------------------------------------------

  Dipole Moment: [D]
     X:    -5.0984      Y:     0.4264      Z:    -0.5277     Total:     5.1433

*** Psi4 exiting successfully. Buy a developer a beer!
