                               Psi4 1.3.2 release

  ==> Input File <==

--------------------------------------------------------------------------
#psi4
#
memory 32 gb

molecule  {
0 1
  O        2.9378530    -0.0680150     0.1840270
  C       -1.9436970     0.3335570     0.3437070
  C       -2.8302210    -0.7631530    -0.2519080
  C       -0.5859380     0.3423530    -0.2788660
  C        0.5697440     0.1186190     0.3690800
  C        1.8424165     0.1319892    -0.3580201
  H       -1.8508390     0.1975730     1.4263050
  H       -2.4196650     1.3090330     0.1828770
  H       -2.9395310    -0.6342920    -1.3325490
  H       -3.8284810    -0.7404210     0.1934590
  H       -2.3959700    -1.7495570    -0.0705440
  H       -0.5478170     0.5276110    -1.3553930
  H        0.5936452    -0.0743434     1.4396410
  H        1.7772940     0.3293450    -1.4382350
units angstrom
no_reorient  #important for SAPT in psi4, default
symmetry c1  #important for SAPT in psi4, default
}

set PROPERTIES_ORIGIN ["COM"]
properties('MP2/aug-cc-pvtz', properties = ['dipole'])
--------------------------------------------------------------------------

    Molecular point group: c1
  Charge       = 0
  Multiplicity = 1
  Basis Set: AUG-CC-PVTZ
    Blend: AUG-CC-PVTZ
  Basis Set: (AUG-CC-PVTZ AUX)
    Blend: AUG-CC-PVTZ-JKFIT

    Orbital Energies [Eh]
    ---------------------

    Doubly Occupied:

       1A    -20.548402     2A    -11.332223     3A    -11.274430
       4A    -11.250619     5A    -11.245524     6A    -11.235863
       7A     -1.365929     8A     -1.117280     9A     -1.032574
      10A     -0.906234    11A     -0.818733    12A     -0.783315
      13A     -0.679748    14A     -0.647951    15A     -0.616731
      16A     -0.604760    17A     -0.558641    18A     -0.546731
      19A     -0.523241    20A     -0.516531    21A     -0.507137
      22A     -0.425454    23A     -0.380468

  @DF-RHF Final Energy:  -268.93470065135409

   => Energetics <=

    Nuclear Repulsion Energy =            209.9646040159131815
    One-Electron Energy =                -779.9615729602694500
    Two-Electron Energy =                 301.0622682930021483
    Total Energy =                       -268.9347006513540919
  Basis Set: (AUG-CC-PVTZ AUX)
    Blend: AUG-CC-PVTZ-RI
    Molecular point group: c1

    Geometry (in Angstrom), charge = 0, multiplicity = 1:

       Center              X                  Y                   Z               Mass
    ------------   -----------------  -----------------  -----------------  -----------------
         O            2.938850664471    -0.068382636113     0.185579467539    15.994914619570
         C           -1.942699335529     0.333189363887     0.345259467539    12.000000000000
         C           -2.829223335529    -0.763520636113    -0.250355532461    12.000000000000
         C           -0.584940335529     0.341985363887    -0.277313532461    12.000000000000
         C            0.570741664471     0.118251363887     0.370632467539    12.000000000000
         C            1.843414164471     0.131621563887    -0.356467632461    12.000000000000
         H           -1.849841335529     0.197205363887     1.427857467539     1.007825032230
         H           -2.418667335529     1.308665363887     0.184429467539     1.007825032230
         H           -2.938533335529    -0.634659636113    -1.330996532461     1.007825032230
         H           -3.827483335529    -0.740788636113     0.195011467539     1.007825032230
         H           -2.394972335529    -1.749924636113    -0.068991532461     1.007825032230
         H           -0.546819335529     0.527243363887    -1.353840532461     1.007825032230
         H            0.594642864471    -0.074711036113     1.441193467539     1.007825032230
         H            1.778291664471     0.328977363887    -1.436682532461     1.007825032230

  Basis Set: AUG-CC-PVTZ
    Blend: AUG-CC-PVTZ
  Basis Set: (AUG-CC-PVTZ AUX)
    Blend: AUG-CC-PVTZ-JKFIT
	 Reference Energy          =    -268.9347006513540919 [Eh]
	 Singles Energy            =      -0.0000000000000000 [Eh]
	 Same-Spin Energy          =      -0.2696722763618604 [Eh]
	 Opposite-Spin Energy      =      -0.9145228640105876 [Eh]
	 Correlation Energy        =      -1.1841951403724480 [Eh]
	 Total Energy              =    -270.1188957917265157 [Eh]

	 ================> DF-SCS-MP2 Energies <==================
	-----------------------------------------------------------
	 SCS Same-Spin Scale       =       0.3333333333333333 [-]
	 SCS Opposite-Spin Scale   =       1.2000000000000000 [-]
	 SCS Same-Spin Energy      =      -0.0898907587872868 [Eh]
	 SCS Opposite-Spin Energy  =      -1.0974274368127050 [Eh]
	 SCS Correlation Energy    =      -1.1873181955999919 [Eh]
	 SCS Total Energy          =    -270.1220188469540631 [Eh]
	-----------------------------------------------------------

  Dipole Moment: [D]
     X:    -3.9795      Y:     0.4163      Z:    -0.8073     Total:     4.0818

*** Psi4 exiting successfully. Buy a developer a beer!
