                               Psi4 1.3.2 release

  ==> Input File <==

--------------------------------------------------------------------------
#psi4
#
memory 32 gb

molecule  {
0 1
  O        2.9378530    -0.0680150     0.1840270
  C       -1.9436970     0.3335570     0.3437070
  C       -2.8302210    -0.7631530    -0.2519080
  C       -0.6196588     0.3344310    -0.2176379
  C        0.5697440     0.1186190     0.3690800
  C        1.8836936     0.1142385    -0.2805859
  H       -1.8508390     0.1975730     1.4263050
  H       -2.4196650     1.3090330     0.1828770
  H       -2.9395310    -0.6342920    -1.3325490
  H       -3.8284810    -0.7404210     0.1934590
  H       -2.3959700    -1.7495570    -0.0705440
  H       -0.5478170     0.5276110    -1.3553930
  H        0.6030990    -0.0751360     1.4392450
  H        1.7772940     0.3293450    -1.4382350
units angstrom
no_reorient  #important for SAPT in psi4, default
symmetry c1  #important for SAPT in psi4, default
}

set PROPERTIES_ORIGIN ["COM"]
properties('MP2/aug-cc-pvtz', properties = ['dipole'])
--------------------------------------------------------------------------

    Molecular point group: c1
  Charge       = 0
  Multiplicity = 1
  Basis Set: AUG-CC-PVTZ
    Blend: AUG-CC-PVTZ
  Basis Set: (AUG-CC-PVTZ AUX)
    Blend: AUG-CC-PVTZ-JKFIT

    Orbital Energies [Eh]
    ---------------------

    Doubly Occupied:

       1A    -20.555003     2A    -11.331818     3A    -11.277316
       4A    -11.248320     5A    -11.242412     6A    -11.237032
       7A     -1.419328     8A     -1.122280     9A     -1.031776
      10A     -0.911278    11A     -0.814349    12A     -0.765326
      13A     -0.679914    14A     -0.664412    15A     -0.625959
      16A     -0.610937    17A     -0.562278    18A     -0.548047
      19A     -0.545827    20A     -0.524209    21A     -0.496810
      22A     -0.413720    23A     -0.381867

  @DF-RHF Final Energy:  -268.92584922994962

   => Energetics <=

    Nuclear Repulsion Energy =            211.1967204782784506
    One-Electron Energy =                -782.2247052191092962
    Two-Electron Energy =                 302.1021355108811690
    Total Energy =                       -268.9258492299496197
  Basis Set: (AUG-CC-PVTZ AUX)
    Blend: AUG-CC-PVTZ-RI
    Molecular point group: c1

    Geometry (in Angstrom), charge = 0, multiplicity = 1:

       Center              X                  Y                   Z               Mass
    ------------   -----------------  -----------------  -----------------  -----------------
         O            2.937658583353    -0.064708113941     0.165788869355    15.994914619570
         C           -1.943891416647     0.336863886059     0.325468869355    12.000000000000
         C           -2.830415416647    -0.759846113941    -0.270146130645    12.000000000000
         C           -0.619853216647     0.337737886059    -0.235876030645    12.000000000000
         C            0.569549583353     0.121925886059     0.350841869355    12.000000000000
         C            1.883499183353     0.117545386059    -0.298824030645    12.000000000000
         H           -1.851033416647     0.200879886059     1.408066869355     1.007825032230
         H           -2.419859416647     1.312339886059     0.164638869355     1.007825032230
         H           -2.939725416647    -0.630985113941    -1.350787130645     1.007825032230
         H           -3.828675416647    -0.737114113941     0.175220869355     1.007825032230
         H           -2.396164416647    -1.746250113941    -0.088782130645     1.007825032230
         H           -0.548011416647     0.530917886059    -1.373631130645     1.007825032230
         H            0.602904583353    -0.071829113941     1.421006869355     1.007825032230
         H            1.777099583353     0.332651886059    -1.456473130645     1.007825032230

  Basis Set: AUG-CC-PVTZ
    Blend: AUG-CC-PVTZ
  Basis Set: (AUG-CC-PVTZ AUX)
    Blend: AUG-CC-PVTZ-JKFIT
	 Reference Energy          =    -268.9258492299496197 [Eh]
	 Singles Energy            =      -0.0000000000000000 [Eh]
	 Same-Spin Energy          =      -0.2690385869756349 [Eh]
	 Opposite-Spin Energy      =      -0.9118945723303198 [Eh]
	 Correlation Energy        =      -1.1809331593059547 [Eh]
	 Total Energy              =    -270.1067823892555566 [Eh]

	 ================> DF-SCS-MP2 Energies <==================
	-----------------------------------------------------------
	 SCS Same-Spin Scale       =       0.3333333333333333 [-]
	 SCS Opposite-Spin Scale   =       1.2000000000000000 [-]
	 SCS Same-Spin Energy      =      -0.0896795289918783 [Eh]
	 SCS Opposite-Spin Energy  =      -1.0942734867963837 [Eh]
	 SCS Correlation Energy    =      -1.1839530157882621 [Eh]
	 SCS Total Energy          =    -270.1098022457379102 [Eh]
	-----------------------------------------------------------

  Dipole Moment: [D]
     X:    -3.8192      Y:     0.3251      Z:    -0.4520     Total:     3.8596

*** Psi4 exiting successfully. Buy a developer a beer!
