                               Psi4 1.3.2 release

  ==> Input File <==

--------------------------------------------------------------------------
#psi4
#
memory 32 gb

molecule  {
0 1
  O        2.9378530    -0.0680150     0.1840270
  C       -1.9436970     0.3335570     0.3437070
  C       -2.8889539    -0.7394087    -0.2028173
  C       -0.5672643     0.4024025    -0.2323808
  C        0.5697440     0.1186190     0.3690800
  C        1.8486100     0.1294800    -0.3471130
  H       -1.8508390     0.1975730     1.4263050
  H       -2.4196650     1.3090330     0.1828770
  H       -2.9395310    -0.6342920    -1.3325490
  H       -3.8284810    -0.7404210     0.1934590
  H       -2.3959700    -1.7495570    -0.0705440
  H       -0.5478170     0.5276110    -1.3553930
  H        0.6030990    -0.0751360     1.4392450
  H        1.7772940     0.3293450    -1.4382350
units angstrom
no_reorient  #important for SAPT in psi4, default
symmetry c1  #important for SAPT in psi4, default
}

set PROPERTIES_ORIGIN ["COM"]
properties('MP2/aug-cc-pvtz', properties = ['dipole'])
--------------------------------------------------------------------------

    Molecular point group: c1
  Charge       = 0
  Multiplicity = 1
  Basis Set: AUG-CC-PVTZ
    Blend: AUG-CC-PVTZ
  Basis Set: (AUG-CC-PVTZ AUX)
    Blend: AUG-CC-PVTZ-JKFIT

    Orbital Energies [Eh]
    ---------------------

    Doubly Occupied:

       1A    -20.551888     2A    -11.333834     3A    -11.274034
       4A    -11.250188     5A    -11.243644     6A    -11.237817
       7A     -1.375501     8A     -1.119303     9A     -1.035239
      10A     -0.909347    11A     -0.819742    12A     -0.777073
      13A     -0.679347    14A     -0.650609    15A     -0.618611
      16A     -0.608415    17A     -0.565636    18A     -0.546243
      19A     -0.530916    20A     -0.510235    21A     -0.491277
      22A     -0.426795    23A     -0.387891

  @DF-RHF Final Energy:  -268.92488591848002

   => Energetics <=

    Nuclear Repulsion Energy =            209.9305363674788509
    One-Electron Energy =                -779.8236730309856739
    Two-Electron Energy =                 300.9682507450267508
    Total Energy =                       -268.9248859184800153
  Basis Set: (AUG-CC-PVTZ AUX)
    Blend: AUG-CC-PVTZ-RI
    Molecular point group: c1

    Geometry (in Angstrom), charge = 0, multiplicity = 1:

       Center              X                  Y                   Z               Mass
    ------------   -----------------  -----------------  -----------------  -----------------
         O            2.943571963028    -0.079977273419     0.170382766766    15.994914619570
         C           -1.937978036972     0.321594726581     0.330062766766    12.000000000000
         C           -2.883234936972    -0.751370973419    -0.216461533234    12.000000000000
         C           -0.561545336972     0.390440226581    -0.246025033234    12.000000000000
         C            0.575462963028     0.106656726581     0.355435766766    12.000000000000
         C            1.854328963028     0.117517726581    -0.360757233234    12.000000000000
         H           -1.845120036972     0.185610726581     1.412660766766     1.007825032230
         H           -2.413946036972     1.297070726581     0.169232766766     1.007825032230
         H           -2.933812036972    -0.646254273419    -1.346193233234     1.007825032230
         H           -3.822762036972    -0.752383273419     0.179814766766     1.007825032230
         H           -2.390251036972    -1.761519273419    -0.084188233234     1.007825032230
         H           -0.542098036972     0.515648726581    -1.369037233234     1.007825032230
         H            0.608817963028    -0.087098273419     1.425600766766     1.007825032230
         H            1.783012963028     0.317382726581    -1.451879233234     1.007825032230

  Basis Set: AUG-CC-PVTZ
    Blend: AUG-CC-PVTZ
  Basis Set: (AUG-CC-PVTZ AUX)
    Blend: AUG-CC-PVTZ-JKFIT
	 Reference Energy          =    -268.9248859184800153 [Eh]
	 Singles Energy            =      -0.0000000000000000 [Eh]
	 Same-Spin Energy          =      -0.2694192429889876 [Eh]
	 Opposite-Spin Energy      =      -0.9141106250748654 [Eh]
	 Correlation Energy        =      -1.1835298680638529 [Eh]
	 Total Energy              =    -270.1084157865438442 [Eh]

	 ================> DF-SCS-MP2 Energies <==================
	-----------------------------------------------------------
	 SCS Same-Spin Scale       =       0.3333333333333333 [-]
	 SCS Opposite-Spin Scale   =       1.2000000000000000 [-]
	 SCS Same-Spin Energy      =      -0.0898064143296625 [Eh]
	 SCS Opposite-Spin Energy  =      -1.0969327500898385 [Eh]
	 SCS Correlation Energy    =      -1.1867391644195009 [Eh]
	 SCS Total Energy          =    -270.1116250828995362 [Eh]
	-----------------------------------------------------------

  Dipole Moment: [D]
     X:    -3.8708      Y:     0.3499      Z:    -0.7379     Total:     3.9560

*** Psi4 exiting successfully. Buy a developer a beer!
