                               Psi4 1.3.2 release

  ==> Input File <==

--------------------------------------------------------------------------
#psi4
#
memory 32 gb

molecule  {
0 1
  O        2.9378530    -0.0680150     0.1840270
  C       -1.9436970     0.3335570     0.3437070
  C       -2.8302210    -0.7631530    -0.2519080
  C       -0.5859380     0.3423530    -0.2788660
  C        0.5638191     0.1174202     0.3791276
  C        1.8486100     0.1294800    -0.3471130
  H       -1.8508390     0.1975730     1.4263050
  H       -2.4196650     1.3090330     0.1828770
  H       -2.9395310    -0.6342920    -1.3325490
  H       -3.8284810    -0.7404210     0.1934590
  H       -2.3959700    -1.7495570    -0.0705440
  H       -0.5573092     0.5285384    -1.3555273
  H        0.6030990    -0.0751360     1.4392450
  H        1.7772940     0.3293450    -1.4382350
units angstrom
no_reorient  #important for SAPT in psi4, default
symmetry c1  #important for SAPT in psi4, default
}

set PROPERTIES_ORIGIN ["COM"]
properties('MP2/aug-cc-pvtz', properties = ['dipole'])
--------------------------------------------------------------------------

    Molecular point group: c1
  Charge       = 0
  Multiplicity = 1
  Basis Set: AUG-CC-PVTZ
    Blend: AUG-CC-PVTZ
  Basis Set: (AUG-CC-PVTZ AUX)
    Blend: AUG-CC-PVTZ-JKFIT

    Orbital Energies [Eh]
    ---------------------

    Doubly Occupied:

       1A    -20.549295     2A    -11.332358     3A    -11.273840
       4A    -11.249673     5A    -11.245143     6A    -11.235310
       7A     -1.373194     8A     -1.116379     9A     -1.030985
      10A     -0.904666    11A     -0.816243    12A     -0.783272
      13A     -0.679293    14A     -0.648931    15A     -0.616395
      16A     -0.606625    17A     -0.561064    18A     -0.546509
      19A     -0.526175    20A     -0.516044    21A     -0.506761
      22A     -0.423350    23A     -0.380885

  @DF-RHF Final Energy:  -268.93600789295795

   => Energetics <=

    Nuclear Repulsion Energy =            210.0022640639436133
    One-Electron Energy =                -780.0317640178182046
    Two-Electron Energy =                 301.0934920609166738
    Total Energy =                       -268.9360078929579458
  Basis Set: (AUG-CC-PVTZ AUX)
    Blend: AUG-CC-PVTZ-RI
    Molecular point group: c1

    Geometry (in Angstrom), charge = 0, multiplicity = 1:

       Center              X                  Y                   Z               Mass
    ------------   -----------------  -----------------  -----------------  -----------------
         O            2.938812779702    -0.067854900487     0.182594345379    15.994914619570
         C           -1.942737220298     0.333717099513     0.342274345379    12.000000000000
         C           -2.829261220298    -0.762992900487    -0.253340654621    12.000000000000
         C           -0.584978220298     0.342513099513    -0.280298654621    12.000000000000
         C            0.564778879702     0.117580299513     0.377694945379    12.000000000000
         C            1.849569779702     0.129640099513    -0.348545654621    12.000000000000
         H           -1.849879220298     0.197733099513     1.424872345379     1.007825032230
         H           -2.418705220298     1.309193099513     0.181444345379     1.007825032230
         H           -2.938571220298    -0.634131900487    -1.333981654621     1.007825032230
         H           -3.827521220298    -0.740260900487     0.192026345379     1.007825032230
         H           -2.395010220298    -1.749396900487    -0.071976654621     1.007825032230
         H           -0.556349420298     0.528698499513    -1.356959954621     1.007825032230
         H            0.604058779702    -0.074975900487     1.437812345379     1.007825032230
         H            1.778253779702     0.329505099513    -1.439667654621     1.007825032230

  Basis Set: AUG-CC-PVTZ
    Blend: AUG-CC-PVTZ
  Basis Set: (AUG-CC-PVTZ AUX)
    Blend: AUG-CC-PVTZ-JKFIT
	 Reference Energy          =    -268.9360078929579458 [Eh]
	 Singles Energy            =      -0.0000000000000000 [Eh]
	 Same-Spin Energy          =      -0.2693180593358173 [Eh]
	 Opposite-Spin Energy      =      -0.9138133361022610 [Eh]
	 Correlation Energy        =      -1.1831313954380782 [Eh]
	 Total Energy              =    -270.1191392883960134 [Eh]

	 ================> DF-SCS-MP2 Energies <==================
	-----------------------------------------------------------
	 SCS Same-Spin Scale       =       0.3333333333333333 [-]
	 SCS Opposite-Spin Scale   =       1.2000000000000000 [-]
	 SCS Same-Spin Energy      =      -0.0897726864452724 [Eh]
	 SCS Opposite-Spin Energy  =      -1.0965760033227132 [Eh]
	 SCS Correlation Energy    =      -1.1863486897679856 [Eh]
	 SCS Total Energy          =    -270.1223565827259563 [Eh]
	-----------------------------------------------------------

  Dipole Moment: [D]
     X:    -3.9161      Y:     0.4068      Z:    -0.7731     Total:     4.0124

*** Psi4 exiting successfully. Buy a developer a beer!
