                               Psi4 1.3.2 release

  ==> Input File <==

--------------------------------------------------------------------------
#psi4
#
memory 32 gb

molecule  {
0 1
  O        2.9280009    -0.0704195     0.2029049
  C       -1.9436970     0.3335570     0.3437070
  C       -2.8302210    -0.7631530    -0.2519080
  C       -0.5859380     0.3423530    -0.2788660
  C        0.5697440     0.1186190     0.3690800
  C        1.8486100     0.1294800    -0.3471130
  H       -1.8508390     0.1975730     1.4263050
  H       -2.4196650     1.3090330     0.1828770
  H       -2.9395310    -0.6342920    -1.3325490
  H       -3.8284810    -0.7404210     0.1934590
  H       -2.3959700    -1.7495570    -0.0705440
  H       -0.5478170     0.5276110    -1.3553930
  H        0.6030990    -0.0751360     1.4392450
  H        1.7580299     0.3308727    -1.4365236
units angstrom
no_reorient  #important for SAPT in psi4, default
symmetry c1  #important for SAPT in psi4, default
}

set PROPERTIES_ORIGIN ["COM"]
properties('MP2/aug-cc-pvtz', properties = ['dipole'])
--------------------------------------------------------------------------

    Molecular point group: c1
  Charge       = 0
  Multiplicity = 1
  Basis Set: AUG-CC-PVTZ
    Blend: AUG-CC-PVTZ
  Basis Set: (AUG-CC-PVTZ AUX)
    Blend: AUG-CC-PVTZ-JKFIT

    Orbital Energies [Eh]
    ---------------------

    Doubly Occupied:

       1A    -20.549626     2A    -11.332121     3A    -11.273724
       4A    -11.250135     5A    -11.244048     6A    -11.235445
       7A     -1.373573     8A     -1.116443     9A     -1.031914
      10A     -0.905813    11A     -0.817663    12A     -0.781811
      13A     -0.679107    14A     -0.649244    15A     -0.615939
      16A     -0.606976    17A     -0.557860    18A     -0.547032
      19A     -0.527023    20A     -0.516586    21A     -0.506648
      22A     -0.424436    23A     -0.380410

  @DF-RHF Final Energy:  -268.93574534212803

   => Energetics <=

    Nuclear Repulsion Energy =            210.1813652722271399
    One-Electron Energy =                -780.3870641877061871
    Two-Electron Energy =                 301.2699535733510174
    Total Energy =                       -268.9357453421280297
  Basis Set: (AUG-CC-PVTZ AUX)
    Blend: AUG-CC-PVTZ-RI
    Molecular point group: c1

    Geometry (in Angstrom), charge = 0, multiplicity = 1:

       Center              X                  Y                   Z               Mass
    ------------   -----------------  -----------------  -----------------  -----------------
         O            2.930106717197    -0.069980196720     0.199292317247    15.994914619570
         C           -1.941591182803     0.333996303280     0.340094417247    12.000000000000
         C           -2.828115182803    -0.762713696720    -0.255520582753    12.000000000000
         C           -0.583832182803     0.342792303280    -0.282478582753    12.000000000000
         C            0.571849817197     0.119058303280     0.365467417247    12.000000000000
         C            1.850715817197     0.129919303280    -0.350725582753    12.000000000000
         H           -1.848733182803     0.198012303280     1.422692417247     1.007825032230
         H           -2.417559182803     1.309472303280     0.179264417247     1.007825032230
         H           -2.937425182803    -0.633852696720    -1.336161582753     1.007825032230
         H           -3.826375182803    -0.739981696720     0.189846417247     1.007825032230
         H           -2.393864182803    -1.749117696720    -0.074156582753     1.007825032230
         H           -0.545711182803     0.528050303280    -1.359005582753     1.007825032230
         H            0.605204817197    -0.074696696720     1.435632417247     1.007825032230
         H            1.760135717197     0.331312003280    -1.440136182753     1.007825032230

  Basis Set: AUG-CC-PVTZ
    Blend: AUG-CC-PVTZ
  Basis Set: (AUG-CC-PVTZ AUX)
    Blend: AUG-CC-PVTZ-JKFIT
	 Reference Energy          =    -268.9357453421280297 [Eh]
	 Singles Energy            =      -0.0000000000000000 [Eh]
	 Same-Spin Energy          =      -0.2694781465434639 [Eh]
	 Opposite-Spin Energy      =      -0.9139717723024603 [Eh]
	 Correlation Energy        =      -1.1834499188459242 [Eh]
	 Total Energy              =    -270.1191952609739815 [Eh]

	 ================> DF-SCS-MP2 Energies <==================
	-----------------------------------------------------------
	 SCS Same-Spin Scale       =       0.3333333333333333 [-]
	 SCS Opposite-Spin Scale   =       1.2000000000000000 [-]
	 SCS Same-Spin Energy      =      -0.0898260488478213 [Eh]
	 SCS Opposite-Spin Energy  =      -1.0967661267629523 [Eh]
	 SCS Correlation Energy    =      -1.1865921756107736 [Eh]
	 SCS Total Energy          =    -270.1223375177387993 [Eh]
	-----------------------------------------------------------

  Dipole Moment: [D]
     X:    -3.9129      Y:     0.4107      Z:    -0.8040     Total:     4.0157

*** Psi4 exiting successfully. Buy a developer a beer!
