                               Psi4 1.3.2 release

  ==> Input File <==

--------------------------------------------------------------------------
#psi4
#
memory 32 gb

molecule  {
0 1
  O        2.9378530    -0.0680150     0.1840270
  C       -1.9436970     0.3335570     0.3437070
  C       -2.8302210    -0.7631530    -0.2519080
  C       -0.5859380     0.3423530    -0.2788660
  C        0.5697440     0.1186190     0.3690800
  C        1.8486100     0.1294800    -0.3471130
  H       -1.8508390     0.1975730     1.4263050
  H       -2.4196650     1.3090330     0.1828770
  H       -2.9395310    -0.6342920    -1.3325490
  H       -3.8284810    -0.7404210     0.1934590
  H       -2.3959700    -1.7495570    -0.0705440
  H       -0.5478170     0.5276110    -1.3553930
  H        0.6030990    -0.0751360     1.4392450
  H        1.7644624     0.3653060    -1.6345566
units angstrom
no_reorient  #important for SAPT in psi4, default
symmetry c1  #important for SAPT in psi4, default
}

set PROPERTIES_ORIGIN ["COM"]
properties('MP2/aug-cc-pvtz', properties = ['dipole'])
--------------------------------------------------------------------------

    Molecular point group: c1
  Charge       = 0
  Multiplicity = 1
  Basis Set: AUG-CC-PVTZ
    Blend: AUG-CC-PVTZ
  Basis Set: (AUG-CC-PVTZ AUX)
    Blend: AUG-CC-PVTZ-JKFIT

    Orbital Energies [Eh]
    ---------------------

    Doubly Occupied:

       1A    -20.555542     2A    -11.353446     3A    -11.276376
       4A    -11.251586     5A    -11.249078     6A    -11.236516
       7A     -1.377550     8A     -1.118008     9A     -1.032531
      10A     -0.904412    11A     -0.812342    12A     -0.764912
      13A     -0.667426    14A     -0.651938    15A     -0.617054
      16A     -0.598569    17A     -0.558283    18A     -0.548579
      19A     -0.530563    20A     -0.517112    21A     -0.507898
      22A     -0.415088    23A     -0.383413

  @DF-RHF Final Energy:  -268.91560527796963

   => Energetics <=

    Nuclear Repulsion Energy =            209.3057411153225758
    One-Electron Energy =                -778.5862477925528538
    Two-Electron Energy =                 300.3649013992606456
    Total Energy =                       -268.9156052779696324
  Basis Set: (AUG-CC-PVTZ AUX)
    Blend: AUG-CC-PVTZ-RI
    Molecular point group: c1

    Geometry (in Angstrom), charge = 0, multiplicity = 1:

       Center              X                  Y                   Z               Mass
    ------------   -----------------  -----------------  -----------------  -----------------
         O            2.938006982991    -0.068446083074     0.186380963058    15.994914619570
         C           -1.943543017009     0.333125916926     0.346060963058    12.000000000000
         C           -2.830067017009    -0.763584083074    -0.249554036942    12.000000000000
         C           -0.585784017009     0.341921916926    -0.276512036942    12.000000000000
         C            0.569897982991     0.118187916926     0.371433963058    12.000000000000
         C            1.848763982991     0.129048916926    -0.344759036942    12.000000000000
         H           -1.850685017009     0.197141916926     1.428658963058     1.007825032230
         H           -2.419511017009     1.308601916926     0.185230963058     1.007825032230
         H           -2.939377017009    -0.634723083074    -1.330195036942     1.007825032230
         H           -3.828327017009    -0.740852083074     0.195812963058     1.007825032230
         H           -2.395816017009    -1.749988083074    -0.068190036942     1.007825032230
         H           -0.547663017009     0.527179916926    -1.353039036942     1.007825032230
         H            0.603252982991    -0.075567083074     1.441598963058     1.007825032230
         H            1.764616382991     0.364874916926    -1.632202636942     1.007825032230

  Basis Set: AUG-CC-PVTZ
    Blend: AUG-CC-PVTZ
  Basis Set: (AUG-CC-PVTZ AUX)
    Blend: AUG-CC-PVTZ-JKFIT
	 Reference Energy          =    -268.9156052779696324 [Eh]
	 Singles Energy            =      -0.0000000000000000 [Eh]
	 Same-Spin Energy          =      -0.2705414216578637 [Eh]
	 Opposite-Spin Energy      =      -0.9165261131418736 [Eh]
	 Correlation Energy        =      -1.1870675347997373 [Eh]
	 Total Energy              =    -270.1026728127693559 [Eh]

	 ================> DF-SCS-MP2 Energies <==================
	-----------------------------------------------------------
	 SCS Same-Spin Scale       =       0.3333333333333333 [-]
	 SCS Opposite-Spin Scale   =       1.2000000000000000 [-]
	 SCS Same-Spin Energy      =      -0.0901804738859545 [Eh]
	 SCS Opposite-Spin Energy  =      -1.0998313357702483 [Eh]
	 SCS Correlation Energy    =      -1.1900118096562029 [Eh]
	 SCS Total Energy          =    -270.1056170876258307 [Eh]
	-----------------------------------------------------------

  Dipole Moment: [D]
     X:    -3.9496      Y:     0.3493      Z:    -0.4787     Total:     3.9938

*** Psi4 exiting successfully. Buy a developer a beer!
