                               Psi4 1.3.2 release

  ==> Input File <==

--------------------------------------------------------------------------
#psi4
#
memory 32 gb

molecule  {
0 1
  O        2.9378530    -0.0680150     0.1840270
  C       -1.9436970     0.3335570     0.3437070
  C       -2.8302210    -0.7631530    -0.2519080
  C       -0.5859380     0.3423530    -0.2788660
  C        0.5697440     0.1186190     0.3690800
  C        1.8486100     0.1294800    -0.3471130
  H       -1.8508390     0.1975730     1.4263050
  H       -2.4196650     1.3090330     0.1828770
  H       -2.9395310    -0.6342920    -1.3325490
  H       -3.8284810    -0.7404210     0.1934590
  H       -2.3959700    -1.7495570    -0.0705440
  H       -0.5408416     0.5615095    -1.5523758
  H        0.6030990    -0.0751360     1.4392450
  H        1.7772940     0.3293450    -1.4382350
units angstrom
no_reorient  #important for SAPT in psi4, default
symmetry c1  #important for SAPT in psi4, default
}

set PROPERTIES_ORIGIN ["COM"]
properties('MP2/aug-cc-pvtz', properties = ['dipole'])
--------------------------------------------------------------------------

    Molecular point group: c1
  Charge       = 0
  Multiplicity = 1
  Basis Set: AUG-CC-PVTZ
    Blend: AUG-CC-PVTZ
  Basis Set: (AUG-CC-PVTZ AUX)
    Blend: AUG-CC-PVTZ-JKFIT

    Orbital Energies [Eh]
    ---------------------

    Doubly Occupied:

       1A    -20.549308     2A    -11.331800     3A    -11.295601
       4A    -11.253245     5A    -11.247248     6A    -11.235902
       7A     -1.373415     8A     -1.113850     9A     -1.032785
      10A     -0.904557    11A     -0.815630    12A     -0.765568
      13A     -0.669971    14A     -0.649636    15A     -0.616464
      16A     -0.605409    17A     -0.549217    18A     -0.544468
      19A     -0.527108    20A     -0.516074    21A     -0.496820
      22A     -0.424529    23A     -0.382568

  @DF-RHF Final Energy:  -268.91466124490228

   => Energetics <=

    Nuclear Repulsion Energy =            209.2799299329301732
    One-Electron Energy =                -778.5868346272067129
    Two-Electron Energy =                 300.3922434493742912
    Total Energy =                       -268.9146612449022768
  Basis Set: (AUG-CC-PVTZ AUX)
    Blend: AUG-CC-PVTZ-RI
    Molecular point group: c1

    Geometry (in Angstrom), charge = 0, multiplicity = 1:

       Center              X                  Y                   Z               Mass
    ------------   -----------------  -----------------  -----------------  -----------------
         O            2.937769502850    -0.068421354302     0.186388890653    15.994914619570
         C           -1.943780497150     0.333150645698     0.346068890653    12.000000000000
         C           -2.830304497150    -0.763559354302    -0.249546109347    12.000000000000
         C           -0.586021497150     0.341946645698    -0.276504109347    12.000000000000
         C            0.569660502850     0.118212645698     0.371441890653    12.000000000000
         C            1.848526502850     0.129073645698    -0.344751109347    12.000000000000
         H           -1.850922497150     0.197166645698     1.428666890653     1.007825032230
         H           -2.419748497150     1.308626645698     0.185238890653     1.007825032230
         H           -2.939614497150    -0.634698354302    -1.330187109347     1.007825032230
         H           -3.828564497150    -0.740827354302     0.195820890653     1.007825032230
         H           -2.396053497150    -1.749963354302    -0.068182109347     1.007825032230
         H           -0.540925097150     0.561103145698    -1.550013909347     1.007825032230
         H            0.603015502850    -0.075542354302     1.441606890653     1.007825032230
         H            1.777210502850     0.328938645698    -1.435873109347     1.007825032230

  Basis Set: AUG-CC-PVTZ
    Blend: AUG-CC-PVTZ
  Basis Set: (AUG-CC-PVTZ AUX)
    Blend: AUG-CC-PVTZ-JKFIT
	 Reference Energy          =    -268.9146612449022768 [Eh]
	 Singles Energy            =      -0.0000000000000000 [Eh]
	 Same-Spin Energy          =      -0.2700078108288088 [Eh]
	 Opposite-Spin Energy      =      -0.9160150917441530 [Eh]
	 Correlation Energy        =      -1.1860229025729616 [Eh]
	 Total Energy              =    -270.1006841474752491 [Eh]

	 ================> DF-SCS-MP2 Energies <==================
	-----------------------------------------------------------
	 SCS Same-Spin Scale       =       0.3333333333333333 [-]
	 SCS Opposite-Spin Scale   =       1.2000000000000000 [-]
	 SCS Same-Spin Energy      =      -0.0900026036096029 [Eh]
	 SCS Opposite-Spin Energy  =      -1.0992181100929834 [Eh]
	 SCS Correlation Energy    =      -1.1892207137025863 [Eh]
	 SCS Total Energy          =    -270.1038819586048589 [Eh]
	-----------------------------------------------------------

  Dipole Moment: [D]
     X:    -3.9639      Y:     0.3865      Z:    -0.6622     Total:     4.0374

*** Psi4 exiting successfully. Buy a developer a beer!
