                               Psi4 1.3.2 release

  ==> Input File <==

--------------------------------------------------------------------------
#psi4
#
memory 32 gb

molecule  {
0 1
  O        2.9378530    -0.0680150     0.1840270
  C       -1.9215617     0.3226901     0.3896449
  C       -2.8302210    -0.7631530    -0.2519080
  C       -0.5859380     0.3423530    -0.2788660
  C        0.5454256     0.1128594     0.4087682
  C        1.8486100     0.1294800    -0.3471130
  H       -1.8508390     0.1975730     1.4263050
  H       -2.4196650     1.3090330     0.1828770
  H       -2.9395310    -0.6342920    -1.3325490
  H       -3.8284810    -0.7404210     0.1934590
  H       -2.3959700    -1.7495570    -0.0705440
  H       -0.5478170     0.5276110    -1.3553930
  H        0.6030990    -0.0751360     1.4392450
  H        1.7772940     0.3293450    -1.4382350
units angstrom
no_reorient  #important for SAPT in psi4, default
symmetry c1  #important for SAPT in psi4, default
}

set PROPERTIES_ORIGIN ["COM"]
properties('MP2/aug-cc-pvtz', properties = ['dipole'])
--------------------------------------------------------------------------

    Molecular point group: c1
  Charge       = 0
  Multiplicity = 1
  Basis Set: AUG-CC-PVTZ
    Blend: AUG-CC-PVTZ
  Basis Set: (AUG-CC-PVTZ AUX)
    Blend: AUG-CC-PVTZ-JKFIT

    Orbital Energies [Eh]
    ---------------------

    Doubly Occupied:

       1A    -20.549500     2A    -11.333845     3A    -11.272205
       4A    -11.247641     5A    -11.243752     6A    -11.235257
       7A     -1.372895     8A     -1.114931     9A     -1.024577
      10A     -0.900440    11A     -0.814564    12A     -0.789257
      13A     -0.678007    14A     -0.646833    15A     -0.618456
      16A     -0.603913    17A     -0.567757    18A     -0.538910
      19A     -0.524346    20A     -0.519901    21A     -0.509345
      22A     -0.420132    23A     -0.378463

  @DF-RHF Final Energy:  -268.93090997873225

   => Energetics <=

    Nuclear Repulsion Energy =            209.7457135080087482
    One-Electron Energy =                -779.5433922355857703
    Two-Electron Energy =                 300.8667687488447768
    Total Energy =                       -268.9309099787322452
  Basis Set: (AUG-CC-PVTZ AUX)
    Blend: AUG-CC-PVTZ-RI
    Molecular point group: c1

    Geometry (in Angstrom), charge = 0, multiplicity = 1:

       Center              X                  Y                   Z               Mass
    ------------   -----------------  -----------------  -----------------  -----------------
         O            2.938164793893    -0.065641332109     0.171803194198    15.994914619570
         C           -1.921249906107     0.325063767891     0.377421094198    12.000000000000
         C           -2.829909206107    -0.760779332109    -0.264131805802    12.000000000000
         C           -0.585626206107     0.344726667891    -0.291089805802    12.000000000000
         C            0.545737393893     0.115233067891     0.396544394198    12.000000000000
         C            1.848921793893     0.131853667891    -0.359336805802    12.000000000000
         H           -1.850527206107     0.199946667891     1.414081194198     1.007825032230
         H           -2.419353206107     1.311406667891     0.170653194198     1.007825032230
         H           -2.939219206107    -0.631918332109    -1.344772805802     1.007825032230
         H           -3.828169206107    -0.738047332109     0.181235194198     1.007825032230
         H           -2.395658206107    -1.747183332109    -0.082767805802     1.007825032230
         H           -0.547505206107     0.529984667891    -1.367616805802     1.007825032230
         H            0.603410793893    -0.072762332109     1.427021194198     1.007825032230
         H            1.777605793893     0.331718667891    -1.450458805802     1.007825032230

  Basis Set: AUG-CC-PVTZ
    Blend: AUG-CC-PVTZ
  Basis Set: (AUG-CC-PVTZ AUX)
    Blend: AUG-CC-PVTZ-JKFIT
	 Reference Energy          =    -268.9309099787322452 [Eh]
	 Singles Energy            =      -0.0000000000000000 [Eh]
	 Same-Spin Energy          =      -0.2690918228035468 [Eh]
	 Opposite-Spin Energy      =      -0.9137035034012577 [Eh]
	 Correlation Energy        =      -1.1827953262048045 [Eh]
	 Total Energy              =    -270.1137053049370707 [Eh]

	 ================> DF-SCS-MP2 Energies <==================
	-----------------------------------------------------------
	 SCS Same-Spin Scale       =       0.3333333333333333 [-]
	 SCS Opposite-Spin Scale   =       1.2000000000000000 [-]
	 SCS Same-Spin Energy      =      -0.0896972742678489 [Eh]
	 SCS Opposite-Spin Energy  =      -1.0964442040815092 [Eh]
	 SCS Correlation Energy    =      -1.1861414783493582 [Eh]
	 SCS Total Energy          =    -270.1170514570816295 [Eh]
	-----------------------------------------------------------

  Dipole Moment: [D]
     X:    -3.8385      Y:     0.4002      Z:    -0.7636     Total:     3.9341

*** Psi4 exiting successfully. Buy a developer a beer!
