                               Psi4 1.3.2 release

  ==> Input File <==

--------------------------------------------------------------------------
#psi4
#
memory 32 gb

molecule  {
0 1
  O        2.9378530    -0.0680150     0.1840270
  C       -1.9436970     0.3335570     0.3437070
  C       -2.8302210    -0.7631530    -0.2519080
  C       -0.5859380     0.3423530    -0.2788660
  C        0.5697440     0.1186190     0.3690800
  C        1.8486100     0.1294800    -0.3471130
  H       -1.8508390     0.1975730     1.4263050
  H       -2.4196650     1.3090330     0.1828770
  H       -2.9395310    -0.6342920    -1.3325490
  H       -3.8284810    -0.7404210     0.1934590
  H       -2.3959700    -1.7495570    -0.0705440
  H       -0.5478170     0.5276110    -1.3553930
  H        0.6000335    -0.0573289     1.3408910
  H        1.7772940     0.3293450    -1.4382350
units angstrom
no_reorient  #important for SAPT in psi4, default
symmetry c1  #important for SAPT in psi4, default
}

set PROPERTIES_ORIGIN ["COM"]
properties('MP2/aug-cc-pvtz', properties = ['dipole'])
--------------------------------------------------------------------------

    Molecular point group: c1
  Charge       = 0
  Multiplicity = 1
  Basis Set: AUG-CC-PVTZ
    Blend: AUG-CC-PVTZ
  Basis Set: (AUG-CC-PVTZ AUX)
    Blend: AUG-CC-PVTZ-JKFIT

    Orbital Energies [Eh]
    ---------------------

    Doubly Occupied:

       1A    -20.548695     2A    -11.330706     3A    -11.274057
       4A    -11.250667     5A    -11.235854     6A    -11.233641
       7A     -1.372917     8A     -1.118735     9A     -1.034519
      10A     -0.906596    11A     -0.817215    12A     -0.796150
      13A     -0.679394    14A     -0.652096    15A     -0.621608
      16A     -0.607854    17A     -0.566763    18A     -0.547311
      19A     -0.526534    20A     -0.517252    21A     -0.507250
      22A     -0.423582    23A     -0.380756

  @DF-RHF Final Energy:  -268.93012724795392

   => Energetics <=

    Nuclear Repulsion Energy =            210.5563822178108921
    One-Electron Energy =                -781.0727147778889048
    Two-Electron Energy =                 301.5862053121240933
    Total Energy =                       -268.9301272479539193
  Basis Set: (AUG-CC-PVTZ AUX)
    Blend: AUG-CC-PVTZ-RI
    Molecular point group: c1

    Geometry (in Angstrom), charge = 0, multiplicity = 1:

       Center              X                  Y                   Z               Mass
    ------------   -----------------  -----------------  -----------------  -----------------
         O            2.937889890306    -0.068228423119     0.185206360172    15.994914619570
         C           -1.943660109694     0.333343576881     0.344886360172    12.000000000000
         C           -2.830184109694    -0.763366423119    -0.250728639828    12.000000000000
         C           -0.585901109694     0.342139576881    -0.277686639828    12.000000000000
         C            0.569780890306     0.118405576881     0.370259360172    12.000000000000
         C            1.848646890306     0.129266576881    -0.345933639828    12.000000000000
         H           -1.850802109694     0.197359576881     1.427484360172     1.007825032230
         H           -2.419628109694     1.308819576881     0.184056360172     1.007825032230
         H           -2.939494109694    -0.634505423119    -1.331369639828     1.007825032230
         H           -3.828444109694    -0.740634423119     0.194638360172     1.007825032230
         H           -2.395933109694    -1.749770423119    -0.069364639828     1.007825032230
         H           -0.547780109694     0.527397576881    -1.354213639828     1.007825032230
         H            0.600070390306    -0.057542323119     1.342070360172     1.007825032230
         H            1.777330890306     0.329131576881    -1.437055639828     1.007825032230

  Basis Set: AUG-CC-PVTZ
    Blend: AUG-CC-PVTZ
  Basis Set: (AUG-CC-PVTZ AUX)
    Blend: AUG-CC-PVTZ-JKFIT
	 Reference Energy          =    -268.9301272479539193 [Eh]
	 Singles Energy            =      -0.0000000000000000 [Eh]
	 Same-Spin Energy          =      -0.2692333544360467 [Eh]
	 Opposite-Spin Energy      =      -0.9134581772450037 [Eh]
	 Correlation Energy        =      -1.1826915316810505 [Eh]
	 Total Energy              =    -270.1128187796349494 [Eh]

	 ================> DF-SCS-MP2 Energies <==================
	-----------------------------------------------------------
	 SCS Same-Spin Scale       =       0.3333333333333333 [-]
	 SCS Opposite-Spin Scale   =       1.2000000000000000 [-]
	 SCS Same-Spin Energy      =      -0.0897444514786822 [Eh]
	 SCS Opposite-Spin Energy  =      -1.0961498126940044 [Eh]
	 SCS Correlation Energy    =      -1.1858942641726866 [Eh]
	 SCS Total Energy          =    -270.1160215121266219 [Eh]
	-----------------------------------------------------------

  Dipole Moment: [D]
     X:    -3.9657      Y:     0.4056      Z:    -0.7575     Total:     4.0577

*** Psi4 exiting successfully. Buy a developer a beer!
