                               Psi4 1.3.2 release

  ==> Input File <==

--------------------------------------------------------------------------
#psi4
#
memory 32 gb

molecule  {
0 1
  O        2.9378530    -0.0680150     0.1840270
  C       -1.9436970     0.3335570     0.3437070
  C       -2.8302210    -0.7631530    -0.2519080
  C       -0.5917781     0.3411029    -0.2687751
  C        0.5697440     0.1186190     0.3690800
  C        1.8486100     0.1294800    -0.3471130
  H       -1.8508390     0.1975730     1.4263050
  H       -2.4196650     1.3090330     0.1828770
  H       -2.9395310    -0.6342920    -1.3325490
  H       -3.8284810    -0.7404210     0.1934590
  H       -2.3959700    -1.7495570    -0.0705440
  H       -0.5478170     0.5276110    -1.3553930
  H        0.5936473    -0.0743214     1.4396450
  H        1.7772940     0.3293450    -1.4382350
units angstrom
no_reorient  #important for SAPT in psi4, default
symmetry c1  #important for SAPT in psi4, default
}

set PROPERTIES_ORIGIN ["COM"]
properties('MP2/aug-cc-pvtz', properties = ['dipole'])
--------------------------------------------------------------------------

    Molecular point group: c1
  Charge       = 0
  Multiplicity = 1
  Basis Set: AUG-CC-PVTZ
    Blend: AUG-CC-PVTZ
  Basis Set: (AUG-CC-PVTZ AUX)
    Blend: AUG-CC-PVTZ-JKFIT

    Orbital Energies [Eh]
    ---------------------

    Doubly Occupied:

       1A    -20.549272     2A    -11.332099     3A    -11.274760
       4A    -11.250208     5A    -11.244834     6A    -11.236036
       7A     -1.373294     8A     -1.117927     9A     -1.032431
      10A     -0.906930    11A     -0.817846    12A     -0.780320
      13A     -0.679378    14A     -0.650103    15A     -0.616987
      16A     -0.606912    17A     -0.555968    18A     -0.548301
      19A     -0.527038    20A     -0.518107    21A     -0.506015
      22A     -0.424536    23A     -0.380651

  @DF-RHF Final Energy:  -268.93566441889521

   => Energetics <=

    Nuclear Repulsion Energy =            210.1405509270651919
    One-Electron Energy =                -780.2925200863875261
    Two-Electron Energy =                 301.2163047404271197
    Total Energy =                       -268.9356644188952146
  Basis Set: (AUG-CC-PVTZ AUX)
    Blend: AUG-CC-PVTZ-RI
    Molecular point group: c1

    Geometry (in Angstrom), charge = 0, multiplicity = 1:

       Center              X                  Y                   Z               Mass
    ------------   -----------------  -----------------  -----------------  -----------------
         O            2.938800188122    -0.067846224491     0.182581757796    15.994914619570
         C           -1.942749811878     0.333725775509     0.342261757796    12.000000000000
         C           -2.829273811878    -0.762984224491    -0.253353242204    12.000000000000
         C           -0.590830911878     0.341271675509    -0.270220342204    12.000000000000
         C            0.570691188122     0.118787775509     0.367634757796    12.000000000000
         C            1.849557188122     0.129648775509    -0.348558242204    12.000000000000
         H           -1.849891811878     0.197741775509     1.424859757796     1.007825032230
         H           -2.418717811878     1.309201775509     0.181431757796     1.007825032230
         H           -2.938583811878    -0.634123224491    -1.333994242204     1.007825032230
         H           -3.827533811878    -0.740252224491     0.192013757796     1.007825032230
         H           -2.395022811878    -1.749388224491    -0.071989242204     1.007825032230
         H           -0.546869811878     0.527779775509    -1.356838242204     1.007825032230
         H            0.594594488122    -0.074152624491     1.438199757796     1.007825032230
         H            1.778241188122     0.329513775509    -1.439680242204     1.007825032230

  Basis Set: AUG-CC-PVTZ
    Blend: AUG-CC-PVTZ
  Basis Set: (AUG-CC-PVTZ AUX)
    Blend: AUG-CC-PVTZ-JKFIT
	 Reference Energy          =    -268.9356644188952146 [Eh]
	 Singles Energy            =      -0.0000000000000000 [Eh]
	 Same-Spin Energy          =      -0.2695417787766509 [Eh]
	 Opposite-Spin Energy      =      -0.9140291068165781 [Eh]
	 Correlation Energy        =      -1.1835708855932290 [Eh]
	 Total Energy              =    -270.1192353044884271 [Eh]

	 ================> DF-SCS-MP2 Energies <==================
	-----------------------------------------------------------
	 SCS Same-Spin Scale       =       0.3333333333333333 [-]
	 SCS Opposite-Spin Scale   =       1.2000000000000000 [-]
	 SCS Same-Spin Energy      =      -0.0898472595922170 [Eh]
	 SCS Opposite-Spin Energy  =      -1.0968349281798937 [Eh]
	 SCS Correlation Energy    =      -1.1866821877721105 [Eh]
	 SCS Total Energy          =    -270.1223466066673495 [Eh]
	-----------------------------------------------------------

  Dipole Moment: [D]
     X:    -3.9606      Y:     0.4053      Z:    -0.7661     Total:     4.0543

*** Psi4 exiting successfully. Buy a developer a beer!
