                               Psi4 1.3.2 release

  ==> Input File <==

--------------------------------------------------------------------------
#psi4
#
memory 32 gb

molecule  {
0 1
  O        2.9378530    -0.0680150     0.1840270
  C       -1.9214699     0.3238576     0.3898614
  C       -2.8302210    -0.7631530    -0.2519080
  C       -0.5859380     0.3423530    -0.2788660
  C        0.5697440     0.1186190     0.3690800
  C        1.8486100     0.1294800    -0.3471130
  H       -1.8508390     0.1975730     1.4263050
  H       -2.4196650     1.3090330     0.1828770
  H       -2.9395310    -0.6342920    -1.3325490
  H       -3.8284810    -0.7404210     0.1934590
  H       -2.3959700    -1.7495570    -0.0705440
  H       -0.5098177     0.5245521    -1.3538978
  H        0.6030990    -0.0751360     1.4392450
  H        1.7772940     0.3293450    -1.4382350
units angstrom
no_reorient  #important for SAPT in psi4, default
symmetry c1  #important for SAPT in psi4, default
}

set PROPERTIES_ORIGIN ["COM"]
properties('MP2/aug-cc-pvtz', properties = ['dipole'])
--------------------------------------------------------------------------

    Molecular point group: c1
  Charge       = 0
  Multiplicity = 1
  Basis Set: AUG-CC-PVTZ
    Blend: AUG-CC-PVTZ
  Basis Set: (AUG-CC-PVTZ AUX)
    Blend: AUG-CC-PVTZ-JKFIT

    Orbital Energies [Eh]
    ---------------------

    Doubly Occupied:

       1A    -20.548419     2A    -11.331040     3A    -11.274309
       4A    -11.250796     5A    -11.243273     6A    -11.236886
       7A     -1.372585     8A     -1.116685     9A     -1.029219
      10A     -0.905173    11A     -0.819826    12A     -0.782633
      13A     -0.679225    14A     -0.648331    15A     -0.616790
      16A     -0.605619    17A     -0.557327    18A     -0.541189
      19A     -0.525319    20A     -0.522318    21A     -0.511576
      22A     -0.423244    23A     -0.378768

  @DF-RHF Final Energy:  -268.93290750187725

   => Energetics <=

    Nuclear Repulsion Energy =            210.0313469098567509
    One-Electron Energy =                -780.0874082499315136
    Two-Electron Energy =                 301.1231538381974815
    Total Energy =                       -268.9329075018772528
  Basis Set: (AUG-CC-PVTZ AUX)
    Blend: AUG-CC-PVTZ-RI
    Molecular point group: c1

    Geometry (in Angstrom), charge = 0, multiplicity = 1:

       Center              X                  Y                   Z               Mass
    ------------   -----------------  -----------------  -----------------  -----------------
         O            2.934224408001    -0.066593565399     0.177420223213    15.994914619570
         C           -1.925098491999     0.325279034601     0.383254623213    12.000000000000
         C           -2.833849591999    -0.761731565399    -0.258514776787    12.000000000000
         C           -0.589566591999     0.343774434601    -0.285472776787    12.000000000000
         C            0.566115408001     0.120040434601     0.362473223213    12.000000000000
         C            1.844981408001     0.130901434601    -0.353719776787    12.000000000000
         H           -1.854467591999     0.198994434601     1.419698223213     1.007825032230
         H           -2.423293591999     1.310454434601     0.176270223213     1.007825032230
         H           -2.943159591999    -0.632870565399    -1.339155776787     1.007825032230
         H           -3.832109591999    -0.738999565399     0.186852223213     1.007825032230
         H           -2.399598591999    -1.748135565399    -0.077150776787     1.007825032230
         H           -0.513446291999     0.525973534601    -1.360504576787     1.007825032230
         H            0.599470408001    -0.073714565399     1.432638223213     1.007825032230
         H            1.773665408001     0.330766434601    -1.444841776787     1.007825032230

  Basis Set: AUG-CC-PVTZ
    Blend: AUG-CC-PVTZ
  Basis Set: (AUG-CC-PVTZ AUX)
    Blend: AUG-CC-PVTZ-JKFIT
	 Reference Energy          =    -268.9329075018772528 [Eh]
	 Singles Energy            =      -0.0000000000000000 [Eh]
	 Same-Spin Energy          =      -0.2694384423136829 [Eh]
	 Opposite-Spin Energy      =      -0.9138934682798908 [Eh]
	 Correlation Energy        =      -1.1833319105935738 [Eh]
	 Total Energy              =    -270.1162394124708044 [Eh]

	 ================> DF-SCS-MP2 Energies <==================
	-----------------------------------------------------------
	 SCS Same-Spin Scale       =       0.3333333333333333 [-]
	 SCS Opposite-Spin Scale   =       1.2000000000000000 [-]
	 SCS Same-Spin Energy      =      -0.0898128141045610 [Eh]
	 SCS Opposite-Spin Energy  =      -1.0966721619358690 [Eh]
	 SCS Correlation Energy    =      -1.1864849760404299 [Eh]
	 SCS Total Energy          =    -270.1193924779176996 [Eh]
	-----------------------------------------------------------

  Dipole Moment: [D]
     X:    -3.9643      Y:     0.3996      Z:    -0.7500     Total:     4.0544

*** Psi4 exiting successfully. Buy a developer a beer!
