                               Psi4 1.3.2 release

  ==> Input File <==

--------------------------------------------------------------------------
#psi4
#
memory 32 gb

molecule  {
0 1
  O        2.9378530    -0.0680150     0.1840270
  C       -1.9642698     0.3432672     0.2967941
  C       -2.8302210    -0.7631530    -0.2519080
  C       -0.5859380     0.3423530    -0.2788660
  C        0.5697440     0.1186190     0.3690800
  C        1.8486100     0.1294800    -0.3471130
  H       -1.8508390     0.1975730     1.4263050
  H       -2.4196650     1.3090330     0.1828770
  H       -2.9395310    -0.6342920    -1.3325490
  H       -3.8284810    -0.7404210     0.1934590
  H       -2.3959700    -1.7495570    -0.0705440
  H       -0.5858627     0.5304442    -1.3555766
  H        0.6030990    -0.0751360     1.4392450
  H        1.7772940     0.3293450    -1.4382350
units angstrom
no_reorient  #important for SAPT in psi4, default
symmetry c1  #important for SAPT in psi4, default
}

set PROPERTIES_ORIGIN ["COM"]
properties('MP2/aug-cc-pvtz', properties = ['dipole'])
--------------------------------------------------------------------------

    Molecular point group: c1
  Charge       = 0
  Multiplicity = 1
  Basis Set: AUG-CC-PVTZ
    Blend: AUG-CC-PVTZ
  Basis Set: (AUG-CC-PVTZ AUX)
    Blend: AUG-CC-PVTZ-JKFIT

    Orbital Energies [Eh]
    ---------------------

    Doubly Occupied:

       1A    -20.549676     2A    -11.332242     3A    -11.274938
       4A    -11.251070     5A    -11.246959     6A    -11.234966
       7A     -1.373680     8A     -1.117551     9A     -1.035378
      10A     -0.907157    11A     -0.816639    12A     -0.780841
      13A     -0.680015    14A     -0.651757    15A     -0.617067
      16A     -0.606533    17A     -0.561119    18A     -0.553355
      19A     -0.528322    20A     -0.518335    21A     -0.490661
      22A     -0.424753    23A     -0.382980

  @DF-RHF Final Energy:  -268.93233080669438

   => Energetics <=

    Nuclear Repulsion Energy =            210.1287538980766101
    One-Electron Energy =                -780.2501835154158698
    Two-Electron Energy =                 301.1890988106448503
    Total Energy =                       -268.9323308066943810
  Basis Set: (AUG-CC-PVTZ AUX)
    Blend: AUG-CC-PVTZ-RI
    Molecular point group: c1

    Geometry (in Angstrom), charge = 0, multiplicity = 1:

       Center              X                  Y                   Z               Mass
    ------------   -----------------  -----------------  -----------------  -----------------
         O            2.941246253168    -0.069435112716     0.190726583011    15.994914619570
         C           -1.960876546832     0.341847087284     0.303493683011    12.000000000000
         C           -2.826827746832    -0.764573112716    -0.245208416989    12.000000000000
         C           -0.582544746832     0.340932887284    -0.272166416989    12.000000000000
         C            0.573137253168     0.117198887284     0.375779583011    12.000000000000
         C            1.852003253168     0.128059887284    -0.340413416989    12.000000000000
         H           -1.847445746832     0.196152887284     1.433004583011     1.007825032230
         H           -2.416271746832     1.307612887284     0.189576583011     1.007825032230
         H           -2.936137746832    -0.635712112716    -1.325849416989     1.007825032230
         H           -3.825087746832    -0.741841112716     0.200158583011     1.007825032230
         H           -2.392576746832    -1.750977112716    -0.063844416989     1.007825032230
         H           -0.582469446832     0.529024087284    -1.348877016989     1.007825032230
         H            0.606492253168    -0.076556112716     1.445944583011     1.007825032230
         H            1.780687253168     0.327924887284    -1.431535416989     1.007825032230

  Basis Set: AUG-CC-PVTZ
    Blend: AUG-CC-PVTZ
  Basis Set: (AUG-CC-PVTZ AUX)
    Blend: AUG-CC-PVTZ-JKFIT
	 Reference Energy          =    -268.9323308066943810 [Eh]
	 Singles Energy            =      -0.0000000000000000 [Eh]
	 Same-Spin Energy          =      -0.2695538618205560 [Eh]
	 Opposite-Spin Energy      =      -0.9142860661305674 [Eh]
	 Correlation Energy        =      -1.1838399279511234 [Eh]
	 Total Energy              =    -270.1161707346454932 [Eh]

	 ================> DF-SCS-MP2 Energies <==================
	-----------------------------------------------------------
	 SCS Same-Spin Scale       =       0.3333333333333333 [-]
	 SCS Opposite-Spin Scale   =       1.2000000000000000 [-]
	 SCS Same-Spin Energy      =      -0.0898512872735187 [Eh]
	 SCS Opposite-Spin Energy  =      -1.0971432793566809 [Eh]
	 SCS Correlation Energy    =      -1.1869945666301995 [Eh]
	 SCS Total Energy          =    -270.1193253733245569 [Eh]
	-----------------------------------------------------------

  Dipole Moment: [D]
     X:    -3.9298      Y:     0.4095      Z:    -0.7992     Total:     4.0311

*** Psi4 exiting successfully. Buy a developer a beer!
