                               Psi4 1.3.2 release

  ==> Input File <==

--------------------------------------------------------------------------
#psi4
#
memory 32 gb

molecule  {
0 1
  O        2.9378530    -0.0680150     0.1840270
  C       -1.9436970     0.3335570     0.3437070
  C       -2.8302210    -0.7631530    -0.2519080
  C       -0.5859380     0.3423530    -0.2788660
  C        0.5697440     0.1186190     0.3690800
  C        1.8486100     0.1294800    -0.3471130
  H       -1.8508390     0.1975730     1.4263050
  H       -2.4196650     1.3090330     0.1828770
  H       -2.9395310    -0.6342920    -1.3325490
  H       -3.8284810    -0.7404210     0.1934590
  H       -2.3959700    -1.7495570    -0.0705440
  H       -0.5478170     0.5276110    -1.3553930
  H        0.5969680    -0.0395217     1.2425370
  H        1.7772940     0.3293450    -1.4382350
units angstrom
no_reorient  #important for SAPT in psi4, default
symmetry c1  #important for SAPT in psi4, default
}

set PROPERTIES_ORIGIN ["COM"]
properties('MP2/aug-cc-pvtz', properties = ['dipole'])
--------------------------------------------------------------------------

    Molecular point group: c1
  Charge       = 0
  Multiplicity = 1
  Basis Set: AUG-CC-PVTZ
    Blend: AUG-CC-PVTZ
  Basis Set: (AUG-CC-PVTZ AUX)
    Blend: AUG-CC-PVTZ-JKFIT

    Orbital Energies [Eh]
    ---------------------

    Doubly Occupied:

       1A    -20.548434     2A    -11.330022     3A    -11.274013
       4A    -11.250886     5A    -11.236046     6A    -11.222171
       7A     -1.372797     8A     -1.121755     9A     -1.037989
      10A     -0.907980    11A     -0.817974    12A     -0.813236
      13A     -0.679394    14A     -0.656253    15A     -0.627019
      16A     -0.608416    17A     -0.572387    18A     -0.547403
      19A     -0.526442    20A     -0.517616    21A     -0.507486
      22A     -0.423218    23A     -0.380811

  @DF-RHF Final Energy:  -268.90128580603539

   => Energetics <=

    Nuclear Repulsion Energy =            211.1066925917095318
    One-Electron Energy =                -782.0564593106896609
    Two-Electron Energy =                 302.0484809129446830
    Total Energy =                       -268.9012858060353892
  Basis Set: (AUG-CC-PVTZ AUX)
    Blend: AUG-CC-PVTZ-RI
    Molecular point group: c1

    Geometry (in Angstrom), charge = 0, multiplicity = 1:

       Center              X                  Y                   Z               Mass
    ------------   -----------------  -----------------  -----------------  -----------------
         O            2.937926644755    -0.068441926242     0.186385595881    15.994914619570
         C           -1.943623355245     0.333130073758     0.346065595881    12.000000000000
         C           -2.830147355245    -0.763579926242    -0.249549404119    12.000000000000
         C           -0.585864355245     0.341926073758    -0.276507404119    12.000000000000
         C            0.569817644755     0.118192073758     0.371438595881    12.000000000000
         C            1.848683644755     0.129053073758    -0.344754404119    12.000000000000
         H           -1.850765355245     0.197146073758     1.428663595881     1.007825032230
         H           -2.419591355245     1.308606073758     0.185235595881     1.007825032230
         H           -2.939457355245    -0.634718926242    -1.330190404119     1.007825032230
         H           -3.828407355245    -0.740847926242     0.195817595881     1.007825032230
         H           -2.395896355245    -1.749983926242    -0.068185404119     1.007825032230
         H           -0.547743355245     0.527184073758    -1.353034404119     1.007825032230
         H            0.597041644755    -0.039948626242     1.244895595881     1.007825032230
         H            1.777367644755     0.328918073758    -1.435876404119     1.007825032230

  Basis Set: AUG-CC-PVTZ
    Blend: AUG-CC-PVTZ
  Basis Set: (AUG-CC-PVTZ AUX)
    Blend: AUG-CC-PVTZ-JKFIT
	 Reference Energy          =    -268.9012858060353892 [Eh]
	 Singles Energy            =      -0.0000000000000000 [Eh]
	 Same-Spin Energy          =      -0.2691552292428189 [Eh]
	 Opposite-Spin Energy      =      -0.9134370887143689 [Eh]
	 Correlation Energy        =      -1.1825923179571878 [Eh]
	 Total Energy              =    -270.0838781239925765 [Eh]

	 ================> DF-SCS-MP2 Energies <==================
	-----------------------------------------------------------
	 SCS Same-Spin Scale       =       0.3333333333333333 [-]
	 SCS Opposite-Spin Scale   =       1.2000000000000000 [-]
	 SCS Same-Spin Energy      =      -0.0897184097476063 [Eh]
	 SCS Opposite-Spin Energy  =      -1.0961245064572427 [Eh]
	 SCS Correlation Energy    =      -1.1858429162048489 [Eh]
	 SCS Total Energy          =    -270.0871287222402657 [Eh]
	-----------------------------------------------------------

  Dipole Moment: [D]
     X:    -3.9844      Y:     0.4062      Z:    -0.7554     Total:     4.0756

*** Psi4 exiting successfully. Buy a developer a beer!
