                               Psi4 1.4a3.dev225

  ==> Input File <==

--------------------------------------------------------------------------
#psi4
#
memory 32 gb

molecule  {
0 1
  O        3.0568210     0.0670890     0.3064100
  C       -1.7873110     0.5014740    -0.3308760
  C       -2.7589810    -0.3710180     0.4711220
  C       -0.4385240    -0.1343210    -0.4437030
  C        0.7079740     0.3780980     0.0389610
  C        1.9769390    -0.3447360    -0.1093610
  H       -1.6911510     1.4872370     0.1370160
  H       -2.1942130     0.6629350    -1.3374030
  H       -2.8765390    -1.3546870     0.0071490
  H       -3.7457810     0.0968040     0.5260030
  H       -2.3920550    -0.5186010     1.4901810
  H       -0.4015900    -1.1050250    -0.9450900
  H        0.7410060     1.3377710     0.5508970
  H        1.9038773    -1.3376852    -0.6463815
units angstrom
no_reorient  #important for SAPT in psi4, default
symmetry c1  #important for SAPT in psi4, default
}

set PROPERTIES_ORIGIN ["COM"]
properties('MP2/aug-cc-pvtz', properties = ['dipole'])
--------------------------------------------------------------------------

    Molecular point group: c1
  Charge       = 0
  Multiplicity = 1
  Basis Set: AUG-CC-PVTZ
    Blend: AUG-CC-PVTZ
  Basis Set: (AUG-CC-PVTZ AUX)
    Blend: AUG-CC-PVTZ-JKFIT

    Orbital Energies [Eh]
    ---------------------

    Doubly Occupied:

       1A    -20.549705     2A    -11.334300     3A    -11.274992
       4A    -11.250951     5A    -11.245930     6A    -11.235965
       7A     -1.373224     8A     -1.116079     9A     -1.031523
      10A     -0.905292    11A     -0.816278    12A     -0.779749
      13A     -0.677843    14A     -0.649149    15A     -0.616273
      16A     -0.605831    17A     -0.558490    18A     -0.546823
      19A     -0.526754    20A     -0.516746    21A     -0.507061
      22A     -0.423323    23A     -0.380860

  @DF-RHF Final Energy:  -268.93517526126993

   => Energetics <=

    Nuclear Repulsion Energy =            209.7993673915359523
    One-Electron Energy =                -779.6228022296736526
    Two-Electron Energy =                 300.8882595768677675
    Total Energy =                       -268.9351752612699329
  Basis Set: (AUG-CC-PVTZ AUX)
    Blend: AUG-CC-PVTZ-RI
    Molecular point group: c1

    Geometry (in Angstrom), charge = 0, multiplicity = 1:

       Center              X                  Y                   Z               Mass
    ------------   -----------------  -----------------  -----------------  -----------------
         O            2.931253141057     0.058879459619     0.304085563704    15.994914619570
         C           -1.912878858943     0.493264459619    -0.333200436296    12.000000000000
         C           -2.884548858943    -0.379227540381     0.468797563704    12.000000000000
         C           -0.564091858943    -0.142530540381    -0.446027436296    12.000000000000
         C            0.582406141057     0.369888459619     0.036636563704    12.000000000000
         C            1.851371141057    -0.352945540381    -0.111685436296    12.000000000000
         H           -1.816718858943     1.479027459619     0.134691563704     1.007825032230
         H           -2.319780858943     0.654725459619    -1.339727436296     1.007825032230
         H           -3.002106858943    -1.362896540381     0.004824563704     1.007825032230
         H           -3.871348858943     0.088594459619     0.523678563704     1.007825032230
         H           -2.517622858943    -0.526810540381     1.487856563704     1.007825032230
         H           -0.527157858943    -1.113234540381    -0.947414436296     1.007825032230
         H            0.615438141057     1.329561459619     0.548572563704     1.007825032230
         H            1.778309441057    -1.345894740381    -0.648705936296     1.007825032230

  Basis Set: AUG-CC-PVTZ
    Blend: AUG-CC-PVTZ
  Basis Set: (AUG-CC-PVTZ AUX)
    Blend: AUG-CC-PVTZ-JKFIT
	 Reference Energy          =    -268.9351752612699329 [Eh]
	 Singles Energy            =      -0.0000000000000000 [Eh]
	 Same-Spin Energy          =      -0.2694844872750129 [Eh]
	 Opposite-Spin Energy      =      -0.9141442784563252 [Eh]
	 Correlation Energy        =      -1.1836287657313380 [Eh]
	 Total Energy              =    -270.1188040270012607 [Eh]

	 ================> DF-SCS-MP2 Energies <==================
	-----------------------------------------------------------
	 SCS Same-Spin Scale       =       0.3333333333333333 [-]
	 SCS Opposite-Spin Scale   =       1.2000000000000000 [-]
	 SCS Same-Spin Energy      =      -0.0898281624250043 [Eh]
	 SCS Opposite-Spin Energy  =      -1.0969731341475901 [Eh]
	 SCS Correlation Energy    =      -1.1868012965725945 [Eh]
	 SCS Total Energy          =    -270.1219765578425154 [Eh]
	-----------------------------------------------------------

  Dipole Moment: [D]
     X:    -3.9161      Y:    -0.4634      Z:    -0.8545     Total:     4.0349

*** Psi4 exiting successfully. Buy a developer a beer!
