                               Psi4 1.4a3.dev225

  ==> Input File <==

--------------------------------------------------------------------------
#psi4
#
memory 32 gb

molecule  {
0 1
  O        3.0568210     0.0670890     0.3064100
  C       -1.7873110     0.5014740    -0.3308760
  C       -2.7589810    -0.3710180     0.4711220
  C       -0.4385240    -0.1343210    -0.4437030
  C        0.7079740     0.3780980     0.0389610
  C        1.9769390    -0.3447360    -0.1093610
  H       -1.6911510     1.4872370     0.1370160
  H       -2.1942130     0.6629350    -1.3374030
  H       -2.8765390    -1.3546870     0.0071490
  H       -3.7457810     0.0968040     0.5260030
  H       -2.3920550    -0.5186010     1.4901810
  H       -0.4015900    -1.1050250    -0.9450900
  H        0.7394882     1.2936758     0.5273745
  H        1.9051690    -1.3201300    -0.6368870
units angstrom
no_reorient  #important for SAPT in psi4, default
symmetry c1  #important for SAPT in psi4, default
}

set PROPERTIES_ORIGIN ["COM"]
properties('MP2/aug-cc-pvtz', properties = ['dipole'])
--------------------------------------------------------------------------

    Molecular point group: c1
  Charge       = 0
  Multiplicity = 1
  Basis Set: AUG-CC-PVTZ
    Blend: AUG-CC-PVTZ
  Basis Set: (AUG-CC-PVTZ AUX)
    Blend: AUG-CC-PVTZ-JKFIT

    Orbital Energies [Eh]
    ---------------------

    Doubly Occupied:

       1A    -20.549022     2A    -11.331494     3A    -11.274615
       4A    -11.250942     5A    -11.239950     6A    -11.235967
       7A     -1.372802     8A     -1.116829     9A     -1.032612
      10A     -0.905933    11A     -0.817294    12A     -0.788397
      13A     -0.679028    14A     -0.650169    15A     -0.618700
      16A     -0.607207    17A     -0.563046    18A     -0.546788
      19A     -0.526369    20A     -0.516984    21A     -0.507153
      22A     -0.423821    23A     -0.380530

  @DF-RHF Final Energy:  -268.93507065099510

   => Energetics <=

    Nuclear Repulsion Energy =            210.1162673994301144
    One-Electron Energy =                -780.2313782883012436
    Two-Electron Energy =                 301.1800402378760850
    Total Energy =                       -268.9350706509951010
  Basis Set: (AUG-CC-PVTZ AUX)
    Blend: AUG-CC-PVTZ-RI
    Molecular point group: c1

    Geometry (in Angstrom), charge = 0, multiplicity = 1:

       Center              X                  Y                   Z               Mass
    ------------   -----------------  -----------------  -----------------  -----------------
         O            2.931255851930     0.059197666461     0.304253755323    15.994914619570
         C           -1.912876148070     0.493582666461    -0.333032244677    12.000000000000
         C           -2.884546148070    -0.378909333539     0.468965755323    12.000000000000
         C           -0.564089148070    -0.142212333539    -0.445859244677    12.000000000000
         C            0.582408851930     0.370206666461     0.036804755323    12.000000000000
         C            1.851373851930    -0.352627333539    -0.111517244677    12.000000000000
         H           -1.816716148070     1.479345666461     0.134859755323     1.007825032230
         H           -2.319778148070     0.655043666461    -1.339559244677     1.007825032230
         H           -3.002104148070    -1.362578333539     0.004992755323     1.007825032230
         H           -3.871346148070     0.088912666461     0.523846755323     1.007825032230
         H           -2.517620148070    -0.526492333539     1.488024755323     1.007825032230
         H           -0.527155148070    -1.112916333539    -0.947246244677     1.007825032230
         H            0.613923051930     1.285784466461     0.525218255323     1.007825032230
         H            1.779603851930    -1.328021333539    -0.639043244677     1.007825032230

  Basis Set: AUG-CC-PVTZ
    Blend: AUG-CC-PVTZ
  Basis Set: (AUG-CC-PVTZ AUX)
    Blend: AUG-CC-PVTZ-JKFIT
	 Reference Energy          =    -268.9350706509951010 [Eh]
	 Singles Energy            =      -0.0000000000000000 [Eh]
	 Same-Spin Energy          =      -0.2692869295468724 [Eh]
	 Opposite-Spin Energy      =      -0.9136906600970424 [Eh]
	 Correlation Energy        =      -1.1829775896439148 [Eh]
	 Total Energy              =    -270.1180482406390411 [Eh]

	 ================> DF-SCS-MP2 Energies <==================
	-----------------------------------------------------------
	 SCS Same-Spin Scale       =       0.3333333333333333 [-]
	 SCS Opposite-Spin Scale   =       1.2000000000000000 [-]
	 SCS Same-Spin Energy      =      -0.0897623098489575 [Eh]
	 SCS Opposite-Spin Energy  =      -1.0964287921164508 [Eh]
	 SCS Correlation Energy    =      -1.1861911019654083 [Eh]
	 SCS Total Energy          =    -270.1212617529604927 [Eh]
	-----------------------------------------------------------

  Dipole Moment: [D]
     X:    -3.9249      Y:    -0.4767      Z:    -0.8634     Total:     4.0469

*** Psi4 exiting successfully. Buy a developer a beer!
