                               Psi4 1.3.2 release

  ==> Input File <==

--------------------------------------------------------------------------
#psi4
#
memory 32 gb

molecule  {
0 1
  O        2.9378530    -0.0680150     0.1840270
  C       -1.9436970     0.3335570     0.3437070
  C       -2.8500767    -0.7555692    -0.2357193
  C       -0.5792972     0.3623803    -0.2635544
  C        0.5697440     0.1186190     0.3690800
  C        1.8486100     0.1294800    -0.3471130
  H       -1.8508390     0.1975730     1.4263050
  H       -2.4196650     1.3090330     0.1828770
  H       -2.9395310    -0.6342920    -1.3325490
  H       -3.8284810    -0.7404210     0.1934590
  H       -2.3959700    -1.7495570    -0.0705440
  H       -0.5478170     0.5276110    -1.3553930
  H        0.6030990    -0.0751360     1.4392450
  H        1.7772940     0.3293450    -1.4382350
units angstrom
no_reorient  #important for SAPT in psi4, default
symmetry c1  #important for SAPT in psi4, default
}

set PROPERTIES_ORIGIN ["COM"]
properties('MP2/aug-cc-pvtz', properties = ['dipole'])
--------------------------------------------------------------------------

    Molecular point group: c1
  Charge       = 0
  Multiplicity = 1
  Basis Set: AUG-CC-PVTZ
    Blend: AUG-CC-PVTZ
  Basis Set: (AUG-CC-PVTZ AUX)
    Blend: AUG-CC-PVTZ-JKFIT

    Orbital Energies [Eh]
    ---------------------

    Doubly Occupied:

       1A    -20.549898     2A    -11.332299     3A    -11.274061
       4A    -11.250243     5A    -11.244371     6A    -11.236131
       7A     -1.373839     8A     -1.117568     9A     -1.033178
      10A     -0.906822    11A     -0.817938    12A     -0.780275
      13A     -0.679509    14A     -0.649753    15A     -0.615142
      16A     -0.608508    17A     -0.558670    18A     -0.547485
      19A     -0.528644    20A     -0.516392    21A     -0.502015
      22A     -0.424872    23A     -0.383414

  @DF-RHF Final Energy:  -268.93507122059845

   => Energetics <=

    Nuclear Repulsion Energy =            210.0324249901177325
    One-Electron Energy =                -780.0729400350387550
    Two-Electron Energy =                 301.1054438243225491
    Total Energy =                       -268.9350712205984451
  Basis Set: (AUG-CC-PVTZ AUX)
    Blend: AUG-CC-PVTZ-RI
    Molecular point group: c1

    Geometry (in Angstrom), charge = 0, multiplicity = 1:

       Center              X                  Y                   Z               Mass
    ------------   -----------------  -----------------  -----------------  -----------------
         O            2.939739686991    -0.071956665137     0.179530160680    15.994914619570
         C           -1.941810313009     0.329615334863     0.339210160680    12.000000000000
         C           -2.848190013009    -0.759510865137    -0.240216139320    12.000000000000
         C           -0.577410513009     0.358438634863    -0.268051239320    12.000000000000
         C            0.571630686991     0.114677334863     0.364583160680    12.000000000000
         C            1.850496686991     0.125538334863    -0.351609839320    12.000000000000
         H           -1.848952313009     0.193631334863     1.421808160680     1.007825032230
         H           -2.417778313009     1.305091334863     0.178380160680     1.007825032230
         H           -2.937644313009    -0.638233665137    -1.337045839320     1.007825032230
         H           -3.826594313009    -0.744362665137     0.188962160680     1.007825032230
         H           -2.394083313009    -1.753498665137    -0.075040839320     1.007825032230
         H           -0.545930313009     0.523669334863    -1.359889839320     1.007825032230
         H            0.604985686991    -0.079077665137     1.434748160680     1.007825032230
         H            1.779180686991     0.325403334863    -1.442731839320     1.007825032230

  Basis Set: AUG-CC-PVTZ
    Blend: AUG-CC-PVTZ
  Basis Set: (AUG-CC-PVTZ AUX)
    Blend: AUG-CC-PVTZ-JKFIT
	 Reference Energy          =    -268.9350712205984451 [Eh]
	 Singles Energy            =      -0.0000000000000000 [Eh]
	 Same-Spin Energy          =      -0.2693461990697406 [Eh]
	 Opposite-Spin Energy      =      -0.9137800756711713 [Eh]
	 Correlation Energy        =      -1.1831262747409119 [Eh]
	 Total Energy              =    -270.1181974953393592 [Eh]

	 ================> DF-SCS-MP2 Energies <==================
	-----------------------------------------------------------
	 SCS Same-Spin Scale       =       0.3333333333333333 [-]
	 SCS Opposite-Spin Scale   =       1.2000000000000000 [-]
	 SCS Same-Spin Energy      =      -0.0897820663565802 [Eh]
	 SCS Opposite-Spin Energy  =      -1.0965360908054054 [Eh]
	 SCS Correlation Energy    =      -1.1863181571619856 [Eh]
	 SCS Total Energy          =    -270.1213893777604085 [Eh]
	-----------------------------------------------------------

  Dipole Moment: [D]
     X:    -3.9282      Y:     0.3870      Z:    -0.7616     Total:     4.0200

*** Psi4 exiting successfully. Buy a developer a beer!
