                               Psi4 1.3.2 release

  ==> Input File <==

--------------------------------------------------------------------------
#psi4
#
memory 32 gb

molecule  {
0 1
  O        2.9378530    -0.0680150     0.1840270
  C       -1.9436970     0.3335570     0.3437070
  C       -2.8302210    -0.7631530    -0.2519080
  C       -0.5859380     0.3423530    -0.2788660
  C        0.5697440     0.1186190     0.3690800
  C        1.8486100     0.1294800    -0.3471130
  H       -1.8508390     0.1975730     1.4263050
  H       -2.4196650     1.3090330     0.1828770
  H       -2.9395310    -0.6342920    -1.3325490
  H       -3.8284810    -0.7404210     0.1934590
  H       -2.3959700    -1.7495570    -0.0705440
  H       -0.5478170     0.5276110    -1.3553930
  H        0.6030990    -0.0751360     1.4392450
  H        1.7901256     0.2933840    -1.2419134
units angstrom
no_reorient  #important for SAPT in psi4, default
symmetry c1  #important for SAPT in psi4, default
}

set PROPERTIES_ORIGIN ["COM"]
properties('MP2/aug-cc-pvtz', properties = ['dipole'])
--------------------------------------------------------------------------

    Molecular point group: c1
  Charge       = 0
  Multiplicity = 1
  Basis Set: AUG-CC-PVTZ
    Blend: AUG-CC-PVTZ
  Basis Set: (AUG-CC-PVTZ AUX)
    Blend: AUG-CC-PVTZ-JKFIT

    Orbital Energies [Eh]
    ---------------------

    Doubly Occupied:

       1A    -20.545588     2A    -11.307561     3A    -11.273341
       4A    -11.249861     5A    -11.242466     6A    -11.235240
       7A     -1.371630     8A     -1.116912     9A     -1.034311
      10A     -0.915738    11A     -0.844636    12A     -0.794459
      13A     -0.691015    14A     -0.647835    15A     -0.617963
      16A     -0.609857    17A     -0.558354    18A     -0.546528
      19A     -0.524580    20A     -0.516690    21A     -0.506379
      22A     -0.429650    23A     -0.379496

  @DF-RHF Final Energy:  -268.90743959292132

   => Energetics <=

    Nuclear Repulsion Energy =            211.0673923364472557
    One-Electron Energy =                -782.0294828514631718
    Two-Electron Energy =                 302.0546509220945950
    Total Energy =                       -268.9074395929213210
  Basis Set: (AUG-CC-PVTZ AUX)
    Blend: AUG-CC-PVTZ-RI
    Molecular point group: c1

    Geometry (in Angstrom), charge = 0, multiplicity = 1:

       Center              X                  Y                   Z               Mass
    ------------   -----------------  -----------------  -----------------  -----------------
         O            2.937699288724    -0.067583759318     0.181673285865    15.994914619570
         C           -1.943850711276     0.333988240682     0.341353285865    12.000000000000
         C           -2.830374711276    -0.762721759318    -0.254261714135    12.000000000000
         C           -0.586091711276     0.342784240682    -0.281219714135    12.000000000000
         C            0.569590288724     0.119050240682     0.366726285865    12.000000000000
         C            1.848456288724     0.129911240682    -0.349466714135    12.000000000000
         H           -1.850992711276     0.198004240682     1.423951285865     1.007825032230
         H           -2.419818711276     1.309464240682     0.180523285865     1.007825032230
         H           -2.939684711276    -0.633860759318    -1.334902714135     1.007825032230
         H           -3.828634711276    -0.739989759318     0.191105285865     1.007825032230
         H           -2.396123711276    -1.749125759318    -0.072897714135     1.007825032230
         H           -0.547970711276     0.528042240682    -1.357746714135     1.007825032230
         H            0.602945288724    -0.074704759318     1.436891285865     1.007825032230
         H            1.789971888724     0.293815240682    -1.244267114135     1.007825032230

  Basis Set: AUG-CC-PVTZ
    Blend: AUG-CC-PVTZ
  Basis Set: (AUG-CC-PVTZ AUX)
    Blend: AUG-CC-PVTZ-JKFIT
	 Reference Energy          =    -268.9074395929213210 [Eh]
	 Singles Energy            =      -0.0000000000000000 [Eh]
	 Same-Spin Energy          =      -0.2688188674409727 [Eh]
	 Opposite-Spin Energy      =      -0.9131291481372283 [Eh]
	 Correlation Energy        =      -1.1819480155782010 [Eh]
	 Total Energy              =    -270.0893876084995213 [Eh]

	 ================> DF-SCS-MP2 Energies <==================
	-----------------------------------------------------------
	 SCS Same-Spin Scale       =       0.3333333333333333 [-]
	 SCS Opposite-Spin Scale   =       1.2000000000000000 [-]
	 SCS Same-Spin Energy      =      -0.0896062891469909 [Eh]
	 SCS Opposite-Spin Energy  =      -1.0957549777646740 [Eh]
	 SCS Correlation Energy    =      -1.1853612669116649 [Eh]
	 SCS Total Energy          =    -270.0928008598330052 [Eh]
	-----------------------------------------------------------

  Dipole Moment: [D]
     X:    -3.9506      Y:     0.4390      Z:    -0.9305     Total:     4.0824

*** Psi4 exiting successfully. Buy a developer a beer!
