                               Psi4 1.3.2 release

  ==> Input File <==

--------------------------------------------------------------------------
#psi4
#
memory 32 gb

molecule  {
0 1
  O        2.9378530    -0.0680150     0.1840270
  C       -1.9436970     0.3335570     0.3437070
  C       -2.8302210    -0.7631530    -0.2519080
  C       -0.5800099     0.3435861    -0.2889075
  C        0.5697440     0.1186190     0.3690800
  C        1.8486100     0.1294800    -0.3471130
  H       -1.8508390     0.1975730     1.4263050
  H       -2.4196650     1.3090330     0.1828770
  H       -2.9395310    -0.6342920    -1.3325490
  H       -3.8284810    -0.7404210     0.1934590
  H       -2.3959700    -1.7495570    -0.0705440
  H       -0.5478170     0.5276110    -1.3553930
  H        0.6125482    -0.0759359     1.4387635
  H        1.7772940     0.3293450    -1.4382350
units angstrom
no_reorient  #important for SAPT in psi4, default
symmetry c1  #important for SAPT in psi4, default
}

set PROPERTIES_ORIGIN ["COM"]
properties('MP2/aug-cc-pvtz', properties = ['dipole'])
--------------------------------------------------------------------------

    Molecular point group: c1
  Charge       = 0
  Multiplicity = 1
  Basis Set: AUG-CC-PVTZ
    Blend: AUG-CC-PVTZ
  Basis Set: (AUG-CC-PVTZ AUX)
    Blend: AUG-CC-PVTZ-JKFIT

    Orbital Energies [Eh]
    ---------------------

    Doubly Occupied:

       1A    -20.548769     2A    -11.331139     3A    -11.274126
       4A    -11.250791     5A    -11.245316     6A    -11.235392
       7A     -1.372922     8A     -1.115876     9A     -1.031971
      10A     -0.904933    11A     -0.817366    12A     -0.783102
      13A     -0.679883    14A     -0.648500    15A     -0.616089
      16A     -0.606052    17A     -0.560865    18A     -0.546138
      19A     -0.526354    20A     -0.515305    21A     -0.507698
      22A     -0.423456    23A     -0.381286

  @DF-RHF Final Energy:  -268.93607233756006

   => Energetics <=

    Nuclear Repulsion Energy =            210.0150142073762822
    One-Electron Energy =                -780.0555141958351442
    Two-Electron Energy =                 301.1044276508987423
    Total Energy =                       -268.9360723375600628
  Basis Set: (AUG-CC-PVTZ AUX)
    Blend: AUG-CC-PVTZ-RI
    Molecular point group: c1

    Geometry (in Angstrom), charge = 0, multiplicity = 1:

       Center              X                  Y                   Z               Mass
    ------------   -----------------  -----------------  -----------------  -----------------
         O            2.936893550740    -0.068181367239     0.185466415975    15.994914619570
         C           -1.944656449260     0.333390632761     0.345146415975    12.000000000000
         C           -2.831180449260    -0.763319367239    -0.250468584025    12.000000000000
         C           -0.580969349260     0.343419732761    -0.287468084025    12.000000000000
         C            0.568784550740     0.118452632761     0.370519415975    12.000000000000
         C            1.847650550740     0.129313632761    -0.345673584025    12.000000000000
         H           -1.851798449260     0.197406632761     1.427744415975     1.007825032230
         H           -2.420624449260     1.308866632761     0.184316415975     1.007825032230
         H           -2.940490449260    -0.634458367239    -1.331109584025     1.007825032230
         H           -3.829440449260    -0.740587367239     0.194898415975     1.007825032230
         H           -2.396929449260    -1.749723367239    -0.069104584025     1.007825032230
         H           -0.548776449260     0.527444632761    -1.353953584025     1.007825032230
         H            0.611588750740    -0.076102267239     1.440202915975     1.007825032230
         H            1.776334550740     0.329178632761    -1.436795584025     1.007825032230

  Basis Set: AUG-CC-PVTZ
    Blend: AUG-CC-PVTZ
  Basis Set: (AUG-CC-PVTZ AUX)
    Blend: AUG-CC-PVTZ-JKFIT
	 Reference Energy          =    -268.9360723375600628 [Eh]
	 Singles Energy            =      -0.0000000000000000 [Eh]
	 Same-Spin Energy          =      -0.2693055774977476 [Eh]
	 Opposite-Spin Energy      =      -0.9137853755738277 [Eh]
	 Correlation Energy        =      -1.1830909530715754 [Eh]
	 Total Energy              =    -270.1191632906316613 [Eh]

	 ================> DF-SCS-MP2 Energies <==================
	-----------------------------------------------------------
	 SCS Same-Spin Scale       =       0.3333333333333333 [-]
	 SCS Opposite-Spin Scale   =       1.2000000000000000 [-]
	 SCS Same-Spin Energy      =      -0.0897685258325825 [Eh]
	 SCS Opposite-Spin Energy  =      -1.0965424506885932 [Eh]
	 SCS Correlation Energy    =      -1.1863109765211757 [Eh]
	 SCS Total Energy          =    -270.1223833140812189 [Eh]
	-----------------------------------------------------------

  Dipole Moment: [D]
     X:    -3.9348      Y:     0.4079      Z:    -0.7737     Total:     4.0308

*** Psi4 exiting successfully. Buy a developer a beer!
