                               Psi4 1.3.2 release

  ==> Input File <==

--------------------------------------------------------------------------
#psi4
#
memory 32 gb

molecule  {
0 1
  O        2.9378530    -0.0680150     0.1840270
  C       -1.9436970     0.3335570     0.3437070
  C       -2.8302210    -0.7631530    -0.2519080
  C       -0.5859380     0.3423530    -0.2788660
  C        0.5697440     0.1186190     0.3690800
  C        1.8486100     0.1294800    -0.3471130
  H       -1.8508390     0.1975730     1.4263050
  H       -2.4196650     1.3090330     0.1828770
  H       -2.9395310    -0.6342920    -1.3325490
  H       -3.8284810    -0.7404210     0.1934590
  H       -2.3959700    -1.7495570    -0.0705440
  H       -0.5478170     0.5276110    -1.3553930
  H        0.6061645    -0.0929431     1.5375990
  H        1.7772940     0.3293450    -1.4382350
units angstrom
no_reorient  #important for SAPT in psi4, default
symmetry c1  #important for SAPT in psi4, default
}

set PROPERTIES_ORIGIN ["COM"]
properties('MP2/aug-cc-pvtz', properties = ['dipole'])
--------------------------------------------------------------------------

    Molecular point group: c1
  Charge       = 0
  Multiplicity = 1
  Basis Set: AUG-CC-PVTZ
    Blend: AUG-CC-PVTZ
  Basis Set: (AUG-CC-PVTZ AUX)
    Blend: AUG-CC-PVTZ-JKFIT

    Orbital Energies [Eh]
    ---------------------

    Doubly Occupied:

       1A    -20.549422     2A    -11.332727     3A    -11.275111
       4A    -11.255712     5A    -11.250389     6A    -11.235620
       7A     -1.373377     8A     -1.115826     9A     -1.030781
      10A     -0.905685    11A     -0.818092    12A     -0.770998
      13A     -0.679966    14A     -0.647609    15A     -0.613738
      16A     -0.604010    17A     -0.549143    18A     -0.545145
      19A     -0.526849    20A     -0.515939    21A     -0.506405
      22A     -0.424409    23A     -0.381420

  @DF-RHF Final Energy:  -268.92875566397402

   => Energetics <=

    Nuclear Repulsion Energy =            209.6526643149437632
    One-Electron Energy =                -779.3460944981983403
    Two-Electron Energy =                 300.7646745192805611
    Total Energy =                       -268.9287556639740160
  Basis Set: (AUG-CC-PVTZ AUX)
    Blend: AUG-CC-PVTZ-RI
    Molecular point group: c1

    Geometry (in Angstrom), charge = 0, multiplicity = 1:

       Center              X                  Y                   Z               Mass
    ------------   -----------------  -----------------  -----------------  -----------------
         O            2.937816381408    -0.067801419272     0.182847888752    15.994914619570
         C           -1.943733618592     0.333770580728     0.342527888752    12.000000000000
         C           -2.830257618592    -0.762939419272    -0.253087111248    12.000000000000
         C           -0.585974618592     0.342566580728    -0.280045111248    12.000000000000
         C            0.569707381408     0.118832580728     0.367900888752    12.000000000000
         C            1.848573381408     0.129693580728    -0.348292111248    12.000000000000
         H           -1.850875618592     0.197786580728     1.425125888752     1.007825032230
         H           -2.419701618592     1.309246580728     0.181697888752     1.007825032230
         H           -2.939567618592    -0.634078419272    -1.333728111248     1.007825032230
         H           -3.828517618592    -0.740207419272     0.192279888752     1.007825032230
         H           -2.396006618592    -1.749343419272    -0.071723111248     1.007825032230
         H           -0.547853618592     0.527824580728    -1.356572111248     1.007825032230
         H            0.606127881408    -0.092729519272     1.536419888752     1.007825032230
         H            1.777257381408     0.329558580728    -1.439414111248     1.007825032230

  Basis Set: AUG-CC-PVTZ
    Blend: AUG-CC-PVTZ
  Basis Set: (AUG-CC-PVTZ AUX)
    Blend: AUG-CC-PVTZ-JKFIT
	 Reference Energy          =    -268.9287556639740160 [Eh]
	 Singles Energy            =      -0.0000000000000000 [Eh]
	 Same-Spin Energy          =      -0.2696783580826495 [Eh]
	 Opposite-Spin Energy      =      -0.9147309751488573 [Eh]
	 Correlation Energy        =      -1.1844093332315069 [Eh]
	 Total Energy              =    -270.1131649972055015 [Eh]

	 ================> DF-SCS-MP2 Energies <==================
	-----------------------------------------------------------
	 SCS Same-Spin Scale       =       0.3333333333333333 [-]
	 SCS Opposite-Spin Scale   =       1.2000000000000000 [-]
	 SCS Same-Spin Energy      =      -0.0898927860275498 [Eh]
	 SCS Opposite-Spin Energy  =      -1.0976771701786288 [Eh]
	 SCS Correlation Energy    =      -1.1875699562061786 [Eh]
	 SCS Total Energy          =    -270.1163256201801914 [Eh]
	-----------------------------------------------------------

  Dipole Moment: [D]
     X:    -3.9303      Y:     0.4094      Z:    -0.7933     Total:     4.0304

*** Psi4 exiting successfully. Buy a developer a beer!
