                               Psi4 1.3.2 release

  ==> Input File <==

--------------------------------------------------------------------------
#psi4
#
memory 32 gb

molecule  {
0 1
  O        2.9378530    -0.0680150     0.1840270
  C       -1.9436970     0.3335570     0.3437070
  C       -2.8302210    -0.7631530    -0.2519080
  C       -0.5739890     0.3448584    -0.2988888
  C        0.5697440     0.1186190     0.3690800
  C        1.8361315     0.1345560    -0.3688613
  H       -1.8508390     0.1975730     1.4263050
  H       -2.4196650     1.3090330     0.1828770
  H       -2.9395310    -0.6342920    -1.3325490
  H       -3.8284810    -0.7404210     0.1934590
  H       -2.3959700    -1.7495570    -0.0705440
  H       -0.5478170     0.5276110    -1.3553930
  H        0.6030990    -0.0751360     1.4392450
  H        1.7772940     0.3293450    -1.4382350
units angstrom
no_reorient  #important for SAPT in psi4, default
symmetry c1  #important for SAPT in psi4, default
}

set PROPERTIES_ORIGIN ["COM"]
properties('MP2/aug-cc-pvtz', properties = ['dipole'])
--------------------------------------------------------------------------

    Molecular point group: c1
  Charge       = 0
  Multiplicity = 1
  Basis Set: AUG-CC-PVTZ
    Blend: AUG-CC-PVTZ
  Basis Set: (AUG-CC-PVTZ AUX)
    Blend: AUG-CC-PVTZ-JKFIT

    Orbital Energies [Eh]
    ---------------------

    Doubly Occupied:

       1A    -20.547297     2A    -11.331915     3A    -11.273869
       4A    -11.251332     5A    -11.246573     6A    -11.235388
       7A     -1.358490     8A     -1.115801     9A     -1.032489
      10A     -0.904650    11A     -0.819395    12A     -0.787963
      13A     -0.680517    14A     -0.645096    15A     -0.616456
      16A     -0.601778    17A     -0.564069    18A     -0.544233
      19A     -0.519242    20A     -0.513353    21A     -0.508590
      22A     -0.425601    23A     -0.380592

  @DF-RHF Final Energy:  -268.93260442824408

   => Energetics <=

    Nuclear Repulsion Energy =            209.7308741406495756
    One-Electron Energy =                -779.5175767758007623
    Two-Electron Energy =                 300.8540982069071106
    Total Energy =                       -268.9326044282440762
  Basis Set: (AUG-CC-PVTZ AUX)
    Blend: AUG-CC-PVTZ-RI
    Molecular point group: c1

    Geometry (in Angstrom), charge = 0, multiplicity = 1:

       Center              X                  Y                   Z               Mass
    ------------   -----------------  -----------------  -----------------  -----------------
         O            2.937928726957    -0.069097237276     0.189990341442    15.994914619570
         C           -1.943621273043     0.332474762724     0.349670341442    12.000000000000
         C           -2.830145273043    -0.764235237276    -0.245944658558    12.000000000000
         C           -0.573913273043     0.343776162724    -0.292925458558    12.000000000000
         C            0.569819726957     0.117536762724     0.375043341442    12.000000000000
         C            1.836207226957     0.133473762724    -0.362897958558    12.000000000000
         H           -1.850763273043     0.196490762724     1.432268341442     1.007825032230
         H           -2.419589273043     1.307950762724     0.188840341442     1.007825032230
         H           -2.939455273043    -0.635374237276    -1.326585658558     1.007825032230
         H           -3.828405273043    -0.741503237276     0.199422341442     1.007825032230
         H           -2.395894273043    -1.750639237276    -0.064580658558     1.007825032230
         H           -0.547741273043     0.526528762724    -1.349429658558     1.007825032230
         H            0.603174726957    -0.076218237276     1.445208341442     1.007825032230
         H            1.777369726957     0.328262762724    -1.432271658558     1.007825032230

  Basis Set: AUG-CC-PVTZ
    Blend: AUG-CC-PVTZ
  Basis Set: (AUG-CC-PVTZ AUX)
    Blend: AUG-CC-PVTZ-JKFIT
	 Reference Energy          =    -268.9326044282440762 [Eh]
	 Singles Energy            =      -0.0000000000000000 [Eh]
	 Same-Spin Energy          =      -0.2697210835241888 [Eh]
	 Opposite-Spin Energy      =      -0.9149785992532299 [Eh]
	 Correlation Energy        =      -1.1846996827774188 [Eh]
	 Total Energy              =    -270.1173041110214967 [Eh]

	 ================> DF-SCS-MP2 Energies <==================
	-----------------------------------------------------------
	 SCS Same-Spin Scale       =       0.3333333333333333 [-]
	 SCS Opposite-Spin Scale   =       1.2000000000000000 [-]
	 SCS Same-Spin Energy      =      -0.0899070278413963 [Eh]
	 SCS Opposite-Spin Energy  =      -1.0979743191038758 [Eh]
	 SCS Correlation Energy    =      -1.1878813469452720 [Eh]
	 SCS Total Energy          =    -270.1204857751893655 [Eh]
	-----------------------------------------------------------

  Dipole Moment: [D]
     X:    -3.9841      Y:     0.4278      Z:    -0.8484     Total:     4.0959

*** Psi4 exiting successfully. Buy a developer a beer!
