                               Psi4 1.3.2 release

  ==> Input File <==

--------------------------------------------------------------------------
#psi4
#
memory 32 gb

molecule  {
0 1
  O        2.9378530    -0.0680150     0.1840270
  C       -1.9436970     0.3335570     0.3437070
  C       -2.8302210    -0.7631530    -0.2519080
  C       -0.5859380     0.3423530    -0.2788660
  C        0.7417607     0.0853175     0.4655231
  C        1.8486100     0.1294800    -0.3471130
  H       -1.8508390     0.1975730     1.4263050
  H       -2.4196650     1.3090330     0.1828770
  H       -2.9395310    -0.6342920    -1.3325490
  H       -3.8284810    -0.7404210     0.1934590
  H       -2.3959700    -1.7495570    -0.0705440
  H       -0.5478170     0.5276110    -1.3553930
  H        0.6030990    -0.0751360     1.4392450
  H        1.7772940     0.3293450    -1.4382350
units angstrom
no_reorient  #important for SAPT in psi4, default
symmetry c1  #important for SAPT in psi4, default
}

set PROPERTIES_ORIGIN ["COM"]
properties('MP2/aug-cc-pvtz', properties = ['dipole'])
--------------------------------------------------------------------------

    Molecular point group: c1
  Charge       = 0
  Multiplicity = 1
  Basis Set: AUG-CC-PVTZ
    Blend: AUG-CC-PVTZ
  Basis Set: (AUG-CC-PVTZ AUX)
    Blend: AUG-CC-PVTZ-JKFIT

    Orbital Energies [Eh]
    ---------------------

    Doubly Occupied:

       1A    -20.526664     2A    -11.315110     3A    -11.310394
       4A    -11.259072     5A    -11.251813     6A    -11.242392
       7A     -1.363216     8A     -1.104677     9A     -1.030233
      10A     -0.916780    11A     -0.809412    12A     -0.798779
      13A     -0.682031    14A     -0.642331    15A     -0.635866
      16A     -0.597361    17A     -0.567575    18A     -0.541467
      19A     -0.524031    20A     -0.522073    21A     -0.507891
      22A     -0.416603    23A     -0.342908

  @DF-RHF Final Energy:  -268.87935198385509

   => Energetics <=

    Nuclear Repulsion Energy =            209.0998329760558079
    One-Electron Energy =                -778.1410110168637857
    Two-Electron Energy =                 300.1618260569528616
    Total Energy =                       -268.8793519838550878
  Basis Set: (AUG-CC-PVTZ AUX)
    Blend: AUG-CC-PVTZ-RI
    Molecular point group: c1

    Geometry (in Angstrom), charge = 0, multiplicity = 1:

       Center              X                  Y                   Z               Mass
    ------------   -----------------  -----------------  -----------------  -----------------
         O            2.913296135772    -0.063260819191     0.170258965818    15.994914619570
         C           -1.968253864228     0.338311180809     0.329938965818    12.000000000000
         C           -2.854777864228    -0.758398819191    -0.265676034182    12.000000000000
         C           -0.610494864228     0.347107180809    -0.292634034182    12.000000000000
         C            0.717203835772     0.090071680809     0.451755065818    12.000000000000
         C            1.824053135772     0.134234180809    -0.360881034182    12.000000000000
         H           -1.875395864228     0.202327180809     1.412536965818     1.007825032230
         H           -2.444221864228     1.313787180809     0.169108965818     1.007825032230
         H           -2.964087864228    -0.629537819191    -1.346317034182     1.007825032230
         H           -3.853037864228    -0.735666819191     0.179690965818     1.007825032230
         H           -2.420526864228    -1.744802819191    -0.084312034182     1.007825032230
         H           -0.572373864228     0.532365180809    -1.369161034182     1.007825032230
         H            0.578542135772    -0.070381819191     1.425476965818     1.007825032230
         H            1.752737135772     0.334099180809    -1.452003034182     1.007825032230

  Basis Set: AUG-CC-PVTZ
    Blend: AUG-CC-PVTZ
  Basis Set: (AUG-CC-PVTZ AUX)
    Blend: AUG-CC-PVTZ-JKFIT
	 Reference Energy          =    -268.8793519838550878 [Eh]
	 Singles Energy            =      -0.0000000000000000 [Eh]
	 Same-Spin Energy          =      -0.2729448579806754 [Eh]
	 Opposite-Spin Energy      =      -0.9203761851573442 [Eh]
	 Correlation Energy        =      -1.1933210431380195 [Eh]
	 Total Energy              =    -270.0726730269931295 [Eh]

	 ================> DF-SCS-MP2 Energies <==================
	-----------------------------------------------------------
	 SCS Same-Spin Scale       =       0.3333333333333333 [-]
	 SCS Opposite-Spin Scale   =       1.2000000000000000 [-]
	 SCS Same-Spin Energy      =      -0.0909816193268918 [Eh]
	 SCS Opposite-Spin Energy  =      -1.1044514221888131 [Eh]
	 SCS Correlation Energy    =      -1.1954330415157048 [Eh]
	 SCS Total Energy          =    -270.0747850253707725 [Eh]
	-----------------------------------------------------------

  Dipole Moment: [D]
     X:    -4.2488      Y:     0.4020      Z:    -0.6906     Total:     4.3233

*** Psi4 exiting successfully. Buy a developer a beer!
