                               Psi4 1.3.2 release

  ==> Input File <==

--------------------------------------------------------------------------
#psi4
#
memory 32 gb

molecule  {
0 1
  O        2.9378530    -0.0680150     0.1840270
  C       -1.9383172     0.3308387     0.3552648
  C       -2.8302210    -0.7631530    -0.2519080
  C       -0.5859380     0.3423530    -0.2788660
  C        0.5637953     0.1171533     0.3790780
  C        1.8486100     0.1294800    -0.3471130
  H       -1.8508390     0.1975730     1.4263050
  H       -2.4196650     1.3090330     0.1828770
  H       -2.9395310    -0.6342920    -1.3325490
  H       -3.8284810    -0.7404210     0.1934590
  H       -2.3959700    -1.7495570    -0.0705440
  H       -0.5478170     0.5276110    -1.3553930
  H        0.6030990    -0.0751360     1.4392450
  H        1.7772940     0.3293450    -1.4382350
units angstrom
no_reorient  #important for SAPT in psi4, default
symmetry c1  #important for SAPT in psi4, default
}

set PROPERTIES_ORIGIN ["COM"]
properties('MP2/aug-cc-pvtz', properties = ['dipole'])
--------------------------------------------------------------------------

    Molecular point group: c1
  Charge       = 0
  Multiplicity = 1
  Basis Set: AUG-CC-PVTZ
    Blend: AUG-CC-PVTZ
  Basis Set: (AUG-CC-PVTZ AUX)
    Blend: AUG-CC-PVTZ-JKFIT

    Orbital Energies [Eh]
    ---------------------

    Doubly Occupied:

       1A    -20.549141     2A    -11.332208     3A    -11.273773
       4A    -11.249679     5A    -11.244687     6A    -11.235552
       7A     -1.373060     8A     -1.116294     9A     -1.030238
      10A     -0.904433    11A     -0.816639    12A     -0.783529
      13A     -0.679188    14A     -0.648508    15A     -0.616486
      16A     -0.606353    17A     -0.560777    18A     -0.544913
      19A     -0.525722    20A     -0.515928    21A     -0.509979
      22A     -0.423156    23A     -0.380352

  @DF-RHF Final Energy:  -268.93592242688317

   => Energetics <=

    Nuclear Repulsion Energy =            209.9920063410732780
    One-Electron Energy =                -780.0146692892890314
    Two-Electron Energy =                 301.0867405213325583
    Total Energy =                       -268.9359224268831667
  Basis Set: (AUG-CC-PVTZ AUX)
    Blend: AUG-CC-PVTZ-RI
    Molecular point group: c1

    Geometry (in Angstrom), charge = 0, multiplicity = 1:

       Center              X                  Y                   Z               Mass
    ------------   -----------------  -----------------  -----------------  -----------------
         O            2.937934351677    -0.067417615886     0.180949831487    15.994914619570
         C           -1.938235848323     0.331436084114     0.352187631487    12.000000000000
         C           -2.830139648323    -0.762555615886    -0.254985168513    12.000000000000
         C           -0.585856648323     0.342950384114    -0.281943168513    12.000000000000
         C            0.563876651677     0.117750684114     0.376000831487    12.000000000000
         C            1.848691351677     0.130077384114    -0.350190168513    12.000000000000
         H           -1.850757648323     0.198170384114     1.423227831487     1.007825032230
         H           -2.419583648323     1.309630384114     0.179799831487     1.007825032230
         H           -2.939449648323    -0.633694615886    -1.335626168513     1.007825032230
         H           -3.828399648323    -0.739823615886     0.190381831487     1.007825032230
         H           -2.395888648323    -1.748959615886    -0.073621168513     1.007825032230
         H           -0.547735648323     0.528208384114    -1.358470168513     1.007825032230
         H            0.603180351677    -0.074538615886     1.436167831487     1.007825032230
         H            1.777375351677     0.329942384114    -1.441312168513     1.007825032230

  Basis Set: AUG-CC-PVTZ
    Blend: AUG-CC-PVTZ
  Basis Set: (AUG-CC-PVTZ AUX)
    Blend: AUG-CC-PVTZ-JKFIT
	 Reference Energy          =    -268.9359224268831667 [Eh]
	 Singles Energy            =      -0.0000000000000000 [Eh]
	 Same-Spin Energy          =      -0.2693081198115435 [Eh]
	 Opposite-Spin Energy      =      -0.9137745803608720 [Eh]
	 Correlation Energy        =      -1.1830827001724153 [Eh]
	 Total Energy              =    -270.1190051270555728 [Eh]

	 ================> DF-SCS-MP2 Energies <==================
	-----------------------------------------------------------
	 SCS Same-Spin Scale       =       0.3333333333333333 [-]
	 SCS Opposite-Spin Scale   =       1.2000000000000000 [-]
	 SCS Same-Spin Energy      =      -0.0897693732705145 [Eh]
	 SCS Opposite-Spin Energy  =      -1.0965294964330463 [Eh]
	 SCS Correlation Energy    =      -1.1862988697035608 [Eh]
	 SCS Total Energy          =    -270.1222212965867016 [Eh]
	-----------------------------------------------------------

  Dipole Moment: [D]
     X:    -3.9203      Y:     0.4054      Z:    -0.7673     Total:     4.0152

*** Psi4 exiting successfully. Buy a developer a beer!
