                               Psi4 1.3.2 release

  ==> Input File <==

--------------------------------------------------------------------------
#psi4
#
memory 32 gb

molecule  {
0 1
  O        2.9378530    -0.0680150     0.1840270
  C       -1.9436970     0.3335570     0.3437070
  C       -2.8302210    -0.7631530    -0.2519080
  C       -0.5859380     0.3423530    -0.2788660
  C        0.6034296     0.1261662     0.3077853
  C        1.8486100     0.1294800    -0.3471130
  H       -1.8508390     0.1975730     1.4263050
  H       -2.4196650     1.3090330     0.1828770
  H       -2.9395310    -0.6342920    -1.3325490
  H       -3.8284810    -0.7404210     0.1934590
  H       -2.3959700    -1.7495570    -0.0705440
  H       -0.4909501     0.5217528    -1.3528665
  H        0.6030990    -0.0751360     1.4392450
  H        1.7772940     0.3293450    -1.4382350
units angstrom
no_reorient  #important for SAPT in psi4, default
symmetry c1  #important for SAPT in psi4, default
}

set PROPERTIES_ORIGIN ["COM"]
properties('MP2/aug-cc-pvtz', properties = ['dipole'])
--------------------------------------------------------------------------

    Molecular point group: c1
  Charge       = 0
  Multiplicity = 1
  Basis Set: AUG-CC-PVTZ
    Blend: AUG-CC-PVTZ
  Basis Set: (AUG-CC-PVTZ AUX)
    Blend: AUG-CC-PVTZ-JKFIT

    Orbital Energies [Eh]
    ---------------------

    Doubly Occupied:

       1A    -20.547288     2A    -11.326829     3A    -11.278885
       4A    -11.255730     5A    -11.245054     6A    -11.238322
       7A     -1.372438     8A     -1.120649     9A     -1.040241
      10A     -0.914298    11A     -0.826510    12A     -0.772940
      13A     -0.681300    14A     -0.651887    15A     -0.619321
      16A     -0.605993    17A     -0.551836    18A     -0.540952
      19A     -0.530012    20A     -0.520226    21A     -0.506367
      22A     -0.426562    23A     -0.381729

  @DF-RHF Final Energy:  -268.92828140330658

   => Energetics <=

    Nuclear Repulsion Energy =            210.5520928303767221
    One-Electron Energy =                -781.0500102851090105
    Two-Electron Energy =                 301.5696360514256753
    Total Energy =                       -268.9282814033065847
  Basis Set: (AUG-CC-PVTZ AUX)
    Blend: AUG-CC-PVTZ-RI
    Molecular point group: c1

    Geometry (in Angstrom), charge = 0, multiplicity = 1:

       Center              X                  Y                   Z               Mass
    ------------   -----------------  -----------------  -----------------  -----------------
         O            2.932362382461    -0.069022116799     0.192747226777    15.994914619570
         C           -1.949187617539     0.332549883201     0.352427226777    12.000000000000
         C           -2.835711617539    -0.764160116799    -0.243187773223    12.000000000000
         C           -0.591428617539     0.341345883201    -0.270145773223    12.000000000000
         C            0.597938982461     0.125159083201     0.316505526777    12.000000000000
         C            1.843119382461     0.128472883201    -0.338392773223    12.000000000000
         H           -1.856329617539     0.196565883201     1.435025226777     1.007825032230
         H           -2.425155617539     1.308025883201     0.191597226777     1.007825032230
         H           -2.945021617539    -0.635299116799    -1.323828773223     1.007825032230
         H           -3.833971617539    -0.741428116799     0.202179226777     1.007825032230
         H           -2.401460617539    -1.750564116799    -0.061823773223     1.007825032230
         H           -0.496440717539     0.520745683201    -1.344146273223     1.007825032230
         H            0.597608382461    -0.076143116799     1.447965226777     1.007825032230
         H            1.771803382461     0.328337883201    -1.429514773223     1.007825032230

  Basis Set: AUG-CC-PVTZ
    Blend: AUG-CC-PVTZ
  Basis Set: (AUG-CC-PVTZ AUX)
    Blend: AUG-CC-PVTZ-JKFIT
	 Reference Energy          =    -268.9282814033065847 [Eh]
	 Singles Energy            =      -0.0000000000000000 [Eh]
	 Same-Spin Energy          =      -0.2702695075879975 [Eh]
	 Opposite-Spin Energy      =      -0.9149310101838674 [Eh]
	 Correlation Energy        =      -1.1852005177718650 [Eh]
	 Total Energy              =    -270.1134819210784599 [Eh]

	 ================> DF-SCS-MP2 Energies <==================
	-----------------------------------------------------------
	 SCS Same-Spin Scale       =       0.3333333333333333 [-]
	 SCS Opposite-Spin Scale   =       1.2000000000000000 [-]
	 SCS Same-Spin Energy      =      -0.0900898358626658 [Eh]
	 SCS Opposite-Spin Energy  =      -1.0979172122206409 [Eh]
	 SCS Correlation Energy    =      -1.1880070480833067 [Eh]
	 SCS Total Energy          =    -270.1162884513898916 [Eh]
	-----------------------------------------------------------

  Dipole Moment: [D]
     X:    -4.1433      Y:     0.4062      Z:    -0.7580     Total:     4.2316

*** Psi4 exiting successfully. Buy a developer a beer!
