                               Psi4 1.3.2 release

  ==> Input File <==

--------------------------------------------------------------------------
#psi4
#
memory 32 gb

molecule  {
0 1
  O        2.9378530    -0.0680150     0.1840270
  C       -1.9436970     0.3335570     0.3437070
  C       -2.8302210    -0.7631530    -0.2519080
  C       -0.5859380     0.3423530    -0.2788660
  C        0.5697440     0.1186190     0.3690800
  C        2.0260358     0.0973102    -0.2605961
  H       -1.8508390     0.1975730     1.4263050
  H       -2.4196650     1.3090330     0.1828770
  H       -2.9395310    -0.6342920    -1.3325490
  H       -3.8284810    -0.7404210     0.1934590
  H       -2.3959700    -1.7495570    -0.0705440
  H       -0.5478170     0.5276110    -1.3553930
  H        0.6030990    -0.0751360     1.4392450
  H        1.7772940     0.3293450    -1.4382350
units angstrom
no_reorient  #important for SAPT in psi4, default
symmetry c1  #important for SAPT in psi4, default
}

set PROPERTIES_ORIGIN ["COM"]
properties('MP2/aug-cc-pvtz', properties = ['dipole'])
--------------------------------------------------------------------------

    Molecular point group: c1
  Charge       = 0
  Multiplicity = 1
  Basis Set: AUG-CC-PVTZ
    Blend: AUG-CC-PVTZ
  Basis Set: (AUG-CC-PVTZ AUX)
    Blend: AUG-CC-PVTZ-JKFIT

    Orbital Energies [Eh]
    ---------------------

    Doubly Occupied:

       1A    -20.571605     2A    -11.327229     3A    -11.258715
       4A    -11.241816     5A    -11.236364     6A    -11.227847
       7A     -1.541124     8A     -1.099243     9A     -1.009935
      10A     -0.884905    11A     -0.800304    12A     -0.767753
      13A     -0.706339    14A     -0.693028    15A     -0.639146
      16A     -0.616247    17A     -0.615772    18A     -0.550927
      19A     -0.537824    20A     -0.512015    21A     -0.497316
      22A     -0.378890    23A     -0.375254

  @DF-RHF Final Energy:  -268.86479176536039

   => Energetics <=

    Nuclear Repulsion Energy =            211.7631072984517573
    One-Electron Energy =                -783.0766029411541922
    Two-Electron Energy =                 302.4487038773420977
    Total Energy =                       -268.8647917653603940
  Basis Set: (AUG-CC-PVTZ AUX)
    Blend: AUG-CC-PVTZ-RI
    Molecular point group: c1

    Geometry (in Angstrom), charge = 0, multiplicity = 1:

       Center              X                  Y                   Z               Mass
    ------------   -----------------  -----------------  -----------------  -----------------
         O            2.912523935927    -0.063422379999     0.171676024129    15.994914619570
         C           -1.969026064073     0.338149620001     0.331356024129    12.000000000000
         C           -2.855550064073    -0.758560379999    -0.264258975871    12.000000000000
         C           -0.611267064073     0.346945620001    -0.291216975871    12.000000000000
         C            0.544414935927     0.123211620001     0.356729024129    12.000000000000
         C            2.000706735927     0.101902820001    -0.272947075871    12.000000000000
         H           -1.876168064073     0.202165620001     1.413954024129     1.007825032230
         H           -2.444994064073     1.313625620001     0.170526024129     1.007825032230
         H           -2.964860064073    -0.629699379999    -1.344899975871     1.007825032230
         H           -3.853810064073    -0.735828379999     0.181108024129     1.007825032230
         H           -2.421299064073    -1.744964379999    -0.082894975871     1.007825032230
         H           -0.573146064073     0.532203620001    -1.367743975871     1.007825032230
         H            0.577769935927    -0.070543379999     1.426894024129     1.007825032230
         H            1.751964935927     0.333937620001    -1.450585975871     1.007825032230

  Basis Set: AUG-CC-PVTZ
    Blend: AUG-CC-PVTZ
  Basis Set: (AUG-CC-PVTZ AUX)
    Blend: AUG-CC-PVTZ-JKFIT
	 Reference Energy          =    -268.8647917653603940 [Eh]
	 Singles Energy            =      -0.0000000000000000 [Eh]
	 Same-Spin Energy          =      -0.2649570200220646 [Eh]
	 Opposite-Spin Energy      =      -0.9040624418892722 [Eh]
	 Correlation Energy        =      -1.1690194619113368 [Eh]
	 Total Energy              =    -270.0338112272717126 [Eh]

	 ================> DF-SCS-MP2 Energies <==================
	-----------------------------------------------------------
	 SCS Same-Spin Scale       =       0.3333333333333333 [-]
	 SCS Opposite-Spin Scale   =       1.2000000000000000 [-]
	 SCS Same-Spin Energy      =      -0.0883190066740215 [Eh]
	 SCS Opposite-Spin Energy  =      -1.0848749302671266 [Eh]
	 SCS Correlation Energy    =      -1.1731939369411482 [Eh]
	 SCS Total Energy          =    -270.0379857023015688 [Eh]
	-----------------------------------------------------------

  Dipole Moment: [D]
     X:    -2.4566      Y:     0.1878      Z:    -0.1672     Total:     2.4694

*** Psi4 exiting successfully. Buy a developer a beer!
