                               Psi4 1.4a3.dev225

  ==> Input File <==

--------------------------------------------------------------------------
#psi4
#
memory 32 gb

molecule  {
0 1
  O        3.0568210     0.0670890     0.3064100
  C       -1.7873110     0.5014740    -0.3308760
  C       -2.7589810    -0.3710180     0.4711220
  C       -0.4385240    -0.1343210    -0.4437030
  C        0.7079740     0.3780980     0.0389610
  C        2.0208990    -0.3279714    -0.0924357
  H       -1.6911510     1.4872370     0.1370160
  H       -2.1942130     0.6629350    -1.3374030
  H       -2.8765390    -1.3546870     0.0071490
  H       -3.7457810     0.0968040     0.5260030
  H       -2.3920550    -0.5186010     1.4901810
  H       -0.4015900    -1.1050250    -0.9450900
  H        0.7410060     1.3377710     0.5508970
  H        1.9051690    -1.3201300    -0.6368870
units angstrom
no_reorient  #important for SAPT in psi4, default
symmetry c1  #important for SAPT in psi4, default
}

set PROPERTIES_ORIGIN ["COM"]
properties('MP2/aug-cc-pvtz', properties = ['dipole'])
--------------------------------------------------------------------------

    Molecular point group: c1
  Charge       = 0
  Multiplicity = 1
  Basis Set: AUG-CC-PVTZ
    Blend: AUG-CC-PVTZ
  Basis Set: (AUG-CC-PVTZ AUX)
    Blend: AUG-CC-PVTZ-JKFIT

    Orbital Energies [Eh]
    ---------------------

    Doubly Occupied:

       1A    -20.553990     2A    -11.330808     3A    -11.270785
       4A    -11.248699     5A    -11.243820     6A    -11.233923
       7A     -1.410027     8A     -1.111270     9A     -1.025877
      10A     -0.900519    11A     -0.813170    12A     -0.776427
      13A     -0.679305    14A     -0.657274    15A     -0.616330
      16A     -0.612631    17A     -0.556252    18A     -0.553716
      19A     -0.538766    20A     -0.516147    21A     -0.504589
      22A     -0.417065    23A     -0.380628

  @DF-RHF Final Energy:  -268.93703264102311

   => Energetics <=

    Nuclear Repulsion Energy =            210.1690843692681199
    One-Electron Energy =                -780.3081999501721384
    Two-Electron Energy =                 301.2020829398808814
    Total Energy =                       -268.9370326410231087
  Basis Set: (AUG-CC-PVTZ AUX)
    Blend: AUG-CC-PVTZ-RI
    Molecular point group: c1

    Geometry (in Angstrom), charge = 0, multiplicity = 1:

       Center              X                  Y                   Z               Mass
    ------------   -----------------  -----------------  -----------------  -----------------
         O            2.924961950931     0.056275673743     0.301555481830    15.994914619570
         C           -1.919170049069     0.490660673743    -0.335730518170    12.000000000000
         C           -2.890840049069    -0.381831326257     0.466267481830    12.000000000000
         C           -0.570383049069    -0.145134326257    -0.448557518170    12.000000000000
         C            0.576114950931     0.367284673743     0.034106481830    12.000000000000
         C            1.889039950931    -0.338784726257    -0.097290218170    12.000000000000
         H           -1.823010049069     1.476423673743     0.132161481830     1.007825032230
         H           -2.326072049069     0.652121673743    -1.342257518170     1.007825032230
         H           -3.008398049069    -1.365500326257     0.002294481830     1.007825032230
         H           -3.877640049069     0.085990673743     0.521148481830     1.007825032230
         H           -2.523914049069    -0.529414326257     1.485326481830     1.007825032230
         H           -0.533449049069    -1.115838326257    -0.949944518170     1.007825032230
         H            0.609146950931     1.326957673743     0.546042481830     1.007825032230
         H            1.773309950931    -1.330943326257    -0.641741518170     1.007825032230

  Basis Set: AUG-CC-PVTZ
    Blend: AUG-CC-PVTZ
  Basis Set: (AUG-CC-PVTZ AUX)
    Blend: AUG-CC-PVTZ-JKFIT
	 Reference Energy          =    -268.9370326410231087 [Eh]
	 Singles Energy            =      -0.0000000000000000 [Eh]
	 Same-Spin Energy          =      -0.2680233197161737 [Eh]
	 Opposite-Spin Energy      =      -0.9110367997119750 [Eh]
	 Correlation Energy        =      -1.1790601194281487 [Eh]
	 Total Energy              =    -270.1160927604512381 [Eh]

	 ================> DF-SCS-MP2 Energies <==================
	-----------------------------------------------------------
	 SCS Same-Spin Scale       =       0.3333333333333333 [-]
	 SCS Opposite-Spin Scale   =       1.2000000000000000 [-]
	 SCS Same-Spin Energy      =      -0.0893411065720579 [Eh]
	 SCS Opposite-Spin Energy  =      -1.0932441596543701 [Eh]
	 SCS Correlation Energy    =      -1.1825852662264280 [Eh]
	 SCS Total Energy          =    -270.1196179072495624 [Eh]
	-----------------------------------------------------------

  Dipole Moment: [D]
     X:    -3.6039      Y:    -0.4094      Z:    -0.7759     Total:     3.7091

*** Psi4 exiting successfully. Buy a developer a beer!
