                               Psi4 1.4a3.dev225

  ==> Input File <==

--------------------------------------------------------------------------
#psi4
#
memory 32 gb

molecule  {
0 1
  O        3.0568210     0.0670890     0.3064100
  C       -1.7873110     0.5014740    -0.3308760
  C       -2.7589810    -0.3710180     0.4711220
  C       -0.4385240    -0.1343210    -0.4437030
  C        0.7079740     0.3780980     0.0389610
  C        1.9593550    -0.3514419    -0.1161311
  H       -1.6911510     1.4872370     0.1370160
  H       -2.1942130     0.6629350    -1.3374030
  H       -2.8765390    -1.3546870     0.0071490
  H       -3.7457810     0.0968040     0.5260030
  H       -2.3920550    -0.5186010     1.4901810
  H       -0.4015900    -1.1050250    -0.9450900
  H        0.7410060     1.3377710     0.5508970
  H        1.9051690    -1.3201300    -0.6368870
units angstrom
no_reorient  #important for SAPT in psi4, default
symmetry c1  #important for SAPT in psi4, default
}

set PROPERTIES_ORIGIN ["COM"]
properties('MP2/aug-cc-pvtz', properties = ['dipole'])
--------------------------------------------------------------------------

    Molecular point group: c1
  Charge       = 0
  Multiplicity = 1
  Basis Set: AUG-CC-PVTZ
    Blend: AUG-CC-PVTZ
  Basis Set: (AUG-CC-PVTZ AUX)
    Blend: AUG-CC-PVTZ-JKFIT

    Orbital Energies [Eh]
    ---------------------

    Doubly Occupied:

       1A    -20.547286     2A    -11.332399     3A    -11.276510
       4A    -11.251741     5A    -11.246242     6A    -11.236706
       7A     -1.359017     8A     -1.117991     9A     -1.033863
      10A     -0.907653    11A     -0.819178    12A     -0.783835
      13A     -0.679742    14A     -0.647093    15A     -0.616895
      16A     -0.602254    17A     -0.559518    18A     -0.546525
      19A     -0.520589    20A     -0.516378    21A     -0.507901
      22A     -0.425822    23A     -0.380307

  @DF-RHF Final Energy:  -268.93301978789526

   => Energetics <=

    Nuclear Repulsion Energy =            209.7917207667406387
    One-Electron Energy =                -779.6185962575301573
    Two-Electron Energy =                 300.8938557028942000
    Total Energy =                       -268.9330197878952617
  Basis Set: (AUG-CC-PVTZ AUX)
    Blend: AUG-CC-PVTZ-RI
    Molecular point group: c1

    Geometry (in Angstrom), charge = 0, multiplicity = 1:

       Center              X                  Y                   Z               Mass
    ------------   -----------------  -----------------  -----------------  -----------------
         O            2.933747935159     0.059626308132     0.304938222807    15.994914619570
         C           -1.910384064841     0.494011308132    -0.332347777193    12.000000000000
         C           -2.882054064841    -0.378480691868     0.469650222807    12.000000000000
         C           -0.561597064841    -0.141783691868    -0.445174777193    12.000000000000
         C            0.584900935159     0.370635308132     0.037489222807    12.000000000000
         C            1.836281935159    -0.358904591868    -0.117602877193    12.000000000000
         H           -1.814224064841     1.479774308132     0.135544222807     1.007825032230
         H           -2.317286064841     0.655472308132    -1.338874777193     1.007825032230
         H           -2.999612064841    -1.362149691868     0.005677222807     1.007825032230
         H           -3.868854064841     0.089341308132     0.524531222807     1.007825032230
         H           -2.515128064841    -0.526063691868     1.488709222807     1.007825032230
         H           -0.524663064841    -1.112487691868    -0.946561777193     1.007825032230
         H            0.617932935159     1.330308308132     0.549425222807     1.007825032230
         H            1.782095935159    -1.327592691868    -0.638358777193     1.007825032230

  Basis Set: AUG-CC-PVTZ
    Blend: AUG-CC-PVTZ
  Basis Set: (AUG-CC-PVTZ AUX)
    Blend: AUG-CC-PVTZ-JKFIT
	 Reference Energy          =    -268.9330197878952617 [Eh]
	 Singles Energy            =      -0.0000000000000000 [Eh]
	 Same-Spin Energy          =      -0.2699938909366363 [Eh]
	 Opposite-Spin Energy      =      -0.9152278799536947 [Eh]
	 Correlation Energy        =      -1.1852217708903310 [Eh]
	 Total Energy              =    -270.1182415587855985 [Eh]

	 ================> DF-SCS-MP2 Energies <==================
	-----------------------------------------------------------
	 SCS Same-Spin Scale       =       0.3333333333333333 [-]
	 SCS Opposite-Spin Scale   =       1.2000000000000000 [-]
	 SCS Same-Spin Energy      =      -0.0899979636455454 [Eh]
	 SCS Opposite-Spin Energy  =      -1.0982734559444336 [Eh]
	 SCS Correlation Energy    =      -1.1882714195899791 [Eh]
	 SCS Total Energy          =    -270.1212912074852284 [Eh]
	-----------------------------------------------------------

  Dipole Moment: [D]
     X:    -4.0284      Y:    -0.5067      Z:    -0.8960     Total:     4.1578

*** Psi4 exiting successfully. Buy a developer a beer!
