                               Psi4 1.3.2 release

  ==> Input File <==

--------------------------------------------------------------------------
#psi4
#
memory 32 gb

molecule  {
0 1
  O        2.9378530    -0.0680150     0.1840270
  C       -1.9436970     0.3335570     0.3437070
  C       -2.8302210    -0.7631530    -0.2519080
  C       -0.5859380     0.3423530    -0.2788660
  C        0.5697440     0.1186190     0.3690800
  C        1.9358574     0.1302210    -0.3959735
  H       -1.8508390     0.1975730     1.4263050
  H       -2.4196650     1.3090330     0.1828770
  H       -2.9395310    -0.6342920    -1.3325490
  H       -3.8284810    -0.7404210     0.1934590
  H       -2.3959700    -1.7495570    -0.0705440
  H       -0.5478170     0.5276110    -1.3553930
  H        0.6030990    -0.0751360     1.4392450
  H        1.7772940     0.3293450    -1.4382350
units angstrom
no_reorient  #important for SAPT in psi4, default
symmetry c1  #important for SAPT in psi4, default
}

set PROPERTIES_ORIGIN ["COM"]
properties('MP2/aug-cc-pvtz', properties = ['dipole'])
--------------------------------------------------------------------------

    Molecular point group: c1
  Charge       = 0
  Multiplicity = 1
  Basis Set: AUG-CC-PVTZ
    Blend: AUG-CC-PVTZ
  Basis Set: (AUG-CC-PVTZ AUX)
    Blend: AUG-CC-PVTZ-JKFIT

    Orbital Energies [Eh]
    ---------------------

    Doubly Occupied:

       1A    -20.558348     2A    -11.332991     3A    -11.261799
       4A    -11.244050     5A    -11.242626     6A    -11.230415
       7A     -1.415779     8A     -1.104752     9A     -1.017208
      10A     -0.893418    11A     -0.818549    12A     -0.778342
      13A     -0.679948    14A     -0.656574    15A     -0.615735
      16A     -0.612823    17A     -0.554209    18A     -0.553201
      19A     -0.537709    20A     -0.514271    21A     -0.500814
      22A     -0.415930    23A     -0.375998

  @DF-RHF Final Energy:  -268.93156217338276

   => Energetics <=

    Nuclear Repulsion Energy =            209.6776404246575680
    One-Electron Energy =                -779.3874240936187334
    Two-Electron Energy =                 300.7782214955783502
    Total Energy =                       -268.9315621733827584
  Basis Set: (AUG-CC-PVTZ AUX)
    Blend: AUG-CC-PVTZ-RI
    Molecular point group: c1

    Geometry (in Angstrom), charge = 0, multiplicity = 1:

       Center              X                  Y                   Z               Mass
    ------------   -----------------  -----------------  -----------------  -----------------
         O            2.925397749786    -0.068120705908     0.191002419899    15.994914619570
         C           -1.956152250214     0.333451294092     0.350682419899    12.000000000000
         C           -2.842676250214    -0.763258705908    -0.244932580101    12.000000000000
         C           -0.598393250214     0.342247294092    -0.271890580101    12.000000000000
         C            0.557288749786     0.118513294092     0.376055419899    12.000000000000
         C            1.923402149786     0.130115294092    -0.388998080101    12.000000000000
         H           -1.863294250214     0.197467294092     1.433280419899     1.007825032230
         H           -2.432120250214     1.308927294092     0.189852419899     1.007825032230
         H           -2.951986250214    -0.634397705908    -1.325573580101     1.007825032230
         H           -3.840936250214    -0.740526705908     0.200434419899     1.007825032230
         H           -2.408425250214    -1.749662705908    -0.063568580101     1.007825032230
         H           -0.560272250214     0.527505294092    -1.348417580101     1.007825032230
         H            0.590643749786    -0.075241705908     1.446220419899     1.007825032230
         H            1.764838749786     0.329239294092    -1.431259580101     1.007825032230

  Basis Set: AUG-CC-PVTZ
    Blend: AUG-CC-PVTZ
  Basis Set: (AUG-CC-PVTZ AUX)
    Blend: AUG-CC-PVTZ-JKFIT
	 Reference Energy          =    -268.9315621733827584 [Eh]
	 Singles Energy            =      -0.0000000000000000 [Eh]
	 Same-Spin Energy          =      -0.2675080942388741 [Eh]
	 Opposite-Spin Energy      =      -0.9107444768209887 [Eh]
	 Correlation Energy        =      -1.1782525710598628 [Eh]
	 Total Energy              =    -270.1098147444426445 [Eh]

	 ================> DF-SCS-MP2 Energies <==================
	-----------------------------------------------------------
	 SCS Same-Spin Scale       =       0.3333333333333333 [-]
	 SCS Opposite-Spin Scale   =       1.2000000000000000 [-]
	 SCS Same-Spin Energy      =      -0.0891693647462913 [Eh]
	 SCS Opposite-Spin Energy  =      -1.0928933721851863 [Eh]
	 SCS Correlation Energy    =      -1.1820627369314778 [Eh]
	 SCS Total Energy          =    -270.1136249103142291 [Eh]
	-----------------------------------------------------------

  Dipole Moment: [D]
     X:    -3.2209      Y:     0.3853      Z:    -0.8976     Total:     3.3658

*** Psi4 exiting successfully. Buy a developer a beer!
