                               Psi4 1.3.2 release

  ==> Input File <==

--------------------------------------------------------------------------
#psi4
#
memory 32 gb

molecule  {
0 1
  O        2.9378530    -0.0680150     0.1840270
  C       -1.9436970     0.3335570     0.3437070
  C       -2.8302210    -0.7631530    -0.2519080
  C       -0.5490653     0.3494928    -0.3383484
  C        0.5697440     0.1186190     0.3690800
  C        1.8486100     0.1294800    -0.3471130
  H       -1.8508390     0.1975730     1.4263050
  H       -2.4196650     1.3090330     0.1828770
  H       -2.9395310    -0.6342920    -1.3325490
  H       -3.8284810    -0.7404210     0.1934590
  H       -2.3959700    -1.7495570    -0.0705440
  H       -0.5478170     0.5276110    -1.3553930
  H        0.6597310    -0.0797117     1.4351353
  H        1.7772940     0.3293450    -1.4382350
units angstrom
no_reorient  #important for SAPT in psi4, default
symmetry c1  #important for SAPT in psi4, default
}

set PROPERTIES_ORIGIN ["COM"]
properties('MP2/aug-cc-pvtz', properties = ['dipole'])
--------------------------------------------------------------------------

    Molecular point group: c1
  Charge       = 0
  Multiplicity = 1
  Basis Set: AUG-CC-PVTZ
    Blend: AUG-CC-PVTZ
  Basis Set: (AUG-CC-PVTZ AUX)
    Blend: AUG-CC-PVTZ-JKFIT

    Orbital Energies [Eh]
    ---------------------

    Doubly Occupied:

       1A    -20.547615     2A    -11.328846     3A    -11.272969
       4A    -11.252301     5A    -11.247019     6A    -11.233905
       7A     -1.372112     8A     -1.111806     9A     -1.030851
      10A     -0.900676    11A     -0.817999    12A     -0.788923
      13A     -0.682725    14A     -0.644787    15A     -0.614759
      16A     -0.603163    17A     -0.573028    18A     -0.541775
      19A     -0.525169    20A     -0.509552    21A     -0.506285
      22A     -0.420615    23A     -0.383082

  @DF-RHF Final Energy:  -268.93080823648404

   => Energetics <=

    Nuclear Repulsion Energy =            209.7206791448946888
    One-Electron Energy =                -779.4830588790208594
    Two-Electron Energy =                 300.8315714976421305
    Total Energy =                       -268.9308082364840402
  Basis Set: (AUG-CC-PVTZ AUX)
    Blend: AUG-CC-PVTZ-RI
    Molecular point group: c1

    Geometry (in Angstrom), charge = 0, multiplicity = 1:

       Center              X                  Y                   Z               Mass
    ------------   -----------------  -----------------  -----------------  -----------------
         O            2.931910210374    -0.068979333421     0.192568070023    15.994914619570
         C           -1.949639789626     0.332592666579     0.352248070023    12.000000000000
         C           -2.836163789626    -0.764117333421    -0.243366929977    12.000000000000
         C           -0.555008089626     0.348528466579    -0.329807329977    12.000000000000
         C            0.563801210374     0.117654666579     0.377621070023    12.000000000000
         C            1.842667210374     0.128515666579    -0.338571929977    12.000000000000
         H           -1.856781789626     0.196608666579     1.434846070023     1.007825032230
         H           -2.425607789626     1.308068666579     0.191418070023     1.007825032230
         H           -2.945473789626    -0.635256333421    -1.324007929977     1.007825032230
         H           -3.834423789626    -0.741385333421     0.202000070023     1.007825032230
         H           -2.401912789626    -1.750521333421    -0.062002929977     1.007825032230
         H           -0.553759789626     0.526646666579    -1.346851929977     1.007825032230
         H            0.653788210374    -0.080676033421     1.443676370023     1.007825032230
         H            1.771351210374     0.328380666579    -1.429693929977     1.007825032230

  Basis Set: AUG-CC-PVTZ
    Blend: AUG-CC-PVTZ
  Basis Set: (AUG-CC-PVTZ AUX)
    Blend: AUG-CC-PVTZ-JKFIT
	 Reference Energy          =    -268.9308082364840402 [Eh]
	 Singles Energy            =      -0.0000000000000000 [Eh]
	 Same-Spin Energy          =      -0.2689062570671146 [Eh]
	 Opposite-Spin Energy      =      -0.9136099753728761 [Eh]
	 Correlation Energy        =      -1.1825162324399907 [Eh]
	 Total Energy              =    -270.1133244689240200 [Eh]

	 ================> DF-SCS-MP2 Energies <==================
	-----------------------------------------------------------
	 SCS Same-Spin Scale       =       0.3333333333333333 [-]
	 SCS Opposite-Spin Scale   =       1.2000000000000000 [-]
	 SCS Same-Spin Energy      =      -0.0896354190223715 [Eh]
	 SCS Opposite-Spin Energy  =      -1.0963319704474512 [Eh]
	 SCS Correlation Energy    =      -1.1859673894698228 [Eh]
	 SCS Total Energy          =    -270.1167756259538351 [Eh]
	-----------------------------------------------------------

  Dipole Moment: [D]
     X:    -3.8685      Y:     0.4120      Z:    -0.7852     Total:     3.9688

*** Psi4 exiting successfully. Buy a developer a beer!
