                               Psi4 1.3.2 release

  ==> Input File <==

--------------------------------------------------------------------------
#psi4
#
memory 32 gb

molecule  {
0 1
  O        2.9378530    -0.0680150     0.1840270
  C       -1.9436970     0.3335570     0.3437070
  C       -2.8302210    -0.7631530    -0.2519080
  C       -0.5859380     0.3423530    -0.2788660
  C        0.5697440     0.1186190     0.3690800
  C        1.7613626     0.1287390    -0.2982525
  H       -1.8508390     0.1975730     1.4263050
  H       -2.4196650     1.3090330     0.1828770
  H       -2.9395310    -0.6342920    -1.3325490
  H       -3.8284810    -0.7404210     0.1934590
  H       -2.3959700    -1.7495570    -0.0705440
  H       -0.5478170     0.5276110    -1.3553930
  H        0.6030990    -0.0751360     1.4392450
  H        1.7772940     0.3293450    -1.4382350
units angstrom
no_reorient  #important for SAPT in psi4, default
symmetry c1  #important for SAPT in psi4, default
}

set PROPERTIES_ORIGIN ["COM"]
properties('MP2/aug-cc-pvtz', properties = ['dipole'])
--------------------------------------------------------------------------

    Molecular point group: c1
  Charge       = 0
  Multiplicity = 1
  Basis Set: AUG-CC-PVTZ
    Blend: AUG-CC-PVTZ
  Basis Set: (AUG-CC-PVTZ AUX)
    Blend: AUG-CC-PVTZ-JKFIT

    Orbital Energies [Eh]
    ---------------------

    Doubly Occupied:

       1A    -20.538559     2A    -11.330033     3A    -11.288886
       4A    -11.257479     5A    -11.243418     6A    -11.241611
       7A     -1.330412     8A     -1.131927     9A     -1.049478
      10A     -0.920863    11A     -0.824458    12A     -0.779807
      13A     -0.682493    14A     -0.650006    15A     -0.621232
      16A     -0.590040    17A     -0.557623    18A     -0.551103
      19A     -0.521832    20A     -0.514847    21A     -0.510782
      22A     -0.420357    23A     -0.381163

  @DF-RHF Final Energy:  -268.91488641471557

   => Energetics <=

    Nuclear Repulsion Energy =            210.6114163612618597
    One-Electron Energy =                -781.1757886184190056
    Two-Electron Energy =                 301.6494858424416066
    Total Energy =                       -268.9148864147155678
  Basis Set: (AUG-CC-PVTZ AUX)
    Blend: AUG-CC-PVTZ-RI
    Molecular point group: c1

    Geometry (in Angstrom), charge = 0, multiplicity = 1:

       Center              X                  Y                   Z               Mass
    ------------   -----------------  -----------------  -----------------  -----------------
         O            2.950308521929    -0.067909136484     0.177051829024    15.994914619570
         C           -1.931241478071     0.333662863516     0.336731829024    12.000000000000
         C           -2.817765478071    -0.763047136484    -0.258883170976    12.000000000000
         C           -0.573482478071     0.342458863516    -0.285841170976    12.000000000000
         C            0.582199521929     0.118724863516     0.362104829024    12.000000000000
         C            1.773818121929     0.128844863516    -0.305227670976    12.000000000000
         H           -1.838383478071     0.197678863516     1.419329829024     1.007825032230
         H           -2.407209478071     1.309138863516     0.175901829024     1.007825032230
         H           -2.927075478071    -0.634186136484    -1.339524170976     1.007825032230
         H           -3.816025478071    -0.740315136484     0.186483829024     1.007825032230
         H           -2.383514478071    -1.749451136484    -0.077519170976     1.007825032230
         H           -0.535361478071     0.527716863516    -1.362368170976     1.007825032230
         H            0.615554521929    -0.075030136484     1.432269829024     1.007825032230
         H            1.789749521929     0.329450863516    -1.445210170976     1.007825032230

  Basis Set: AUG-CC-PVTZ
    Blend: AUG-CC-PVTZ
  Basis Set: (AUG-CC-PVTZ AUX)
    Blend: AUG-CC-PVTZ-JKFIT
	 Reference Energy          =    -268.9148864147155678 [Eh]
	 Singles Energy            =      -0.0000000000000000 [Eh]
	 Same-Spin Energy          =      -0.2723516685594203 [Eh]
	 Opposite-Spin Energy      =      -0.9188424759294427 [Eh]
	 Correlation Energy        =      -1.1911941444888630 [Eh]
	 Total Energy              =    -270.1060805592044289 [Eh]

	 ================> DF-SCS-MP2 Energies <==================
	-----------------------------------------------------------
	 SCS Same-Spin Scale       =       0.3333333333333333 [-]
	 SCS Opposite-Spin Scale   =       1.2000000000000000 [-]
	 SCS Same-Spin Energy      =      -0.0907838895198068 [Eh]
	 SCS Opposite-Spin Energy  =      -1.1026109711153311 [Eh]
	 SCS Correlation Energy    =      -1.1933948606351379 [Eh]
	 SCS Total Energy          =    -270.1082812753506914 [Eh]
	-----------------------------------------------------------

  Dipole Moment: [D]
     X:    -4.5869      Y:     0.4220      Z:    -0.6515     Total:     4.6522

*** Psi4 exiting successfully. Buy a developer a beer!
