                               Psi4 1.3.2 release

  ==> Input File <==

--------------------------------------------------------------------------
#psi4
#
memory 32 gb

molecule  {
0 1
  O        2.9378530    -0.0680150     0.1840270
  C       -1.9641781     0.3444346     0.2970106
  C       -2.8302210    -0.7631530    -0.2519080
  C       -0.5859380     0.3423530    -0.2788660
  C        0.5926544     0.1246512     0.3286023
  C        1.8486100     0.1294800    -0.3471130
  H       -1.8508390     0.1975730     1.4263050
  H       -2.4196650     1.3090330     0.1828770
  H       -2.9395310    -0.6342920    -1.3325490
  H       -3.8284810    -0.7404210     0.1934590
  H       -2.3959700    -1.7495570    -0.0705440
  H       -0.5478170     0.5276110    -1.3553930
  H        0.6030990    -0.0751360     1.4392450
  H        1.7772940     0.3293450    -1.4382350
units angstrom
no_reorient  #important for SAPT in psi4, default
symmetry c1  #important for SAPT in psi4, default
}

set PROPERTIES_ORIGIN ["COM"]
properties('MP2/aug-cc-pvtz', properties = ['dipole'])
--------------------------------------------------------------------------

    Molecular point group: c1
  Charge       = 0
  Multiplicity = 1
  Basis Set: AUG-CC-PVTZ
    Blend: AUG-CC-PVTZ
  Basis Set: (AUG-CC-PVTZ AUX)
    Blend: AUG-CC-PVTZ-JKFIT

    Orbital Energies [Eh]
    ---------------------

    Doubly Occupied:

       1A    -20.548524     2A    -11.329064     3A    -11.277722
       4A    -11.254449     5A    -11.246833     6A    -11.236652
       7A     -1.373244     8A     -1.119760     9A     -1.040382
      10A     -0.912525    11A     -0.822252    12A     -0.775187
      13A     -0.681073    14A     -0.653455    15A     -0.619704
      16A     -0.604373    17A     -0.558415    18A     -0.547272
      19A     -0.530328    20A     -0.521141    21A     -0.491639
      22A     -0.426620    23A     -0.383330

  @DF-RHF Final Energy:  -268.92918207358747

   => Energetics <=

    Nuclear Repulsion Energy =            210.4310828929583863
    One-Electron Energy =                -780.8126465276772024
    Two-Electron Energy =                 301.4523815611312898
    Total Energy =                       -268.9291820735874694
  Basis Set: (AUG-CC-PVTZ AUX)
    Blend: AUG-CC-PVTZ-RI
    Molecular point group: c1

    Geometry (in Angstrom), charge = 0, multiplicity = 1:

       Center              X                  Y                   Z               Mass
    ------------   -----------------  -----------------  -----------------  -----------------
         O            2.937506330458    -0.070428954020     0.196472046270    15.994914619570
         C           -1.964524769542     0.342020645980     0.309455646270    12.000000000000
         C           -2.830567669542    -0.765566954020    -0.239462953730    12.000000000000
         C           -0.586284669542     0.339939045980    -0.266420953730    12.000000000000
         C            0.592307730458     0.122237245980     0.341047346270    12.000000000000
         C            1.848263330458     0.127066045980    -0.334667953730    12.000000000000
         H           -1.851185669542     0.195159045980     1.438750046270     1.007825032230
         H           -2.420011669542     1.306619045980     0.195322046270     1.007825032230
         H           -2.939877669542    -0.636705954020    -1.320103953730     1.007825032230
         H           -3.828827669542    -0.742834954020     0.205904046270     1.007825032230
         H           -2.396316669542    -1.751970954020    -0.058098953730     1.007825032230
         H           -0.548163669542     0.525197045980    -1.342947953730     1.007825032230
         H            0.602752330458    -0.077549954020     1.451690046270     1.007825032230
         H            1.776947330458     0.326931045980    -1.425789953730     1.007825032230

  Basis Set: AUG-CC-PVTZ
    Blend: AUG-CC-PVTZ
  Basis Set: (AUG-CC-PVTZ AUX)
    Blend: AUG-CC-PVTZ-JKFIT
	 Reference Energy          =    -268.9291820735874694 [Eh]
	 Singles Energy            =      -0.0000000000000000 [Eh]
	 Same-Spin Energy          =      -0.2700443206201874 [Eh]
	 Opposite-Spin Energy      =      -0.9148421251263448 [Eh]
	 Correlation Energy        =      -1.1848864457465322 [Eh]
	 Total Energy              =    -270.1140685193340119 [Eh]

	 ================> DF-SCS-MP2 Energies <==================
	-----------------------------------------------------------
	 SCS Same-Spin Scale       =       0.3333333333333333 [-]
	 SCS Opposite-Spin Scale   =       1.2000000000000000 [-]
	 SCS Same-Spin Energy      =      -0.0900147735400624 [Eh]
	 SCS Opposite-Spin Energy  =      -1.0978105501516138 [Eh]
	 SCS Correlation Energy    =      -1.1878253236916763 [Eh]
	 SCS Total Energy          =    -270.1170073972791670 [Eh]
	-----------------------------------------------------------

  Dipole Moment: [D]
     X:    -4.0581      Y:     0.4097      Z:    -0.7903     Total:     4.1546

*** Psi4 exiting successfully. Buy a developer a beer!
