                               Psi4 1.3.2 release

  ==> Input File <==

--------------------------------------------------------------------------
#psi4
#
memory 32 gb

molecule  {
0 1
  O        2.9378530    -0.0680150     0.1840270
  C       -1.9436970     0.3335570     0.3437070
  C       -2.8302210    -0.7631530    -0.2519080
  C       -0.5859380     0.3423530    -0.2788660
  C        0.5697440     0.1186190     0.3690800
  C        1.8486100     0.1294800    -0.3471130
  H       -1.8508390     0.1975730     1.4263050
  H       -2.4196650     1.3090330     0.1828770
  H       -2.9395310    -0.6342920    -1.3325490
  H       -3.8284810    -0.7404210     0.1934590
  H       -2.3959700    -1.7495570    -0.0705440
  H       -0.5547924     0.4937125    -1.1584102
  H        0.6030990    -0.0751360     1.4392450
  H        1.7772940     0.3293450    -1.4382350
units angstrom
no_reorient  #important for SAPT in psi4, default
symmetry c1  #important for SAPT in psi4, default
}

set PROPERTIES_ORIGIN ["COM"]
properties('MP2/aug-cc-pvtz', properties = ['dipole'])
--------------------------------------------------------------------------

    Molecular point group: c1
  Charge       = 0
  Multiplicity = 1
  Basis Set: AUG-CC-PVTZ
    Blend: AUG-CC-PVTZ
  Basis Set: (AUG-CC-PVTZ AUX)
    Blend: AUG-CC-PVTZ-JKFIT

    Orbital Energies [Eh]
    ---------------------

    Doubly Occupied:

       1A    -20.549286     2A    -11.331817     3A    -11.250760
       4A    -11.248526     5A    -11.244131     6A    -11.235536
       7A     -1.373281     8A     -1.125635     9A     -1.032590
      10A     -0.911851    11A     -0.832199    12A     -0.799397
      13A     -0.690292    14A     -0.649216    15A     -0.617578
      16A     -0.608239    17A     -0.569995    18A     -0.546610
      19A     -0.526599    20A     -0.517833    21A     -0.509426
      22A     -0.423955    23A     -0.380403

  @DF-RHF Final Energy:  -268.90245914540230

   => Energetics <=

    Nuclear Repulsion Energy =            211.0926397010738071
    One-Electron Energy =                -782.0398867111268828
    Two-Electron Energy =                 302.0447878646507434
    Total Energy =                       -268.9024591454023039
  Basis Set: (AUG-CC-PVTZ AUX)
    Blend: AUG-CC-PVTZ-RI
    Molecular point group: c1

    Geometry (in Angstrom), charge = 0, multiplicity = 1:

       Center              X                  Y                   Z               Mass
    ------------   -----------------  -----------------  -----------------  -----------------
         O            2.937936768864    -0.067608488090     0.181665358271    15.994914619570
         C           -1.943613231136     0.333963511910     0.341345358271    12.000000000000
         C           -2.830137231136    -0.762746488090    -0.254269641729    12.000000000000
         C           -0.585854231136     0.342759511910    -0.281227641729    12.000000000000
         C            0.569827768864     0.119025511910     0.366718358271    12.000000000000
         C            1.848693768864     0.129886511910    -0.349474641729    12.000000000000
         H           -1.850755231136     0.197979511910     1.423943358271     1.007825032230
         H           -2.419581231136     1.309439511910     0.180515358271     1.007825032230
         H           -2.939447231136    -0.633885488090    -1.334910641729     1.007825032230
         H           -3.828397231136    -0.740014488090     0.191097358271     1.007825032230
         H           -2.395886231136    -1.749150488090    -0.072905641729     1.007825032230
         H           -0.554708631136     0.494119011910    -1.160771841729     1.007825032230
         H            0.603182768864    -0.074729488090     1.436883358271     1.007825032230
         H            1.777377768864     0.329751511910    -1.440596641729     1.007825032230

  Basis Set: AUG-CC-PVTZ
    Blend: AUG-CC-PVTZ
  Basis Set: (AUG-CC-PVTZ AUX)
    Blend: AUG-CC-PVTZ-JKFIT
	 Reference Energy          =    -268.9024591454023039 [Eh]
	 Singles Energy            =      -0.0000000000000000 [Eh]
	 Same-Spin Energy          =      -0.2691218620153963 [Eh]
	 Opposite-Spin Energy      =      -0.9133636886119745 [Eh]
	 Correlation Energy        =      -1.1824855506273708 [Eh]
	 Total Energy              =    -270.0849446960296518 [Eh]

	 ================> DF-SCS-MP2 Energies <==================
	-----------------------------------------------------------
	 SCS Same-Spin Scale       =       0.3333333333333333 [-]
	 SCS Opposite-Spin Scale   =       1.2000000000000000 [-]
	 SCS Same-Spin Energy      =      -0.0897072873384654 [Eh]
	 SCS Opposite-Spin Energy  =      -1.0960364263343694 [Eh]
	 SCS Correlation Energy    =      -1.1857437136728348 [Eh]
	 SCS Total Energy          =    -270.0882028590751247 [Eh]
	-----------------------------------------------------------

  Dipole Moment: [D]
     X:    -3.9165      Y:     0.4150      Z:    -0.8264     Total:     4.0242

*** Psi4 exiting successfully. Buy a developer a beer!
