                               Psi4 1.3.2 release

  ==> Input File <==

--------------------------------------------------------------------------
#psi4
#
memory 32 gb

molecule  {
0 1
  O        2.9072866    -0.0753324     0.2401009
  C       -1.9436970     0.3335570     0.3437070
  C       -2.8302210    -0.7631530    -0.2519080
  C       -0.5859380     0.3423530    -0.2788660
  C        0.6083264     0.1033370     0.4336314
  C        1.8486100     0.1294800    -0.3471130
  H       -1.8508390     0.1975730     1.4263050
  H       -2.4196650     1.3090330     0.1828770
  H       -2.9395310    -0.6342920    -1.3325490
  H       -3.8284810    -0.7404210     0.1934590
  H       -2.3959700    -1.7495570    -0.0705440
  H       -0.5478170     0.5276110    -1.3553930
  H        0.6030990    -0.0751360     1.4392450
  H        1.7772940     0.3293450    -1.4382350
units angstrom
no_reorient  #important for SAPT in psi4, default
symmetry c1  #important for SAPT in psi4, default
}

set PROPERTIES_ORIGIN ["COM"]
properties('MP2/aug-cc-pvtz', properties = ['dipole'])
--------------------------------------------------------------------------

    Molecular point group: c1
  Charge       = 0
  Multiplicity = 1
  Basis Set: AUG-CC-PVTZ
    Blend: AUG-CC-PVTZ
  Basis Set: (AUG-CC-PVTZ AUX)
    Blend: AUG-CC-PVTZ-JKFIT

    Orbital Energies [Eh]
    ---------------------

    Doubly Occupied:

       1A    -20.543762     2A    -11.330036     3A    -11.283203
       4A    -11.249889     5A    -11.245851     6A    -11.235550
       7A     -1.371443     8A     -1.107529     9A     -1.026041
      10A     -0.904650    11A     -0.810113    12A     -0.793687
      13A     -0.676654    14A     -0.646248    15A     -0.622798
      16A     -0.601449    17A     -0.568515    18A     -0.544063
      19A     -0.524911    20A     -0.516286    21A     -0.507322
      22A     -0.422131    23A     -0.364819

  @DF-RHF Final Energy:  -268.92356301255683

   => Energetics <=

    Nuclear Repulsion Energy =            209.7188982851166372
    One-Electron Energy =                -779.4910226718041031
    Two-Electron Energy =                 300.8485613741306111
    Total Energy =                       -268.9235630125568264
  Basis Set: (AUG-CC-PVTZ AUX)
    Blend: AUG-CC-PVTZ-RI
    Molecular point group: c1

    Geometry (in Angstrom), charge = 0, multiplicity = 1:

       Center              X                  Y                   Z               Mass
    ------------   -----------------  -----------------  -----------------  -----------------
         O            2.907595074240    -0.071758278010     0.220215663286    15.994914619570
         C           -1.943388525760     0.337131121990     0.323821763286    12.000000000000
         C           -2.829912525760    -0.759578878010    -0.271793236714    12.000000000000
         C           -0.585629525760     0.345927121990    -0.298751236714    12.000000000000
         C            0.608634874240     0.106911121990     0.413746163286    12.000000000000
         C            1.848918474240     0.133054121990    -0.366998236714    12.000000000000
         H           -1.850530525760     0.201147121990     1.406419763286     1.007825032230
         H           -2.419356525760     1.312607121990     0.162991763286     1.007825032230
         H           -2.939222525760    -0.630717878010    -1.352434236714     1.007825032230
         H           -3.828172525760    -0.736846878010     0.173573763286     1.007825032230
         H           -2.395661525760    -1.745982878010    -0.090429236714     1.007825032230
         H           -0.547508525760     0.531185121990    -1.375278236714     1.007825032230
         H            0.603407474240    -0.071561878010     1.419359763286     1.007825032230
         H            1.777602474240     0.332919121990    -1.458120236714     1.007825032230

  Basis Set: AUG-CC-PVTZ
    Blend: AUG-CC-PVTZ
  Basis Set: (AUG-CC-PVTZ AUX)
    Blend: AUG-CC-PVTZ-JKFIT
	 Reference Energy          =    -268.9235630125568264 [Eh]
	 Singles Energy            =      -0.0000000000000000 [Eh]
	 Same-Spin Energy          =      -0.2700796032727898 [Eh]
	 Opposite-Spin Energy      =      -0.9155128038622196 [Eh]
	 Correlation Energy        =      -1.1855924071350095 [Eh]
	 Total Energy              =    -270.1091554196918310 [Eh]

	 ================> DF-SCS-MP2 Energies <==================
	-----------------------------------------------------------
	 SCS Same-Spin Scale       =       0.3333333333333333 [-]
	 SCS Opposite-Spin Scale   =       1.2000000000000000 [-]
	 SCS Same-Spin Energy      =      -0.0900265344242633 [Eh]
	 SCS Opposite-Spin Energy  =      -1.0986153646346635 [Eh]
	 SCS Correlation Energy    =      -1.1886418990589267 [Eh]
	 SCS Total Energy          =    -270.1122049116157768 [Eh]
	-----------------------------------------------------------

  Dipole Moment: [D]
     X:    -3.8809      Y:     0.4240      Z:    -0.8767     Total:     4.0012

*** Psi4 exiting successfully. Buy a developer a beer!
