                               Psi4 1.3.2 release

  ==> Input File <==

--------------------------------------------------------------------------
#psi4
#
memory 32 gb

molecule  {
0 1
  O        2.9378530    -0.0680150     0.1840270
  C       -1.9327886     0.3287052     0.3668826
  C       -2.8302210    -0.7631530    -0.2519080
  C       -0.5859380     0.3423530    -0.2788660
  C        0.5697440     0.1186190     0.3690800
  C        1.8486100     0.1294800    -0.3471130
  H       -1.8508390     0.1975730     1.4263050
  H       -2.4196650     1.3090330     0.1828770
  H       -2.9395310    -0.6342920    -1.3325490
  H       -3.8284810    -0.7404210     0.1934590
  H       -2.3959700    -1.7495570    -0.0705440
  H       -0.5288087     0.5261095    -1.3548093
  H        0.6030990    -0.0751360     1.4392450
  H        1.7772940     0.3293450    -1.4382350
units angstrom
no_reorient  #important for SAPT in psi4, default
symmetry c1  #important for SAPT in psi4, default
}

set PROPERTIES_ORIGIN ["COM"]
properties('MP2/aug-cc-pvtz', properties = ['dipole'])
--------------------------------------------------------------------------

    Molecular point group: c1
  Charge       = 0
  Multiplicity = 1
  Basis Set: AUG-CC-PVTZ
    Blend: AUG-CC-PVTZ
  Basis Set: (AUG-CC-PVTZ AUX)
    Blend: AUG-CC-PVTZ-JKFIT

    Orbital Energies [Eh]
    ---------------------

    Doubly Occupied:

       1A    -20.548711     2A    -11.331322     3A    -11.274321
       4A    -11.250541     5A    -11.244152     6A    -11.236247
       7A     -1.372837     8A     -1.116717     9A     -1.030678
      10A     -0.905480    11A     -0.818508    12A     -0.782195
      13A     -0.679401    14A     -0.648574    15A     -0.616541
      16A     -0.606201    17A     -0.557764    18A     -0.543990
      19A     -0.525716    20A     -0.517607    21A     -0.512104
      22A     -0.423622    23A     -0.379890

  @DF-RHF Final Energy:  -268.93538319898636

   => Energetics <=

    Nuclear Repulsion Energy =            210.0533458837311116
    One-Electron Energy =                -780.1312201845980780
    Two-Electron Energy =                 301.1424911018805801
    Total Energy =                       -268.9353831989863579
  Basis Set: (AUG-CC-PVTZ AUX)
    Blend: AUG-CC-PVTZ-RI
    Molecular point group: c1

    Geometry (in Angstrom), charge = 0, multiplicity = 1:

       Center              X                  Y                   Z               Mass
    ------------   -----------------  -----------------  -----------------  -----------------
         O            2.936067955308    -0.067304278615     0.180711591426    15.994914619570
         C           -1.934573644692     0.329415921385     0.363567191426    12.000000000000
         C           -2.832006044692    -0.762442278615    -0.255223408574    12.000000000000
         C           -0.587723044692     0.343063721385    -0.282181408574    12.000000000000
         C            0.567958955308     0.119329721385     0.365764591426    12.000000000000
         C            1.846824955308     0.130190721385    -0.350428408574    12.000000000000
         H           -1.852624044692     0.198283721385     1.422989591426     1.007825032230
         H           -2.421450044692     1.309743721385     0.179561591426     1.007825032230
         H           -2.941316044692    -0.633581278615    -1.335864408574     1.007825032230
         H           -3.830266044692    -0.739710278615     0.190143591426     1.007825032230
         H           -2.397755044692    -1.748846278615    -0.073859408574     1.007825032230
         H           -0.530593744692     0.526820221385    -1.358124708574     1.007825032230
         H            0.601313955308    -0.074425278615     1.435929591426     1.007825032230
         H            1.775508955308     0.330055721385    -1.441550408574     1.007825032230

  Basis Set: AUG-CC-PVTZ
    Blend: AUG-CC-PVTZ
  Basis Set: (AUG-CC-PVTZ AUX)
    Blend: AUG-CC-PVTZ-JKFIT
	 Reference Energy          =    -268.9353831989863579 [Eh]
	 Singles Energy            =      -0.0000000000000000 [Eh]
	 Same-Spin Energy          =      -0.2694084962226174 [Eh]
	 Opposite-Spin Energy      =      -0.9138435272233660 [Eh]
	 Correlation Energy        =      -1.1832520234459833 [Eh]
	 Total Energy              =    -270.1186352224323173 [Eh]

	 ================> DF-SCS-MP2 Energies <==================
	-----------------------------------------------------------
	 SCS Same-Spin Scale       =       0.3333333333333333 [-]
	 SCS Opposite-Spin Scale   =       1.2000000000000000 [-]
	 SCS Same-Spin Energy      =      -0.0898028320742058 [Eh]
	 SCS Opposite-Spin Energy  =      -1.0966122326680392 [Eh]
	 SCS Correlation Energy    =      -1.1864150647422449 [Eh]
	 SCS Total Energy          =    -270.1217982637285786 [Eh]
	-----------------------------------------------------------

  Dipole Moment: [D]
     X:    -3.9563      Y:     0.4036      Z:    -0.7590     Total:     4.0486

*** Psi4 exiting successfully. Buy a developer a beer!
