                               Psi4 1.3.2 release

  ==> Input File <==

--------------------------------------------------------------------------
#psi4
#
memory 32 gb

molecule  {
0 1
  O        2.9378530    -0.0680150     0.1840270
  C       -1.9436970     0.3335570     0.3437070
  C       -2.8302210    -0.7631530    -0.2519080
  C       -0.5975297     0.3398358    -0.2586357
  C        0.5697440     0.1186190     0.3690800
  C        1.8486100     0.1294800    -0.3471130
  H       -1.8508390     0.1975730     1.4263050
  H       -2.4196650     1.3090330     0.1828770
  H       -2.9395310    -0.6342920    -1.3325490
  H       -3.8284810    -0.7404210     0.1934590
  H       -2.3959700    -1.7495570    -0.0705440
  H       -0.5478170     0.5276110    -1.3553930
  H        0.5841937    -0.0734921     1.4399634
  H        1.7772940     0.3293450    -1.4382350
units angstrom
no_reorient  #important for SAPT in psi4, default
symmetry c1  #important for SAPT in psi4, default
}

set PROPERTIES_ORIGIN ["COM"]
properties('MP2/aug-cc-pvtz', properties = ['dipole'])
--------------------------------------------------------------------------

    Molecular point group: c1
  Charge       = 0
  Multiplicity = 1
  Basis Set: AUG-CC-PVTZ
    Blend: AUG-CC-PVTZ
  Basis Set: (AUG-CC-PVTZ AUX)
    Blend: AUG-CC-PVTZ-JKFIT

    Orbital Energies [Eh]
    ---------------------

    Doubly Occupied:

       1A    -20.549534     2A    -11.332589     3A    -11.275114
       4A    -11.249926     5A    -11.244638     6A    -11.236370
       7A     -1.373491     8A     -1.119044     9A     -1.032666
      10A     -0.907980    11A     -0.818210    12A     -0.778879
      13A     -0.679245    14A     -0.650933    15A     -0.617532
      16A     -0.607241    17A     -0.553655    18A     -0.549459
      19A     -0.527446    20A     -0.519312    21A     -0.504876
      22A     -0.425068    23A     -0.380353

  @DF-RHF Final Energy:  -268.93493000138574

   => Energetics <=

    Nuclear Repulsion Energy =            210.2048472178236977
    One-Electron Energy =                -780.4124386010644230
    Two-Electron Energy =                 301.2726613818549595
    Total Energy =                       -268.9349300013857373
  Basis Set: (AUG-CC-PVTZ AUX)
    Blend: AUG-CC-PVTZ-RI
    Molecular point group: c1

    Geometry (in Angstrom), charge = 0, multiplicity = 1:

       Center              X                  Y                   Z               Mass
    ------------   -----------------  -----------------  -----------------  -----------------
         O            2.939734628961    -0.067675277126     0.181130445660    15.994914619570
         C           -1.941815371039     0.333896722874     0.340810445660    12.000000000000
         C           -2.828339371039    -0.762813277126    -0.254804554340    12.000000000000
         C           -0.595648071039     0.340175522874    -0.261532254340    12.000000000000
         C            0.571625628961     0.118958722874     0.366183445660    12.000000000000
         C            1.850491628961     0.129819722874    -0.350009554340    12.000000000000
         H           -1.848957371039     0.197912722874     1.423408445660     1.007825032230
         H           -2.417783371039     1.309372722874     0.179980445660     1.007825032230
         H           -2.937649371039    -0.633952277126    -1.335445554340     1.007825032230
         H           -3.826599371039    -0.740081277126     0.190562445660     1.007825032230
         H           -2.394088371039    -1.749217277126    -0.073440554340     1.007825032230
         H           -0.545935371039     0.527950722874    -1.358289554340     1.007825032230
         H            0.586075328961    -0.073152377126     1.437066845660     1.007825032230
         H            1.779175628961     0.329684722874    -1.441131554340     1.007825032230

  Basis Set: AUG-CC-PVTZ
    Blend: AUG-CC-PVTZ
  Basis Set: (AUG-CC-PVTZ AUX)
    Blend: AUG-CC-PVTZ-JKFIT
	 Reference Energy          =    -268.9349300013857373 [Eh]
	 Singles Energy            =      -0.0000000000000000 [Eh]
	 Same-Spin Energy          =      -0.2696760542530190 [Eh]
	 Opposite-Spin Energy      =      -0.9141873544461872 [Eh]
	 Correlation Energy        =      -1.1838634086992061 [Eh]
	 Total Energy              =    -270.1187934100849475 [Eh]

	 ================> DF-SCS-MP2 Energies <==================
	-----------------------------------------------------------
	 SCS Same-Spin Scale       =       0.3333333333333333 [-]
	 SCS Opposite-Spin Scale   =       1.2000000000000000 [-]
	 SCS Same-Spin Energy      =      -0.0898920180843397 [Eh]
	 SCS Opposite-Spin Energy  =      -1.0970248253354244 [Eh]
	 SCS Correlation Energy    =      -1.1869168434197641 [Eh]
	 SCS Total Energy          =    -270.1218468448054750 [Eh]
	-----------------------------------------------------------

  Dipole Moment: [D]
     X:    -3.9734      Y:     0.4037      Z:    -0.7615     Total:     4.0658

*** Psi4 exiting successfully. Buy a developer a beer!
