                               Psi4 1.3.2 release

  ==> Input File <==

--------------------------------------------------------------------------
#psi4
#
memory 32 gb

molecule  {
0 1
  O        2.9378530    -0.0680150     0.1840270
  C       -1.9436970     0.3335570     0.3437070
  C       -2.8302210    -0.7631530    -0.2519080
  C       -0.5859380     0.3423530    -0.2788660
  C        0.5697440     0.1186190     0.3690800
  C        1.9373229     0.1133951    -0.3038545
  H       -1.8508390     0.1975730     1.4263050
  H       -2.4196650     1.3090330     0.1828770
  H       -2.9395310    -0.6342920    -1.3325490
  H       -3.8284810    -0.7404210     0.1934590
  H       -2.3959700    -1.7495570    -0.0705440
  H       -0.5478170     0.5276110    -1.3553930
  H        0.6030990    -0.0751360     1.4392450
  H        1.7772940     0.3293450    -1.4382350
units angstrom
no_reorient  #important for SAPT in psi4, default
symmetry c1  #important for SAPT in psi4, default
}

set PROPERTIES_ORIGIN ["COM"]
properties('MP2/aug-cc-pvtz', properties = ['dipole'])
--------------------------------------------------------------------------

    Molecular point group: c1
  Charge       = 0
  Multiplicity = 1
  Basis Set: AUG-CC-PVTZ
    Blend: AUG-CC-PVTZ
  Basis Set: (AUG-CC-PVTZ AUX)
    Blend: AUG-CC-PVTZ-JKFIT

    Orbital Energies [Eh]
    ---------------------

    Doubly Occupied:

       1A    -20.558951     2A    -11.329226     3A    -11.266436
       4A    -11.246179     5A    -11.241311     6A    -11.231774
       7A     -1.450795     8A     -1.107622     9A     -1.020840
      10A     -0.895491    11A     -0.808843    12A     -0.771836
      13A     -0.683014    14A     -0.669915    15A     -0.617862
      16A     -0.614416    17A     -0.576286    18A     -0.554198
      19A     -0.540583    20A     -0.515140    21A     -0.502153
      22A     -0.406794    23A     -0.379846

  @DF-RHF Final Energy:  -268.92788480347241

   => Energetics <=

    Nuclear Repulsion Energy =            210.7279098186931492
    One-Electron Energy =                -781.3325664946346478
    Two-Electron Energy =                 301.6767718724690326
    Total Energy =                       -268.9278848034724092
  Basis Set: (AUG-CC-PVTZ AUX)
    Blend: AUG-CC-PVTZ-RI
    Molecular point group: c1

    Geometry (in Angstrom), charge = 0, multiplicity = 1:

       Center              X                  Y                   Z               Mass
    ------------   -----------------  -----------------  -----------------  -----------------
         O            2.925188535892    -0.065718650597     0.177851567157    15.994914619570
         C           -1.956361464108     0.335853349403     0.337531567157    12.000000000000
         C           -2.842885464108    -0.760856650597    -0.258083432843    12.000000000000
         C           -0.598602464108     0.344649349403    -0.285041432843    12.000000000000
         C            0.557079535892     0.120915349403     0.362904567157    12.000000000000
         C            1.924658435892     0.115691449403    -0.310029932843    12.000000000000
         H           -1.863503464108     0.199869349403     1.420129567157     1.007825032230
         H           -2.432329464108     1.311329349403     0.176701567157     1.007825032230
         H           -2.952195464108    -0.631995650597    -1.338724432843     1.007825032230
         H           -3.841145464108    -0.738124650597     0.187283567157     1.007825032230
         H           -2.408634464108    -1.747260650597    -0.076719432843     1.007825032230
         H           -0.560481464108     0.529907349403    -1.361568432843     1.007825032230
         H            0.590434535892    -0.072839650597     1.433069567157     1.007825032230
         H            1.764629535892     0.331641349403    -1.444410432843     1.007825032230

  Basis Set: AUG-CC-PVTZ
    Blend: AUG-CC-PVTZ
  Basis Set: (AUG-CC-PVTZ AUX)
    Blend: AUG-CC-PVTZ-JKFIT
	 Reference Energy          =    -268.9278848034724092 [Eh]
	 Singles Energy            =      -0.0000000000000000 [Eh]
	 Same-Spin Energy          =      -0.2668648403647416 [Eh]
	 Opposite-Spin Energy      =      -0.9083825704954670 [Eh]
	 Correlation Energy        =      -1.1752474108602087 [Eh]
	 Total Energy              =    -270.1031322143326179 [Eh]

	 ================> DF-SCS-MP2 Energies <==================
	-----------------------------------------------------------
	 SCS Same-Spin Scale       =       0.3333333333333333 [-]
	 SCS Opposite-Spin Scale   =       1.2000000000000000 [-]
	 SCS Same-Spin Energy      =      -0.0889549467882472 [Eh]
	 SCS Opposite-Spin Energy  =      -1.0900590845945604 [Eh]
	 SCS Correlation Energy    =      -1.1790140313828075 [Eh]
	 SCS Total Energy          =    -270.1068988348552011 [Eh]
	-----------------------------------------------------------

  Dipole Moment: [D]
     X:    -3.2768      Y:     0.3149      Z:    -0.5328     Total:     3.3347

*** Psi4 exiting successfully. Buy a developer a beer!
