                               Psi4 1.3.2 release

  ==> Input File <==

--------------------------------------------------------------------------
#psi4
#
memory 32 gb

molecule  {
0 1
  O        2.9378530    -0.0680150     0.1840270
  C       -1.9436970     0.3335570     0.3437070
  C       -2.8302210    -0.7631530    -0.2519080
  C       -0.5859380     0.3423530    -0.2788660
  C        0.5697440     0.1186190     0.3690800
  C        1.7598971     0.1455649    -0.3903715
  H       -1.8508390     0.1975730     1.4263050
  H       -2.4196650     1.3090330     0.1828770
  H       -2.9395310    -0.6342920    -1.3325490
  H       -3.8284810    -0.7404210     0.1934590
  H       -2.3959700    -1.7495570    -0.0705440
  H       -0.5478170     0.5276110    -1.3553930
  H        0.6030990    -0.0751360     1.4392450
  H        1.7772940     0.3293450    -1.4382350
units angstrom
no_reorient  #important for SAPT in psi4, default
symmetry c1  #important for SAPT in psi4, default
}

set PROPERTIES_ORIGIN ["COM"]
properties('MP2/aug-cc-pvtz', properties = ['dipole'])
--------------------------------------------------------------------------

    Molecular point group: c1
  Charge       = 0
  Multiplicity = 1
  Basis Set: AUG-CC-PVTZ
    Blend: AUG-CC-PVTZ
  Basis Set: (AUG-CC-PVTZ AUX)
    Blend: AUG-CC-PVTZ-JKFIT

    Orbital Energies [Eh]
    ---------------------

    Doubly Occupied:

       1A    -20.539039     2A    -11.333344     3A    -11.283192
       4A    -11.255015     5A    -11.248148     6A    -11.239871
       7A     -1.308969     8A     -1.127197     9A     -1.043609
      10A     -0.915472    11A     -0.825678    12A     -0.792813
      13A     -0.685352    14A     -0.646314    15A     -0.621323
      16A     -0.582700    17A     -0.562485    18A     -0.547365
      19A     -0.517905    20A     -0.512370    21A     -0.497904
      22A     -0.427383    23A     -0.376587

  @DF-RHF Final Energy:  -268.91080645098623

   => Energetics <=

    Nuclear Repulsion Energy =            209.7186650553452978
    One-Electron Energy =                -779.4788708505932391
    Two-Electron Energy =                 300.8493993442616556
    Total Energy =                       -268.9108064509862288
  Basis Set: (AUG-CC-PVTZ AUX)
    Blend: AUG-CC-PVTZ-RI
    Molecular point group: c1

    Geometry (in Angstrom), charge = 0, multiplicity = 1:

       Center              X                  Y                   Z               Mass
    ------------   -----------------  -----------------  -----------------  -----------------
         O            2.950517735823    -0.070311191794     0.190202681766    15.994914619570
         C           -1.931032264177     0.331260808206     0.349882681766    12.000000000000
         C           -2.817556264177    -0.765449191794    -0.245732318234    12.000000000000
         C           -0.573273264177     0.340056808206    -0.272690318234    12.000000000000
         C            0.582408735823     0.116322808206     0.375255681766    12.000000000000
         C            1.772561835823     0.143268708206    -0.384195818234    12.000000000000
         H           -1.838174264177     0.195276808206     1.432480681766     1.007825032230
         H           -2.407000264177     1.306736808206     0.189052681766     1.007825032230
         H           -2.926866264177    -0.636588191794    -1.326373318234     1.007825032230
         H           -3.815816264177    -0.742717191794     0.199634681766     1.007825032230
         H           -2.383305264177    -1.751853191794    -0.064368318234     1.007825032230
         H           -0.535152264177     0.525314808206    -1.349217318234     1.007825032230
         H            0.615763735823    -0.077432191794     1.445420681766     1.007825032230
         H            1.789958735823     0.327048808206    -1.432059318234     1.007825032230

  Basis Set: AUG-CC-PVTZ
    Blend: AUG-CC-PVTZ
  Basis Set: (AUG-CC-PVTZ AUX)
    Blend: AUG-CC-PVTZ-JKFIT
	 Reference Energy          =    -268.9108064509862288 [Eh]
	 Singles Energy            =      -0.0000000000000000 [Eh]
	 Same-Spin Energy          =      -0.2727399729706947 [Eh]
	 Opposite-Spin Energy      =      -0.9207462158597882 [Eh]
	 Correlation Energy        =      -1.1934861888304829 [Eh]
	 Total Energy              =    -270.1042926398167197 [Eh]

	 ================> DF-SCS-MP2 Energies <==================
	-----------------------------------------------------------
	 SCS Same-Spin Scale       =       0.3333333333333333 [-]
	 SCS Opposite-Spin Scale   =       1.2000000000000000 [-]
	 SCS Same-Spin Energy      =      -0.0909133243235649 [Eh]
	 SCS Opposite-Spin Energy  =      -1.1048954590317459 [Eh]
	 SCS Correlation Energy    =      -1.1958087833553108 [Eh]
	 SCS Total Energy          =    -270.1066152343415183 [Eh]
	-----------------------------------------------------------

  Dipole Moment: [D]
     X:    -4.4333      Y:     0.4621      Z:    -0.8862     Total:     4.5446

*** Psi4 exiting successfully. Buy a developer a beer!
