                               Psi4 1.4a3.dev225

  ==> Input File <==

--------------------------------------------------------------------------
#psi4
#
memory 32 gb

molecule  {
0 1
  O        3.0568210     0.0670890     0.3064100
  C       -1.7873110     0.5014740    -0.3308760
  C       -2.7589810    -0.3710180     0.4711220
  C       -0.4385240    -0.1343210    -0.4437030
  C        0.7079740     0.3780980     0.0389610
  C        1.9769390    -0.3447360    -0.1093610
  H       -1.6911510     1.4872370     0.1370160
  H       -2.1942130     0.6629350    -1.3374030
  H       -2.8765390    -1.3546870     0.0071490
  H       -3.7457810     0.0968040     0.5260030
  H       -2.3920550    -0.5186010     1.4901810
  H       -0.4022657    -1.0872656    -0.9359169
  H        0.7410060     1.3377710     0.5508970
  H        1.9051690    -1.3201300    -0.6368870
units angstrom
no_reorient  #important for SAPT in psi4, default
symmetry c1  #important for SAPT in psi4, default
}

set PROPERTIES_ORIGIN ["COM"]
properties('MP2/aug-cc-pvtz', properties = ['dipole'])
--------------------------------------------------------------------------

    Molecular point group: c1
  Charge       = 0
  Multiplicity = 1
  Basis Set: AUG-CC-PVTZ
    Blend: AUG-CC-PVTZ
  Basis Set: (AUG-CC-PVTZ AUX)
    Blend: AUG-CC-PVTZ-JKFIT

    Orbital Energies [Eh]
    ---------------------

    Doubly Occupied:

       1A    -20.549195     2A    -11.331980     3A    -11.272520
       4A    -11.250632     5A    -11.245440     6A    -11.235884
       7A     -1.372902     8A     -1.116576     9A     -1.031570
      10A     -0.905966    11A     -0.818070    12A     -0.783711
      13A     -0.680253    14A     -0.648914    15A     -0.616387
      16A     -0.606558    17A     -0.559822    18A     -0.546653
      19A     -0.526422    20A     -0.516831    21A     -0.507443
      22A     -0.424004    23A     -0.380560

  @DF-RHF Final Energy:  -268.93600526120275

   => Energetics <=

    Nuclear Repulsion Energy =            209.9744133053190751
    One-Electron Energy =                -779.9642519626764852
    Two-Electron Energy =                 301.0538333961546300
    Total Energy =                       -268.9360052612027516
  Basis Set: (AUG-CC-PVTZ AUX)
    Blend: AUG-CC-PVTZ-RI
    Molecular point group: c1

    Geometry (in Angstrom), charge = 0, multiplicity = 1:

       Center              X                  Y                   Z               Mass
    ------------   -----------------  -----------------  -----------------  -----------------
         O            2.931245755397     0.058456047888     0.303861744637    15.994914619570
         C           -1.912886244603     0.492841047888    -0.333424255363    12.000000000000
         C           -2.884556244603    -0.379650952112     0.468573744637    12.000000000000
         C           -0.564099244603    -0.142953952112    -0.446251255363    12.000000000000
         C            0.582398755397     0.369465047888     0.036412744637    12.000000000000
         C            1.851363755397    -0.353368952112    -0.111909255363    12.000000000000
         H           -1.816726244603     1.478604047888     0.134467744637     1.007825032230
         H           -2.319788244603     0.654302047888    -1.339951255363     1.007825032230
         H           -3.002114244603    -1.363319952112     0.004600744637     1.007825032230
         H           -3.871356244603     0.088171047888     0.523454744637     1.007825032230
         H           -2.517630244603    -0.527233952112     1.487632744637     1.007825032230
         H           -0.527840944603    -1.095898552112    -0.938465155363     1.007825032230
         H            0.615430755397     1.329138047888     0.548348744637     1.007825032230
         H            1.779593755397    -1.328762952112    -0.639435255363     1.007825032230

  Basis Set: AUG-CC-PVTZ
    Blend: AUG-CC-PVTZ
  Basis Set: (AUG-CC-PVTZ AUX)
    Blend: AUG-CC-PVTZ-JKFIT
	 Reference Energy          =    -268.9360052612027516 [Eh]
	 Singles Energy            =      -0.0000000000000000 [Eh]
	 Same-Spin Energy          =      -0.2693443634408118 [Eh]
	 Opposite-Spin Energy      =      -0.9138256765723933 [Eh]
	 Correlation Energy        =      -1.1831700400132050 [Eh]
	 Total Energy              =    -270.1191753012159324 [Eh]

	 ================> DF-SCS-MP2 Energies <==================
	-----------------------------------------------------------
	 SCS Same-Spin Scale       =       0.3333333333333333 [-]
	 SCS Opposite-Spin Scale   =       1.2000000000000000 [-]
	 SCS Same-Spin Energy      =      -0.0897814544802706 [Eh]
	 SCS Opposite-Spin Energy  =      -1.0965908118868719 [Eh]
	 SCS Correlation Energy    =      -1.1863722663671425 [Eh]
	 SCS Total Energy          =    -270.1223775275698813 [Eh]
	-----------------------------------------------------------

  Dipole Moment: [D]
     X:    -3.9137      Y:    -0.4912      Z:    -0.8694     Total:     4.0391

*** Psi4 exiting successfully. Buy a developer a beer!
