                               Psi4 1.3.2 release

  ==> Input File <==

--------------------------------------------------------------------------
#psi4
#
memory 32 gb

molecule  {
0 1
  O        2.9378530    -0.0680150     0.1840270
  C       -1.9436970     0.3335570     0.3437070
  C       -2.8302210    -0.7631530    -0.2519080
  C       -0.5739942     0.3448021    -0.2988989
  C        0.5697440     0.1186190     0.3690800
  C        1.8486100     0.1294800    -0.3471130
  H       -1.8508390     0.1975730     1.4263050
  H       -2.4196650     1.3090330     0.1828770
  H       -2.9395310    -0.6342920    -1.3325490
  H       -3.8284810    -0.7404210     0.1934590
  H       -2.3959700    -1.7495570    -0.0705440
  H       -0.5478170     0.5276110    -1.3553930
  H        0.6219942    -0.0767209     1.4382006
  H        1.7772940     0.3293450    -1.4382350
units angstrom
no_reorient  #important for SAPT in psi4, default
symmetry c1  #important for SAPT in psi4, default
}

set PROPERTIES_ORIGIN ["COM"]
properties('MP2/aug-cc-pvtz', properties = ['dipole'])
--------------------------------------------------------------------------

    Molecular point group: c1
  Charge       = 0
  Multiplicity = 1
  Basis Set: AUG-CC-PVTZ
    Blend: AUG-CC-PVTZ
  Basis Set: (AUG-CC-PVTZ AUX)
    Blend: AUG-CC-PVTZ-JKFIT

    Orbital Energies [Eh]
    ---------------------

    Doubly Occupied:

       1A    -20.548526     2A    -11.330667     3A    -11.273845
       4A    -11.251090     5A    -11.245600     6A    -11.235080
       7A     -1.372746     8A     -1.114942     9A     -1.031745
      10A     -0.903990    11A     -0.817267    12A     -0.784420
      13A     -0.680263    14A     -0.647726    15A     -0.615731
      16A     -0.605536    17A     -0.563370    18A     -0.545147
      19A     -0.526067    20A     -0.513720    21A     -0.508292
      22A     -0.422905    23A     -0.381623

  @DF-RHF Final Energy:  -268.93574134798428

   => Energetics <=

    Nuclear Repulsion Energy =            209.9538503752810925
    One-Electron Energy =                -779.9385879606536491
    Two-Electron Energy =                 301.0489962373883372
    Total Energy =                       -268.9357413479842762
  Basis Set: (AUG-CC-PVTZ AUX)
    Blend: AUG-CC-PVTZ-RI
    Molecular point group: c1

    Geometry (in Angstrom), charge = 0, multiplicity = 1:

       Center              X                  Y                   Z               Mass
    ------------   -----------------  -----------------  -----------------  -----------------
         O            2.935921498266    -0.068345550743     0.186899531204    15.994914619570
         C           -1.945628501734     0.333226449257     0.346579531204    12.000000000000
         C           -2.832152501734    -0.763483550743    -0.249035468796    12.000000000000
         C           -0.575925701734     0.344471549257    -0.296026368796    12.000000000000
         C            0.567812498266     0.118288449257     0.371952531204    12.000000000000
         C            1.846678498266     0.129149449257    -0.344240468796    12.000000000000
         H           -1.852770501734     0.197242449257     1.429177531204     1.007825032230
         H           -2.421596501734     1.308702449257     0.185749531204     1.007825032230
         H           -2.941462501734    -0.634622550743    -1.329676468796     1.007825032230
         H           -3.830412501734    -0.740751550743     0.196331531204     1.007825032230
         H           -2.397901501734    -1.749887550743    -0.067671468796     1.007825032230
         H           -0.549748501734     0.527280449257    -1.352520468796     1.007825032230
         H            0.620062698266    -0.077051450743     1.441073131204     1.007825032230
         H            1.775362498266     0.329014449257    -1.435362468796     1.007825032230

  Basis Set: AUG-CC-PVTZ
    Blend: AUG-CC-PVTZ
  Basis Set: (AUG-CC-PVTZ AUX)
    Blend: AUG-CC-PVTZ-JKFIT
	 Reference Energy          =    -268.9357413479842762 [Eh]
	 Singles Energy            =      -0.0000000000000000 [Eh]
	 Same-Spin Energy          =      -0.2692037672189138 [Eh]
	 Opposite-Spin Energy      =      -0.9137004226025250 [Eh]
	 Correlation Energy        =      -1.1829041898214387 [Eh]
	 Total Energy              =    -270.1186455378057190 [Eh]

	 ================> DF-SCS-MP2 Energies <==================
	-----------------------------------------------------------
	 SCS Same-Spin Scale       =       0.3333333333333333 [-]
	 SCS Opposite-Spin Scale   =       1.2000000000000000 [-]
	 SCS Same-Spin Energy      =      -0.0897345890729713 [Eh]
	 SCS Opposite-Spin Energy  =      -1.0964405071230301 [Eh]
	 SCS Correlation Energy    =      -1.1861750961960014 [Eh]
	 SCS Total Energy          =    -270.1219164441802718 [Eh]
	-----------------------------------------------------------

  Dipole Moment: [D]
     X:    -3.9217      Y:     0.4090      Z:    -0.7769     Total:     4.0188

*** Psi4 exiting successfully. Buy a developer a beer!
