                               Psi4 1.4a3.dev225

  ==> Input File <==

--------------------------------------------------------------------------
#psi4
#
memory 32 gb

molecule  {
0 1
  O        3.0568210     0.0670890     0.3064100
  C       -1.7873110     0.5014740    -0.3308760
  C       -2.7589810    -0.3710180     0.4711220
  C       -0.4385240    -0.1343210    -0.4437030
  C        0.7079740     0.3780980     0.0389610
  C        2.0201625    -0.3693572    -0.1144131
  H       -1.6911510     1.4872370     0.1370160
  H       -2.1942130     0.6629350    -1.3374030
  H       -2.8765390    -1.3546870     0.0071490
  H       -3.7457810     0.0968040     0.5260030
  H       -2.3920550    -0.5186010     1.4901810
  H       -0.4015900    -1.1050250    -0.9450900
  H        0.7410060     1.3377710     0.5508970
  H        1.9051690    -1.3201300    -0.6368870
units angstrom
no_reorient  #important for SAPT in psi4, default
symmetry c1  #important for SAPT in psi4, default
}

set PROPERTIES_ORIGIN ["COM"]
properties('MP2/aug-cc-pvtz', properties = ['dipole'])
--------------------------------------------------------------------------

    Molecular point group: c1
  Charge       = 0
  Multiplicity = 1
  Basis Set: AUG-CC-PVTZ
    Blend: AUG-CC-PVTZ
  Basis Set: (AUG-CC-PVTZ AUX)
    Blend: AUG-CC-PVTZ-JKFIT

    Orbital Energies [Eh]
    ---------------------

    Doubly Occupied:

       1A    -20.553853     2A    -11.332507     3A    -11.268382
       4A    -11.247620     5A    -11.244908     6A    -11.233216
       7A     -1.394235     8A     -1.109696     9A     -1.023829
      10A     -0.899083    11A     -0.817039    12A     -0.780732
      13A     -0.678467    14A     -0.651652    15A     -0.614590
      16A     -0.612404    17A     -0.556269    18A     -0.547010
      19A     -0.534108    20A     -0.515425    21A     -0.503892
      22A     -0.421422    23A     -0.378622

  @DF-RHF Final Energy:  -268.93643840452455

   => Energetics <=

    Nuclear Repulsion Energy =            209.6726743958903683
    One-Electron Energy =                -779.3803017644031570
    Two-Electron Energy =                 300.7711889639882656
    Total Energy =                       -268.9364384045245515
  Basis Set: (AUG-CC-PVTZ AUX)
    Blend: AUG-CC-PVTZ-RI
    Molecular point group: c1

    Geometry (in Angstrom), charge = 0, multiplicity = 1:

       Center              X                  Y                   Z               Mass
    ------------   -----------------  -----------------  -----------------  -----------------
         O            2.925067093226     0.062183885528     0.304692962165    15.994914619570
         C           -1.919064906774     0.496568885528    -0.332593037835    12.000000000000
         C           -2.890734906774    -0.375923114472     0.469404962165    12.000000000000
         C           -0.570277906774    -0.139226114472    -0.445420037835    12.000000000000
         C            0.576220093226     0.373192885528     0.037243962165    12.000000000000
         C            1.888408593226    -0.374262314472    -0.116130137835    12.000000000000
         H           -1.822904906774     1.482331885528     0.135298962165     1.007825032230
         H           -2.325966906774     0.658029885528    -1.339120037835     1.007825032230
         H           -3.008292906774    -1.359592114472     0.005431962165     1.007825032230
         H           -3.877534906774     0.091898885528     0.524285962165     1.007825032230
         H           -2.523808906774    -0.523506114472     1.488463962165     1.007825032230
         H           -0.533343906774    -1.109930114472    -0.946807037835     1.007825032230
         H            0.609252093226     1.332865885528     0.549179962165     1.007825032230
         H            1.773415093226    -1.325035114472    -0.638604037835     1.007825032230

  Basis Set: AUG-CC-PVTZ
    Blend: AUG-CC-PVTZ
  Basis Set: (AUG-CC-PVTZ AUX)
    Blend: AUG-CC-PVTZ-JKFIT
	 Reference Energy          =    -268.9364384045245515 [Eh]
	 Singles Energy            =      -0.0000000000000000 [Eh]
	 Same-Spin Energy          =      -0.2683109970095530 [Eh]
	 Opposite-Spin Energy      =      -0.9121696697911233 [Eh]
	 Correlation Energy        =      -1.1804806668006762 [Eh]
	 Total Energy              =    -270.1169190713252419 [Eh]

	 ================> DF-SCS-MP2 Energies <==================
	-----------------------------------------------------------
	 SCS Same-Spin Scale       =       0.3333333333333333 [-]
	 SCS Opposite-Spin Scale   =       1.2000000000000000 [-]
	 SCS Same-Spin Energy      =      -0.0894369990031843 [Eh]
	 SCS Opposite-Spin Energy  =      -1.0946036037493481 [Eh]
	 SCS Correlation Energy    =      -1.1840406027525323 [Eh]
	 SCS Total Energy          =    -270.1204790072770834 [Eh]
	-----------------------------------------------------------

  Dipole Moment: [D]
     X:    -3.5656      Y:    -0.5576      Z:    -0.8530     Total:     3.7083

*** Psi4 exiting successfully. Buy a developer a beer!
