                               Psi4 1.4a3.dev225

  ==> Input File <==

--------------------------------------------------------------------------
#psi4
#
memory 32 gb

molecule  {
0 1
  O        3.0568210     0.0670890     0.3064100
  C       -1.7873110     0.5014740    -0.3308760
  C       -2.7589810    -0.3710180     0.4711220
  C       -0.3934258    -0.1555795    -0.4474755
  C        0.7079740     0.3780980     0.0389610
  C        1.9769390    -0.3447360    -0.1093610
  H       -1.6911510     1.4872370     0.1370160
  H       -2.1942130     0.6629350    -1.3374030
  H       -2.8765390    -1.3546870     0.0071490
  H       -3.7457810     0.0968040     0.5260030
  H       -2.3920550    -0.5186010     1.4901810
  H       -0.4015900    -1.1050250    -0.9450900
  H        0.7410060     1.3377710     0.5508970
  H        1.9051690    -1.3201300    -0.6368870
units angstrom
no_reorient  #important for SAPT in psi4, default
symmetry c1  #important for SAPT in psi4, default
}

set PROPERTIES_ORIGIN ["COM"]
properties('MP2/aug-cc-pvtz', properties = ['dipole'])
--------------------------------------------------------------------------

    Molecular point group: c1
  Charge       = 0
  Multiplicity = 1
  Basis Set: AUG-CC-PVTZ
    Blend: AUG-CC-PVTZ
  Basis Set: (AUG-CC-PVTZ AUX)
    Blend: AUG-CC-PVTZ-JKFIT

    Orbital Energies [Eh]
    ---------------------

    Doubly Occupied:

       1A    -20.549377     2A    -11.331443     3A    -11.270087
       4A    -11.251915     5A    -11.242988     6A    -11.234321
       7A     -1.373155     8A     -1.115123     9A     -1.032366
      10A     -0.899903    11A     -0.817658    12A     -0.785011
      13A     -0.680949    14A     -0.646833    15A     -0.615374
      16A     -0.604391    17A     -0.566097    18A     -0.543158
      19A     -0.526040    20A     -0.510042    21A     -0.504270
      22A     -0.422985    23A     -0.388366

  @DF-RHF Final Energy:  -268.93475524795957

   => Energetics <=

    Nuclear Repulsion Energy =            209.8745269053780760
    One-Electron Energy =                -779.7948618479815650
    Two-Electron Energy =                 300.9855796946439455
    Total Energy =                       -268.9347552479595720
  Basis Set: (AUG-CC-PVTZ AUX)
    Blend: AUG-CC-PVTZ-RI
    Molecular point group: c1

    Geometry (in Angstrom), charge = 0, multiplicity = 1:

       Center              X                  Y                   Z               Mass
    ------------   -----------------  -----------------  -----------------  -----------------
         O            2.924799462187     0.061703828509     0.304510287243    15.994914619570
         C           -1.919332537813     0.496088828509    -0.332775712757    12.000000000000
         C           -2.891002537813    -0.376403171491     0.469222287243    12.000000000000
         C           -0.525447337813    -0.160964671491    -0.449375212757    12.000000000000
         C            0.575952462187     0.372712828509     0.037061287243    12.000000000000
         C            1.844917462187    -0.350121171491    -0.111260712757    12.000000000000
         H           -1.823172537813     1.481851828509     0.135116287243     1.007825032230
         H           -2.326234537813     0.657549828509    -1.339302712757     1.007825032230
         H           -3.008560537813    -1.360072171491     0.005249287243     1.007825032230
         H           -3.877802537813     0.091418828509     0.524103287243     1.007825032230
         H           -2.524076537813    -0.523986171491     1.488281287243     1.007825032230
         H           -0.533611537813    -1.110410171491    -0.946989712757     1.007825032230
         H            0.608984462187     1.332385828509     0.548997287243     1.007825032230
         H            1.773147462187    -1.325515171491    -0.638786712757     1.007825032230

  Basis Set: AUG-CC-PVTZ
    Blend: AUG-CC-PVTZ
  Basis Set: (AUG-CC-PVTZ AUX)
    Blend: AUG-CC-PVTZ-JKFIT
	 Reference Energy          =    -268.9347552479595720 [Eh]
	 Singles Energy            =      -0.0000000000000000 [Eh]
	 Same-Spin Energy          =      -0.2687210190649342 [Eh]
	 Opposite-Spin Energy      =      -0.9130642386732543 [Eh]
	 Correlation Energy        =      -1.1817852577381884 [Eh]
	 Total Energy              =    -270.1165405056977420 [Eh]

	 ================> DF-SCS-MP2 Energies <==================
	-----------------------------------------------------------
	 SCS Same-Spin Scale       =       0.3333333333333333 [-]
	 SCS Opposite-Spin Scale   =       1.2000000000000000 [-]
	 SCS Same-Spin Energy      =      -0.0895736730216447 [Eh]
	 SCS Opposite-Spin Energy  =      -1.0956770864079051 [Eh]
	 SCS Correlation Energy    =      -1.1852507594295498 [Eh]
	 SCS Total Energy          =    -270.1200060073891223 [Eh]
	-----------------------------------------------------------

  Dipole Moment: [D]
     X:    -3.8262      Y:    -0.4985      Z:    -0.8631     Total:     3.9539

*** Psi4 exiting successfully. Buy a developer a beer!
