                               Psi4 1.3.2 release

  ==> Input File <==

--------------------------------------------------------------------------
#psi4
#
memory 32 gb

molecule  {
0 1
  O        2.9378530    -0.0680150     0.1840270
  C       -1.9436970     0.3335570     0.3437070
  C       -2.8302210    -0.7631530    -0.2519080
  C       -0.5859380     0.3423530    -0.2788660
  C        0.5697440     0.1186190     0.3690800
  C        1.8100049     0.1445162    -0.4117085
  H       -1.8508390     0.1975730     1.4263050
  H       -2.4196650     1.3090330     0.1828770
  H       -2.9395310    -0.6342920    -1.3325490
  H       -3.8284810    -0.7404210     0.1934590
  H       -2.3959700    -1.7495570    -0.0705440
  H       -0.5478170     0.5276110    -1.3553930
  H        0.5463634    -0.0701611     1.4403979
  H        1.7772940     0.3293450    -1.4382350
units angstrom
no_reorient  #important for SAPT in psi4, default
symmetry c1  #important for SAPT in psi4, default
}

set PROPERTIES_ORIGIN ["COM"]
properties('MP2/aug-cc-pvtz', properties = ['dipole'])
--------------------------------------------------------------------------

    Molecular point group: c1
  Charge       = 0
  Multiplicity = 1
  Basis Set: AUG-CC-PVTZ
    Blend: AUG-CC-PVTZ
  Basis Set: (AUG-CC-PVTZ AUX)
    Blend: AUG-CC-PVTZ-JKFIT

    Orbital Energies [Eh]
    ---------------------

    Doubly Occupied:

       1A    -20.545673     2A    -11.335688     3A    -11.274838
       4A    -11.251428     5A    -11.248510     6A    -11.236779
       7A     -1.331756     8A     -1.119677     9A     -1.034799
      10A     -0.908713    11A     -0.827901    12A     -0.789113
      13A     -0.682411    14A     -0.643616    15A     -0.619402
      16A     -0.592861    17A     -0.560257    18A     -0.545588
      19A     -0.516709    20A     -0.509085    21A     -0.504379
      22A     -0.429807    23A     -0.377690

  @DF-RHF Final Energy:  -268.91983423339951

   => Energetics <=

    Nuclear Repulsion Energy =            209.4425646330928146
    One-Electron Energy =                -778.9514341766877124
    Two-Electron Energy =                 300.5890353101953565
    Total Energy =                       -268.9198342333995129
  Basis Set: (AUG-CC-PVTZ AUX)
    Blend: AUG-CC-PVTZ-RI
    Molecular point group: c1

    Geometry (in Angstrom), charge = 0, multiplicity = 1:

       Center              X                  Y                   Z               Mass
    ------------   -----------------  -----------------  -----------------  -----------------
         O            2.944044619851    -0.070221127613     0.193234916051    15.994914619570
         C           -1.937505380149     0.331350872387     0.352914916051    12.000000000000
         C           -2.824029380149    -0.765359127613    -0.242700083949    12.000000000000
         C           -0.579746380149     0.340146872387    -0.269658083949    12.000000000000
         C            0.575935619851     0.116412872387     0.378287916051    12.000000000000
         C            1.816196519851     0.142310072387    -0.402500583949    12.000000000000
         H           -1.844647380149     0.195366872387     1.435512916051     1.007825032230
         H           -2.413473380149     1.306826872387     0.192084916051     1.007825032230
         H           -2.933339380149    -0.636498127613    -1.323341083949     1.007825032230
         H           -3.822289380149    -0.742627127613     0.202666916051     1.007825032230
         H           -2.389778380149    -1.751763127613    -0.061336083949     1.007825032230
         H           -0.541625380149     0.525404872387    -1.346185083949     1.007825032230
         H            0.552555019851    -0.072367227613     1.449605816051     1.007825032230
         H            1.783485619851     0.327138872387    -1.429027083949     1.007825032230

  Basis Set: AUG-CC-PVTZ
    Blend: AUG-CC-PVTZ
  Basis Set: (AUG-CC-PVTZ AUX)
    Blend: AUG-CC-PVTZ-JKFIT
	 Reference Energy          =    -268.9198342333995129 [Eh]
	 Singles Energy            =      -0.0000000000000000 [Eh]
	 Same-Spin Energy          =      -0.2711707441939549 [Eh]
	 Opposite-Spin Energy      =      -0.9181886129086362 [Eh]
	 Correlation Energy        =      -1.1893593571025911 [Eh]
	 Total Energy              =    -270.1091935905021160 [Eh]

	 ================> DF-SCS-MP2 Energies <==================
	-----------------------------------------------------------
	 SCS Same-Spin Scale       =       0.3333333333333333 [-]
	 SCS Opposite-Spin Scale   =       1.2000000000000000 [-]
	 SCS Same-Spin Energy      =      -0.0903902480646516 [Eh]
	 SCS Opposite-Spin Energy  =      -1.1018263354903635 [Eh]
	 SCS Correlation Energy    =      -1.1922165835550151 [Eh]
	 SCS Total Energy          =    -270.1120508169545360 [Eh]
	-----------------------------------------------------------

  Dipole Moment: [D]
     X:    -4.1237      Y:     0.4557      Z:    -0.9521     Total:     4.2566

*** Psi4 exiting successfully. Buy a developer a beer!
