                               Psi4 1.3.2 release

  ==> Input File <==

--------------------------------------------------------------------------
#psi4
#
memory 32 gb

molecule  {
0 1
  O        2.9378530    -0.0680150     0.1840270
  C       -1.9436970     0.3335570     0.3437070
  C       -2.8302210    -0.7631530    -0.2519080
  C       -0.5913858     0.3440437    -0.2905867
  C        0.5697440     0.1186190     0.3690800
  C        1.8486100     0.1294800    -0.3471130
  H       -1.8603527     0.1979414     1.4271251
  H       -2.4196650     1.3090330     0.1828770
  H       -2.9395310    -0.6342920    -1.3325490
  H       -3.8284810    -0.7404210     0.1934590
  H       -2.3959700    -1.7495570    -0.0705440
  H       -0.5478170     0.5276110    -1.3553930
  H        0.6030990    -0.0751360     1.4392450
  H        1.7772940     0.3293450    -1.4382350
units angstrom
no_reorient  #important for SAPT in psi4, default
symmetry c1  #important for SAPT in psi4, default
}

set PROPERTIES_ORIGIN ["COM"]
properties('MP2/aug-cc-pvtz', properties = ['dipole'])
--------------------------------------------------------------------------

    Molecular point group: c1
  Charge       = 0
  Multiplicity = 1
  Basis Set: AUG-CC-PVTZ
    Blend: AUG-CC-PVTZ
  Basis Set: (AUG-CC-PVTZ AUX)
    Blend: AUG-CC-PVTZ-JKFIT

    Orbital Energies [Eh]
    ---------------------

    Doubly Occupied:

       1A    -20.548471     2A    -11.331202     3A    -11.275493
       4A    -11.250648     5A    -11.246412     6A    -11.235644
       7A     -1.372658     8A     -1.115821     9A     -1.031289
      10A     -0.905969    11A     -0.817264    12A     -0.783133
      13A     -0.679419    14A     -0.648942    15A     -0.616361
      16A     -0.606443    17A     -0.559932    18A     -0.546538
      19A     -0.526160    20A     -0.517231    21A     -0.508085
      22A     -0.423490    23A     -0.378684

  @DF-RHF Final Energy:  -268.93546300040549

   => Energetics <=

    Nuclear Repulsion Energy =            209.9627741189972880
    One-Electron Energy =                -779.9458944777438774
    Two-Electron Energy =                 301.0476573583411550
    Total Energy =                       -268.9354630004054911
  Basis Set: (AUG-CC-PVTZ AUX)
    Blend: AUG-CC-PVTZ-RI
    Molecular point group: c1

    Geometry (in Angstrom), charge = 0, multiplicity = 1:

       Center              X                  Y                   Z               Mass
    ------------   -----------------  -----------------  -----------------  -----------------
         O            2.938744926973    -0.068260701514     0.185690531748    15.994914619570
         C           -1.942805073027     0.333311298486     0.345370531748    12.000000000000
         C           -2.829329073027    -0.763398701514    -0.250244468252    12.000000000000
         C           -0.590493873027     0.343797998486    -0.288923168252    12.000000000000
         C            0.570635926973     0.118373298486     0.370743531748    12.000000000000
         C            1.849501926973     0.129234298486    -0.345449468252    12.000000000000
         H           -1.859460773027     0.197695698486     1.428788631748     1.007825032230
         H           -2.418773073027     1.308787298486     0.184540531748     1.007825032230
         H           -2.938639073027    -0.634537701514    -1.330885468252     1.007825032230
         H           -3.827589073027    -0.740666701514     0.195122531748     1.007825032230
         H           -2.395078073027    -1.749802701514    -0.068880468252     1.007825032230
         H           -0.546925073027     0.527365298486    -1.353729468252     1.007825032230
         H            0.603990926973    -0.075381701514     1.440908531748     1.007825032230
         H            1.778185926973     0.329099298486    -1.436571468252     1.007825032230

  Basis Set: AUG-CC-PVTZ
    Blend: AUG-CC-PVTZ
  Basis Set: (AUG-CC-PVTZ AUX)
    Blend: AUG-CC-PVTZ-JKFIT
	 Reference Energy          =    -268.9354630004054911 [Eh]
	 Singles Energy            =      -0.0000000000000000 [Eh]
	 Same-Spin Energy          =      -0.2694953512780465 [Eh]
	 Opposite-Spin Energy      =      -0.9140866524801960 [Eh]
	 Correlation Energy        =      -1.1835820037582425 [Eh]
	 Total Energy              =    -270.1190450041637519 [Eh]

	 ================> DF-SCS-MP2 Energies <==================
	-----------------------------------------------------------
	 SCS Same-Spin Scale       =       0.3333333333333333 [-]
	 SCS Opposite-Spin Scale   =       1.2000000000000000 [-]
	 SCS Same-Spin Energy      =      -0.0898317837593488 [Eh]
	 SCS Opposite-Spin Energy  =      -1.0969039829762353 [Eh]
	 SCS Correlation Energy    =      -1.1867357667355840 [Eh]
	 SCS Total Energy          =    -270.1221987671410716 [Eh]
	-----------------------------------------------------------

  Dipole Moment: [D]
     X:    -3.9602      Y:     0.4110      Z:    -0.7723     Total:     4.0557

*** Psi4 exiting successfully. Buy a developer a beer!
