                               Psi4 1.3.2 release

  ==> Input File <==

--------------------------------------------------------------------------
#psi4
#
memory 32 gb

molecule  {
0 1
  O        2.9378530    -0.0680150     0.1840270
  C       -1.9436970     0.3335570     0.3437070
  C       -2.8302210    -0.7631530    -0.2519080
  C       -0.5805936     0.3406616    -0.2670978
  C        0.5697440     0.1186190     0.3690800
  C        1.8486100     0.1294800    -0.3471130
  H       -1.8413324     0.1972150     1.4254024
  H       -2.4196650     1.3090330     0.1828770
  H       -2.9395310    -0.6342920    -1.3325490
  H       -3.8284810    -0.7404210     0.1934590
  H       -2.3959700    -1.7495570    -0.0705440
  H       -0.5478170     0.5276110    -1.3553930
  H        0.6030990    -0.0751360     1.4392450
  H        1.7772940     0.3293450    -1.4382350
units angstrom
no_reorient  #important for SAPT in psi4, default
symmetry c1  #important for SAPT in psi4, default
}

set PROPERTIES_ORIGIN ["COM"]
properties('MP2/aug-cc-pvtz', properties = ['dipole'])
--------------------------------------------------------------------------

    Molecular point group: c1
  Charge       = 0
  Multiplicity = 1
  Basis Set: AUG-CC-PVTZ
    Blend: AUG-CC-PVTZ
  Basis Set: (AUG-CC-PVTZ AUX)
    Blend: AUG-CC-PVTZ-JKFIT

    Orbital Energies [Eh]
    ---------------------

    Doubly Occupied:

       1A    -20.549573     2A    -11.332039     3A    -11.273398
       4A    -11.250382     5A    -11.243717     6A    -11.235786
       7A     -1.373558     8A     -1.118005     9A     -1.033102
      10A     -0.905897    11A     -0.818073    12A     -0.780221
      13A     -0.679714    14A     -0.649689    15A     -0.616749
      16A     -0.606573    17A     -0.556997    18A     -0.547790
      19A     -0.527215    20A     -0.516724    21A     -0.505093
      22A     -0.424503    23A     -0.383264

  @DF-RHF Final Energy:  -268.93608514096661

   => Energetics <=

    Nuclear Repulsion Energy =            210.1926994263073425
    One-Electron Energy =                -780.4014519888627319
    Two-Electron Energy =                 301.2726674215888352
    Total Energy =                       -268.9360851409666111
  Basis Set: (AUG-CC-PVTZ AUX)
    Blend: AUG-CC-PVTZ-RI
    Molecular point group: c1

    Geometry (in Angstrom), charge = 0, multiplicity = 1:

       Center              X                  Y                   Z               Mass
    ------------   -----------------  -----------------  -----------------  -----------------
         O            2.936976191190    -0.067769165639     0.182357925255    15.994914619570
         C           -1.944573808810     0.333802834361     0.342037925255    12.000000000000
         C           -2.831097808810    -0.762907165639    -0.253577074745    12.000000000000
         C           -0.581470408810     0.340907434361    -0.268766874745    12.000000000000
         C            0.568867191190     0.118864834361     0.367410925255    12.000000000000
         C            1.847733191190     0.129725834361    -0.348782074745    12.000000000000
         H           -1.842209208810     0.197460834361     1.423733325255     1.007825032230
         H           -2.420541808810     1.309278834361     0.181207925255     1.007825032230
         H           -2.940407808810    -0.634046165639    -1.334218074745     1.007825032230
         H           -3.829357808810    -0.740175165639     0.191789925255     1.007825032230
         H           -2.396846808810    -1.749311165639    -0.072213074745     1.007825032230
         H           -0.548693808810     0.527856834361    -1.357062074745     1.007825032230
         H            0.602222191190    -0.074890165639     1.437575925255     1.007825032230
         H            1.776417191190     0.329590834361    -1.439904074745     1.007825032230

  Basis Set: AUG-CC-PVTZ
    Blend: AUG-CC-PVTZ
  Basis Set: (AUG-CC-PVTZ AUX)
    Blend: AUG-CC-PVTZ-JKFIT
	 Reference Energy          =    -268.9360851409666111 [Eh]
	 Singles Energy            =      -0.0000000000000000 [Eh]
	 Same-Spin Energy          =      -0.2693553743100947 [Eh]
	 Opposite-Spin Energy      =      -0.9137355712513134 [Eh]
	 Correlation Energy        =      -1.1830909455614083 [Eh]
	 Total Energy              =    -270.1191760865280003 [Eh]

	 ================> DF-SCS-MP2 Energies <==================
	-----------------------------------------------------------
	 SCS Same-Spin Scale       =       0.3333333333333333 [-]
	 SCS Opposite-Spin Scale   =       1.2000000000000000 [-]
	 SCS Same-Spin Energy      =      -0.0897851247700316 [Eh]
	 SCS Opposite-Spin Energy  =      -1.0964826855015761 [Eh]
	 SCS Correlation Energy    =      -1.1862678102716078 [Eh]
	 SCS Total Energy          =    -270.1223529512382129 [Eh]
	-----------------------------------------------------------

  Dipole Moment: [D]
     X:    -3.9348      Y:     0.4021      Z:    -0.7671     Total:     4.0290

*** Psi4 exiting successfully. Buy a developer a beer!
