                               Psi4 1.3.2 release

  ==> Input File <==

--------------------------------------------------------------------------
#psi4
#
memory 32 gb

molecule  {
0 1
  O        2.9473823    -0.0654545     0.1650045
  C       -1.9436970     0.3335570     0.3437070
  C       -2.8302210    -0.7631530    -0.2519080
  C       -0.5859380     0.3423530    -0.2788660
  C        0.5576572     0.1237217     0.3471177
  C        1.8486100     0.1294800    -0.3471130
  H       -1.8508390     0.1975730     1.4263050
  H       -2.4196650     1.3090330     0.1828770
  H       -2.9395310    -0.6342920    -1.3325490
  H       -3.8284810    -0.7404210     0.1934590
  H       -2.3959700    -1.7495570    -0.0705440
  H       -0.5478170     0.5276110    -1.3553930
  H        0.6030990    -0.0751360     1.4392450
  H        1.7772940     0.3293450    -1.4382350
units angstrom
no_reorient  #important for SAPT in psi4, default
symmetry c1  #important for SAPT in psi4, default
}

set PROPERTIES_ORIGIN ["COM"]
properties('MP2/aug-cc-pvtz', properties = ['dipole'])
--------------------------------------------------------------------------

    Molecular point group: c1
  Charge       = 0
  Multiplicity = 1
  Basis Set: AUG-CC-PVTZ
    Blend: AUG-CC-PVTZ
  Basis Set: (AUG-CC-PVTZ AUX)
    Blend: AUG-CC-PVTZ-JKFIT

    Orbital Energies [Eh]
    ---------------------

    Doubly Occupied:

       1A    -20.550836     2A    -11.332423     3A    -11.271390
       4A    -11.250727     5A    -11.244983     6A    -11.235767
       7A     -1.373893     8A     -1.120487     9A     -1.034121
      10A     -0.906474    11A     -0.820513    12A     -0.778042
      13A     -0.680634    14A     -0.650428    15A     -0.616066
      16A     -0.607275    17A     -0.555020    18A     -0.547632
      19A     -0.527353    20A     -0.516634    21A     -0.506484
      22A     -0.423828    23A     -0.386499

  @DF-RHF Final Energy:  -268.93548706630747

   => Energetics <=

    Nuclear Repulsion Energy =            210.2182581138920057
    One-Electron Energy =                -780.4324764032694475
    Two-Electron Energy =                 301.2787312230699399
    Total Energy =                       -268.9354870663074735
  Basis Set: (AUG-CC-PVTZ AUX)
    Blend: AUG-CC-PVTZ-RI
    Molecular point group: c1

    Geometry (in Angstrom), charge = 0, multiplicity = 1:

       Center              X                  Y                   Z               Mass
    ------------   -----------------  -----------------  -----------------  -----------------
         O            2.947294653820    -0.066670105231     0.171759652423    15.994914619570
         C           -1.943784646180     0.332341394769     0.350462152423    12.000000000000
         C           -2.830308646180    -0.764368605231    -0.245152847577    12.000000000000
         C           -0.586025646180     0.341137394769    -0.272110847577    12.000000000000
         C            0.557569553820     0.122506094769     0.353872852423    12.000000000000
         C            1.848522353820     0.128264394769    -0.340357847577    12.000000000000
         H           -1.850926646180     0.196357394769     1.433060152423     1.007825032230
         H           -2.419752646180     1.307817394769     0.189632152423     1.007825032230
         H           -2.939618646180    -0.635507605231    -1.325793847577     1.007825032230
         H           -3.828568646180    -0.741636605231     0.200214152423     1.007825032230
         H           -2.396057646180    -1.750772605231    -0.063788847577     1.007825032230
         H           -0.547904646180     0.526395394769    -1.348637847577     1.007825032230
         H            0.603011353820    -0.076351605231     1.446000152423     1.007825032230
         H            1.777206353820     0.328129394769    -1.431479847577     1.007825032230

  Basis Set: AUG-CC-PVTZ
    Blend: AUG-CC-PVTZ
  Basis Set: (AUG-CC-PVTZ AUX)
    Blend: AUG-CC-PVTZ-JKFIT
	 Reference Energy          =    -268.9354870663074735 [Eh]
	 Singles Energy            =      -0.0000000000000000 [Eh]
	 Same-Spin Energy          =      -0.2693076333174538 [Eh]
	 Opposite-Spin Energy      =      -0.9136187738399202 [Eh]
	 Correlation Energy        =      -1.1829264071573740 [Eh]
	 Total Energy              =    -270.1184134734648410 [Eh]

	 ================> DF-SCS-MP2 Energies <==================
	-----------------------------------------------------------
	 SCS Same-Spin Scale       =       0.3333333333333333 [-]
	 SCS Opposite-Spin Scale   =       1.2000000000000000 [-]
	 SCS Same-Spin Energy      =      -0.0897692111058179 [Eh]
	 SCS Opposite-Spin Energy  =      -1.0963425286079043 [Eh]
	 SCS Correlation Energy    =      -1.1861117397137222 [Eh]
	 SCS Total Energy          =    -270.1215988060212112 [Eh]
	-----------------------------------------------------------

  Dipole Moment: [D]
     X:    -3.9597      Y:     0.4006      Z:    -0.7375     Total:     4.0477

*** Psi4 exiting successfully. Buy a developer a beer!
