                               Psi4 1.3.2 release

  ==> Input File <==

--------------------------------------------------------------------------
#psi4
#
memory 32 gb

molecule  {
0 1
  O        2.9178021    -0.0729547     0.2215809
  C       -1.9436970     0.3335570     0.3437070
  C       -2.8302210    -0.7631530    -0.2519080
  C       -0.5859380     0.3423530    -0.2788660
  C        0.5950825     0.1084251     0.4123434
  C        1.8486100     0.1294800    -0.3471130
  H       -1.8508390     0.1975730     1.4263050
  H       -2.4196650     1.3090330     0.1828770
  H       -2.9395310    -0.6342920    -1.3325490
  H       -3.8284810    -0.7404210     0.1934590
  H       -2.3959700    -1.7495570    -0.0705440
  H       -0.5478170     0.5276110    -1.3553930
  H        0.6030990    -0.0751360     1.4392450
  H        1.7772940     0.3293450    -1.4382350
units angstrom
no_reorient  #important for SAPT in psi4, default
symmetry c1  #important for SAPT in psi4, default
}

set PROPERTIES_ORIGIN ["COM"]
properties('MP2/aug-cc-pvtz', properties = ['dipole'])
--------------------------------------------------------------------------

    Molecular point group: c1
  Charge       = 0
  Multiplicity = 1
  Basis Set: AUG-CC-PVTZ
    Blend: AUG-CC-PVTZ
  Basis Set: (AUG-CC-PVTZ AUX)
    Blend: AUG-CC-PVTZ-JKFIT

    Orbital Energies [Eh]
    ---------------------

    Doubly Occupied:

       1A    -20.545480     2A    -11.330421     3A    -11.280362
       4A    -11.250082     5A    -11.245496     6A    -11.235604
       7A     -1.371871     8A     -1.110398     9A     -1.028147
      10A     -0.905009    11A     -0.812300    12A     -0.789611
      13A     -0.677553    14A     -0.647190    15A     -0.620128
      16A     -0.603356    17A     -0.565523    18A     -0.545190
      19A     -0.525434    20A     -0.516565    21A     -0.507334
      22A     -0.423151    23A     -0.370118

  @DF-RHF Final Energy:  -268.93008185388294

   => Energetics <=

    Nuclear Repulsion Energy =            209.8270745596202005
    One-Electron Energy =                -779.7016665226407213
    Two-Electron Energy =                 300.9445101091375818
    Total Energy =                       -268.9300818538829390
  Basis Set: (AUG-CC-PVTZ AUX)
    Blend: AUG-CC-PVTZ-RI
    Molecular point group: c1

    Geometry (in Angstrom), charge = 0, multiplicity = 1:

       Center              X                  Y                   Z               Mass
    ------------   -----------------  -----------------  -----------------  -----------------
         O            2.918000319676    -0.070559393594     0.208258810193    15.994914619570
         C           -1.943498780324     0.335952306406     0.330384910193    12.000000000000
         C           -2.830022780324    -0.760757693594    -0.265230089807    12.000000000000
         C           -0.585739780324     0.344748306406    -0.292188089807    12.000000000000
         C            0.595280719676     0.110820406406     0.399021310193    12.000000000000
         C            1.848808219676     0.131875306406    -0.360435089807    12.000000000000
         H           -1.850640780324     0.199968306406     1.412982910193     1.007825032230
         H           -2.419466780324     1.311428306406     0.169554910193     1.007825032230
         H           -2.939332780324    -0.631896693594    -1.345871089807     1.007825032230
         H           -3.828282780324    -0.738025693594     0.180136910193     1.007825032230
         H           -2.395771780324    -1.747161693594    -0.083866089807     1.007825032230
         H           -0.547618780324     0.530006306406    -1.368715089807     1.007825032230
         H            0.603297219676    -0.072740693594     1.425922910193     1.007825032230
         H            1.777492219676     0.331740306406    -1.451557089807     1.007825032230

  Basis Set: AUG-CC-PVTZ
    Blend: AUG-CC-PVTZ
  Basis Set: (AUG-CC-PVTZ AUX)
    Blend: AUG-CC-PVTZ-JKFIT
	 Reference Energy          =    -268.9300818538829390 [Eh]
	 Singles Energy            =      -0.0000000000000000 [Eh]
	 Same-Spin Energy          =      -0.2698028887433103 [Eh]
	 Opposite-Spin Energy      =      -0.9148371590226723 [Eh]
	 Correlation Energy        =      -1.1846400477659826 [Eh]
	 Total Energy              =    -270.1147219016489203 [Eh]

	 ================> DF-SCS-MP2 Energies <==================
	-----------------------------------------------------------
	 SCS Same-Spin Scale       =       0.3333333333333333 [-]
	 SCS Opposite-Spin Scale   =       1.2000000000000000 [-]
	 SCS Same-Spin Energy      =      -0.0899342962477701 [Eh]
	 SCS Opposite-Spin Energy  =      -1.0978045908272067 [Eh]
	 SCS Correlation Energy    =      -1.1877388870749768 [Eh]
	 SCS Total Energy          =    -270.1178207409579386 [Eh]
	-----------------------------------------------------------

  Dipole Moment: [D]
     X:    -3.9089      Y:     0.4185      Z:    -0.8402     Total:     4.0200

*** Psi4 exiting successfully. Buy a developer a beer!
