                               Psi4 1.4a3.dev225

  ==> Input File <==

--------------------------------------------------------------------------
#psi4
#
memory 32 gb

molecule  {
0 1
  N        1.9567340     0.0254830    -0.0000010
  C       -0.5337590     0.5239430     0.0000000
  C        0.6389441    -0.4920942    -0.0000029
  C       -1.9201290    -0.1150620     0.0000010
  H       -0.4211530     1.1712430     0.8793960
  H       -0.4211550     1.1712460    -0.8793930
  H        0.4914030    -1.1596150    -0.8777340
  H        0.4914020    -1.1596250     0.8777200
  H       -2.0588170    -0.7452150    -0.8839620
  H       -2.0588250    -0.7451950     0.8839770
  H       -2.7099090     0.6412230    -0.0000110
  H        2.0794120     0.6282360     0.8131150
  H        2.0794030     0.6282730    -0.8130910
units angstrom
no_reorient  #important for SAPT in psi4, default
symmetry c1  #important for SAPT in psi4, default
}

set PROPERTIES_ORIGIN ["COM"]
properties('MP2/aug-cc-pvtz', properties = ['dipole'])
--------------------------------------------------------------------------

    Molecular point group: c1
  Charge       = 0
  Multiplicity = 1
  Basis Set: AUG-CC-PVTZ
    Blend: AUG-CC-PVTZ
  Basis Set: (AUG-CC-PVTZ AUX)
    Blend: AUG-CC-PVTZ-JKFIT

    Orbital Energies [Eh]
    ---------------------

    Doubly Occupied:

       1A    -15.540544     2A    -11.245561     3A    -11.219201
       4A    -11.215276     5A     -1.190689     6A     -1.033548
       7A     -0.893548     8A     -0.802723     9A     -0.677246
      10A     -0.613104    11A     -0.602589    12A     -0.562357
      13A     -0.528531    14A     -0.510277    15A     -0.485353
      16A     -0.465196    17A     -0.383892

  @DF-RHF Final Energy:  -173.35101144680084

   => Energetics <=

    Nuclear Repulsion Energy =            131.2528592558642515
    One-Electron Energy =                -493.2684673307331877
    Two-Electron Energy =                 188.6645966280681250
    Total Energy =                       -173.3510114468008396
  Basis Set: (AUG-CC-PVTZ AUX)
    Blend: AUG-CC-PVTZ-RI
    Molecular point group: c1

    Geometry (in Angstrom), charge = 0, multiplicity = 1:

       Center              X                  Y                   Z               Mass
    ------------   -----------------  -----------------  -----------------  -----------------
         N            1.904715045748     0.029000276540    -0.000000667024    14.003074004430
         C           -0.585777954252     0.527460276540     0.000000332976    12.000000000000
         C            0.586925145748    -0.488576923460    -0.000002567024    12.000000000000
         C           -1.972147954252    -0.111544723460     0.000001332976    12.000000000000
         H           -0.473171954252     1.174760276540     0.879396332976     1.007825032230
         H           -0.473173954252     1.174763276540    -0.879392667024     1.007825032230
         H            0.439384045748    -1.156097723460    -0.877733667024     1.007825032230
         H            0.439383045748    -1.156107723460     0.877720332976     1.007825032230
         H           -2.110835954252    -0.741697723460    -0.883961667024     1.007825032230
         H           -2.110843954252    -0.741677723460     0.883977332976     1.007825032230
         H           -2.761927954252     0.644740276540    -0.000010667024     1.007825032230
         H            2.027393045748     0.631753276540     0.813115332976     1.007825032230
         H            2.027384045748     0.631790276540    -0.813090667024     1.007825032230

  Basis Set: AUG-CC-PVTZ
    Blend: AUG-CC-PVTZ
  Basis Set: (AUG-CC-PVTZ AUX)
    Blend: AUG-CC-PVTZ-JKFIT
	 Reference Energy          =    -173.3510114468008396 [Eh]
	 Singles Energy            =      -0.0000000000000000 [Eh]
	 Same-Spin Energy          =      -0.1806453505777220 [Eh]
	 Opposite-Spin Energy      =      -0.6591269618903277 [Eh]
	 Correlation Energy        =      -0.8397723124680497 [Eh]
	 Total Energy              =    -174.1907837592688963 [Eh]

	 ================> DF-SCS-MP2 Energies <==================
	-----------------------------------------------------------
	 SCS Same-Spin Scale       =       0.3333333333333333 [-]
	 SCS Opposite-Spin Scale   =       1.2000000000000000 [-]
	 SCS Same-Spin Energy      =      -0.0602151168592407 [Eh]
	 SCS Opposite-Spin Energy  =      -0.7909523542683933 [Eh]
	 SCS Correlation Energy    =      -0.8511674711276339 [Eh]
	 SCS Total Energy          =    -174.2021789179284781 [Eh]
	-----------------------------------------------------------

  Dipole Moment: [D]
     X:    -0.8977      Y:     1.0839      Z:     0.0000     Total:     1.4074

*** Psi4 exiting successfully. Buy a developer a beer!
