                               Psi4 1.4a3.dev225

  ==> Input File <==

--------------------------------------------------------------------------
#psi4
#
memory 32 gb

molecule  {
0 1
  N        1.9567340     0.0254830    -0.0000010
  C       -0.5337590     0.5239430     0.0000000
  C        0.6110206    -0.5030615    -0.0000030
  C       -1.9201290    -0.1150620     0.0000010
  H       -0.4211530     1.1712430     0.8793960
  H       -0.4211550     1.1712460    -0.8793930
  H        0.4914030    -1.1596150    -0.8777340
  H        0.4914020    -1.1596250     0.8777200
  H       -2.0588170    -0.7452150    -0.8839620
  H       -2.0588250    -0.7451950     0.8839770
  H       -2.7099090     0.6412230    -0.0000110
  H        2.0794120     0.6282360     0.8131150
  H        2.0794030     0.6282730    -0.8130910
units angstrom
no_reorient  #important for SAPT in psi4, default
symmetry c1  #important for SAPT in psi4, default
}

set PROPERTIES_ORIGIN ["COM"]
properties('MP2/aug-cc-pvtz', properties = ['dipole'])
--------------------------------------------------------------------------

    Molecular point group: c1
  Charge       = 0
  Multiplicity = 1
  Basis Set: AUG-CC-PVTZ
    Blend: AUG-CC-PVTZ
  Basis Set: (AUG-CC-PVTZ AUX)
    Blend: AUG-CC-PVTZ-JKFIT

    Orbital Energies [Eh]
    ---------------------

    Doubly Occupied:

       1A    -15.539577     2A    -11.244748     3A    -11.219617
       4A    -11.215419     5A     -1.181154     6A     -1.035617
       7A     -0.895653     8A     -0.803709     9A     -0.674765
      10A     -0.608466    11A     -0.602824    12A     -0.561020
      13A     -0.524816    14A     -0.513753    15A     -0.486083
      16A     -0.468613    17A     -0.385972

  @DF-RHF Final Energy:  -173.35314096080697

   => Energetics <=

    Nuclear Repulsion Energy =            131.1555375619656161
    One-Electron Energy =                -493.0937432744159992
    Two-Electron Energy =                 188.5850647516434151
    Total Energy =                       -173.3531409608069680
  Basis Set: (AUG-CC-PVTZ AUX)
    Blend: AUG-CC-PVTZ-RI
    Molecular point group: c1

    Geometry (in Angstrom), charge = 0, multiplicity = 1:

       Center              X                  Y                   Z               Mass
    ------------   -----------------  -----------------  -----------------  -----------------
         N            1.910387335421     0.031228138467    -0.000000646710    14.003074004430
         C           -0.580105664579     0.529688138467     0.000000353290    12.000000000000
         C            0.564673935421    -0.497316361533    -0.000002646710    12.000000000000
         C           -1.966475664579    -0.109316861533     0.000001353290    12.000000000000
         H           -0.467499664579     1.176988138467     0.879396353290     1.007825032230
         H           -0.467501664579     1.176991138467    -0.879392646710     1.007825032230
         H            0.445056335421    -1.153869861533    -0.877733646710     1.007825032230
         H            0.445055335421    -1.153879861533     0.877720353290     1.007825032230
         H           -2.105163664579    -0.739469861533    -0.883961646710     1.007825032230
         H           -2.105171664579    -0.739449861533     0.883977353290     1.007825032230
         H           -2.756255664579     0.646968138467    -0.000010646710     1.007825032230
         H            2.033065335421     0.633981138467     0.813115353290     1.007825032230
         H            2.033056335421     0.634018138467    -0.813090646710     1.007825032230

  Basis Set: AUG-CC-PVTZ
    Blend: AUG-CC-PVTZ
  Basis Set: (AUG-CC-PVTZ AUX)
    Blend: AUG-CC-PVTZ-JKFIT
	 Reference Energy          =    -173.3531409608069680 [Eh]
	 Singles Energy            =      -0.0000000000000000 [Eh]
	 Same-Spin Energy          =      -0.1804985022427005 [Eh]
	 Opposite-Spin Energy      =      -0.6591399784604262 [Eh]
	 Correlation Energy        =      -0.8396384807031266 [Eh]
	 Total Energy              =    -174.1927794415100834 [Eh]

	 ================> DF-SCS-MP2 Energies <==================
	-----------------------------------------------------------
	 SCS Same-Spin Scale       =       0.3333333333333333 [-]
	 SCS Opposite-Spin Scale   =       1.2000000000000000 [-]
	 SCS Same-Spin Energy      =      -0.0601661674142335 [Eh]
	 SCS Opposite-Spin Energy  =      -0.7909679741525114 [Eh]
	 SCS Correlation Energy    =      -0.8511341415667449 [Eh]
	 SCS Total Energy          =    -174.2042751023737139 [Eh]
	-----------------------------------------------------------

  Dipole Moment: [D]
     X:    -0.9846      Y:     1.0651      Z:     0.0000     Total:     1.4505

*** Psi4 exiting successfully. Buy a developer a beer!
