                               Psi4 1.3.2 release

  ==> Input File <==

--------------------------------------------------------------------------
#psi4
#
memory 32 gb

molecule  {
0 1
  N        1.9573170     0.0262400    -0.0003030
  C       -0.5338880     0.5233470     0.0001550
  C        0.4070364    -0.5841131    -0.0001064
  C       -1.9210010    -0.1151900     0.0002360
  H       -0.4226550     1.1696880     0.8802810
  H       -0.4229150     1.1699190    -0.8798440
  H        0.4930910    -1.1591820    -0.8784170
  H        0.4933810    -1.1593220     0.8780960
  H       -2.0610110    -0.7444140    -0.8841720
  H       -2.0608750    -0.7445920     0.8845450
  H       -2.7085880     0.6433700     0.0003330
  H        2.0796550     0.6282150     0.8131880
  H        2.0792360     0.6287680    -0.8134610
units angstrom
no_reorient  #important for SAPT in psi4, default
symmetry c1  #important for SAPT in psi4, default
}

set PROPERTIES_ORIGIN ["COM"]
properties('MP2/aug-cc-pvtz', properties = ['dipole'])
--------------------------------------------------------------------------

    Molecular point group: c1
  Charge       = 0
  Multiplicity = 1
  Basis Set: AUG-CC-PVTZ
    Blend: AUG-CC-PVTZ
  Basis Set: (AUG-CC-PVTZ AUX)
    Blend: AUG-CC-PVTZ-JKFIT

    Orbital Energies [Eh]
    ---------------------

    Doubly Occupied:

       1A    -15.529254     2A    -11.248476     3A    -11.223448
       4A    -11.217518     5A     -1.134781     6A     -1.049212
       7A     -0.907311     8A     -0.813251     9A     -0.671302
      10A     -0.608838    11A     -0.599782    12A     -0.548192
      13A     -0.537120    14A     -0.510709    15A     -0.484432
      16A     -0.470787    17A     -0.377653

  @DF-RHF Final Energy:  -173.32262303313405

   => Energetics <=

    Nuclear Repulsion Energy =            130.6553827464837241
    One-Electron Energy =                -492.0918801437921388
    Two-Electron Energy =                 188.1138743641743645
    Total Energy =                       -173.3226230331340503
  Basis Set: (AUG-CC-PVTZ AUX)
    Blend: AUG-CC-PVTZ-RI
    Molecular point group: c1

    Geometry (in Angstrom), charge = 0, multiplicity = 1:

       Center              X                  Y                   Z               Mass
    ------------   -----------------  -----------------  -----------------  -----------------
         N            1.952513832012     0.048385270190    -0.000298354339    14.003074004430
         C           -0.538691167988     0.545492270190     0.000159645661    12.000000000000
         C            0.402233232012    -0.561967829810    -0.000101754339    12.000000000000
         C           -1.925804167988    -0.093044729810     0.000240645661    12.000000000000
         H           -0.427458167988     1.191833270190     0.880285645661     1.007825032230
         H           -0.427718167988     1.192064270190    -0.879839354339     1.007825032230
         H            0.488287832012    -1.137036729810    -0.878412354339     1.007825032230
         H            0.488577832012    -1.137176729810     0.878100645661     1.007825032230
         H           -2.065814167988    -0.722268729810    -0.884167354339     1.007825032230
         H           -2.065678167988    -0.722446729810     0.884549645661     1.007825032230
         H           -2.713391167988     0.665515270190     0.000337645661     1.007825032230
         H            2.074851832012     0.650360270190     0.813192645661     1.007825032230
         H            2.074432832012     0.650913270190    -0.813456354339     1.007825032230

  Basis Set: AUG-CC-PVTZ
    Blend: AUG-CC-PVTZ
  Basis Set: (AUG-CC-PVTZ AUX)
    Blend: AUG-CC-PVTZ-JKFIT
	 Reference Energy          =    -173.3226230331340503 [Eh]
	 Singles Energy            =      -0.0000000000000000 [Eh]
	 Same-Spin Energy          =      -0.1814566447334712 [Eh]
	 Opposite-Spin Energy      =      -0.6625995972211408 [Eh]
	 Correlation Energy        =      -0.8440562419546120 [Eh]
	 Total Energy              =    -174.1666792750886543 [Eh]

	 ================> DF-SCS-MP2 Energies <==================
	-----------------------------------------------------------
	 SCS Same-Spin Scale       =       0.3333333333333333 [-]
	 SCS Opposite-Spin Scale   =       1.2000000000000000 [-]
	 SCS Same-Spin Energy      =      -0.0604855482444904 [Eh]
	 SCS Opposite-Spin Energy  =      -0.7951195166653690 [Eh]
	 SCS Correlation Energy    =      -0.8556050649098593 [Eh]
	 SCS Total Energy          =    -174.1782280980439168 [Eh]
	-----------------------------------------------------------

  Dipole Moment: [D]
     X:    -1.5401      Y:     0.9703      Z:     0.0007     Total:     1.8202

*** Psi4 exiting successfully. Buy a developer a beer!
