                               Psi4 1.3.2 release

  ==> Input File <==

--------------------------------------------------------------------------
#psi4
#
memory 32 gb

molecule  {
0 1
  N        1.9656406     0.0044854    -0.0108955
  C       -0.5338880     0.5233470     0.0001550
  C        0.5931330    -0.5108460    -0.0001300
  C       -1.9210010    -0.1151900     0.0002360
  H       -0.4551165     1.1509628     0.8777697
  H       -0.4229150     1.1699190    -0.8798440
  H        0.4930910    -1.1591820    -0.8784170
  H        0.4933810    -1.1593220     0.8780960
  H       -2.0610110    -0.7444140    -0.8841720
  H       -2.0608750    -0.7445920     0.8845450
  H       -2.7085880     0.6433700     0.0003330
  H        2.0796550     0.6282150     0.8131880
  H        2.0792360     0.6287680    -0.8134610
units angstrom
no_reorient  #important for SAPT in psi4, default
symmetry c1  #important for SAPT in psi4, default
}

set PROPERTIES_ORIGIN ["COM"]
properties('MP2/aug-cc-pvtz', properties = ['dipole'])
--------------------------------------------------------------------------

    Molecular point group: c1
  Charge       = 0
  Multiplicity = 1
  Basis Set: AUG-CC-PVTZ
    Blend: AUG-CC-PVTZ
  Basis Set: (AUG-CC-PVTZ AUX)
    Blend: AUG-CC-PVTZ-JKFIT

    Orbital Energies [Eh]
    ---------------------

    Doubly Occupied:

       1A    -15.542587     2A    -11.244380     3A    -11.218677
       4A    -11.215425     5A     -1.173903     6A     -1.037828
       7A     -0.896031     8A     -0.805345     9A     -0.670790
      10A     -0.606110    11A     -0.602611    12A     -0.558648
      13A     -0.522836    14A     -0.514644    15A     -0.485268
      16A     -0.472301    17A     -0.389811

  @DF-RHF Final Energy:  -173.35202939917332

   => Energetics <=

    Nuclear Repulsion Energy =            130.9877172874220150
    One-Electron Energy =                -492.7651043494949477
    Two-Electron Energy =                 188.4253576628996143
    Total Energy =                       -173.3520293991733183
  Basis Set: (AUG-CC-PVTZ AUX)
    Blend: AUG-CC-PVTZ-RI
    Molecular point group: c1

    Geometry (in Angstrom), charge = 0, multiplicity = 1:

       Center              X                  Y                   Z               Mass
    ------------   -----------------  -----------------  -----------------  -----------------
         N            1.921615112323     0.017223707548    -0.008332317699    14.003074004430
         C           -0.577913487677     0.536085307548     0.002718182301    12.000000000000
         C            0.549107512323    -0.498107692452     0.002433182301    12.000000000000
         C           -1.965026487677    -0.102451692452     0.002799182301    12.000000000000
         H           -0.499141987677     1.163701107548     0.880332882301     1.007825032230
         H           -0.466940487677     1.182657307548    -0.877280817699     1.007825032230
         H            0.449065512323    -1.146443692452    -0.875853817699     1.007825032230
         H            0.449355512323    -1.146583692452     0.880659182301     1.007825032230
         H           -2.105036487677    -0.731675692452    -0.881608817699     1.007825032230
         H           -2.104900487677    -0.731853692452     0.887108182301     1.007825032230
         H           -2.752613487677     0.656108307548     0.002896182301     1.007825032230
         H            2.035629512323     0.640953307548     0.815751182301     1.007825032230
         H            2.035210512323     0.641506307548    -0.810897817699     1.007825032230

  Basis Set: AUG-CC-PVTZ
    Blend: AUG-CC-PVTZ
  Basis Set: (AUG-CC-PVTZ AUX)
    Blend: AUG-CC-PVTZ-JKFIT
	 Reference Energy          =    -173.3520293991733183 [Eh]
	 Singles Energy            =      -0.0000000000000000 [Eh]
	 Same-Spin Energy          =      -0.1805690814403864 [Eh]
	 Opposite-Spin Energy      =      -0.6596753906963778 [Eh]
	 Correlation Energy        =      -0.8402444721367641 [Eh]
	 Total Energy              =    -174.1922738713100784 [Eh]

	 ================> DF-SCS-MP2 Energies <==================
	-----------------------------------------------------------
	 SCS Same-Spin Scale       =       0.3333333333333333 [-]
	 SCS Opposite-Spin Scale   =       1.2000000000000000 [-]
	 SCS Same-Spin Energy      =      -0.0601896938134621 [Eh]
	 SCS Opposite-Spin Energy  =      -0.7916104688356533 [Eh]
	 SCS Correlation Energy    =      -0.8518001626491154 [Eh]
	 SCS Total Energy          =    -174.2038295618224311 [Eh]
	-----------------------------------------------------------

  Dipole Moment: [D]
     X:    -1.0754      Y:     1.0984      Z:     0.0253     Total:     1.5375

*** Psi4 exiting successfully. Buy a developer a beer!
