                               Psi4 1.3.2 release

  ==> Input File <==

--------------------------------------------------------------------------
#psi4
#
memory 32 gb

molecule  {
0 1
  N        1.9573170     0.0262400    -0.0003030
  C       -0.5338880     0.5233470     0.0001550
  C        0.6203364    -0.4781191     0.0677078
  C       -1.9210010    -0.1151900     0.0002360
  H       -0.3760841     1.1393240     0.8948178
  H       -0.4229150     1.1699190    -0.8798440
  H        0.4930910    -1.1591820    -0.8784170
  H        0.4933810    -1.1593220     0.8780960
  H       -2.0610110    -0.7444140    -0.8841720
  H       -2.0608750    -0.7445920     0.8845450
  H       -2.7085880     0.6433700     0.0003330
  H        2.0796550     0.6282150     0.8131880
  H        2.0792360     0.6287680    -0.8134610
units angstrom
no_reorient  #important for SAPT in psi4, default
symmetry c1  #important for SAPT in psi4, default
}

set PROPERTIES_ORIGIN ["COM"]
properties('MP2/aug-cc-pvtz', properties = ['dipole'])
--------------------------------------------------------------------------

    Molecular point group: c1
  Charge       = 0
  Multiplicity = 1
  Basis Set: AUG-CC-PVTZ
    Blend: AUG-CC-PVTZ
  Basis Set: (AUG-CC-PVTZ AUX)
    Blend: AUG-CC-PVTZ-JKFIT

    Orbital Energies [Eh]
    ---------------------

    Doubly Occupied:

       1A    -15.541146     2A    -11.246111     3A    -11.220008
       4A    -11.216461     5A     -1.187559     6A     -1.036699
       7A     -0.896524     8A     -0.802589     9A     -0.675886
      10A     -0.613990    11A     -0.601629    12A     -0.566375
      13A     -0.529103    14A     -0.509297    15A     -0.487546
      16A     -0.458155    17A     -0.386377

  @DF-RHF Final Energy:  -173.34539689086361

   => Energetics <=

    Nuclear Repulsion Energy =            131.3639905436870663
    One-Electron Energy =                -493.4678608754538800
    Two-Electron Energy =                 188.7584734409032023
    Total Energy =                       -173.3453968908636114
  Basis Set: (AUG-CC-PVTZ AUX)
    Blend: AUG-CC-PVTZ-RI
    Molecular point group: c1

    Geometry (in Angstrom), charge = 0, multiplicity = 1:

       Center              X                  Y                   Z               Mass
    ------------   -----------------  -----------------  -----------------  -----------------
         N            1.908390234292     0.027372016945    -0.014321917541    14.003074004430
         C           -0.582814765708     0.524479016945    -0.013863917541    12.000000000000
         C            0.571409634292    -0.476987083055     0.053688882459    12.000000000000
         C           -1.969927765708    -0.114057983055    -0.013782917541    12.000000000000
         H           -0.425010865708     1.140456016945     0.880798882459     1.007825032230
         H           -0.471841765708     1.171051016945    -0.893862917541     1.007825032230
         H            0.444164234292    -1.158049983055    -0.892435917541     1.007825032230
         H            0.444454234292    -1.158189983055     0.864077082459     1.007825032230
         H           -2.109937765708    -0.743281983055    -0.898190917541     1.007825032230
         H           -2.109801765708    -0.743459983055     0.870526082459     1.007825032230
         H           -2.757514765708     0.644502016945    -0.013685917541     1.007825032230
         H            2.030728234292     0.629347016945     0.799169082459     1.007825032230
         H            2.030309234292     0.629900016945    -0.827479917541     1.007825032230

  Basis Set: AUG-CC-PVTZ
    Blend: AUG-CC-PVTZ
  Basis Set: (AUG-CC-PVTZ AUX)
    Blend: AUG-CC-PVTZ-JKFIT
	 Reference Energy          =    -173.3453968908636114 [Eh]
	 Singles Energy            =      -0.0000000000000000 [Eh]
	 Same-Spin Energy          =      -0.1808643087831943 [Eh]
	 Opposite-Spin Energy      =      -0.6597020165007590 [Eh]
	 Correlation Energy        =      -0.8405663252839533 [Eh]
	 Total Energy              =    -174.1859632161475702 [Eh]

	 ================> DF-SCS-MP2 Energies <==================
	-----------------------------------------------------------
	 SCS Same-Spin Scale       =       0.3333333333333333 [-]
	 SCS Opposite-Spin Scale   =       1.2000000000000000 [-]
	 SCS Same-Spin Energy      =      -0.0602881029277314 [Eh]
	 SCS Opposite-Spin Energy  =      -0.7916424198009108 [Eh]
	 SCS Correlation Energy    =      -0.8519305227286422 [Eh]
	 SCS Total Energy          =    -174.1973274135922622 [Eh]
	-----------------------------------------------------------

  Dipole Moment: [D]
     X:    -0.9479      Y:     1.0967      Z:     0.0608     Total:     1.4509

*** Psi4 exiting successfully. Buy a developer a beer!
