                               Psi4 1.3.2 release

  ==> Input File <==

--------------------------------------------------------------------------
#psi4
#
memory 32 gb

molecule  {
0 1
  N        1.9273385     0.0968998    -0.0002913
  C       -0.4782180     0.5809134     0.0001514
  C        0.5931330    -0.5108460    -0.0001300
  C       -1.9210010    -0.1151900     0.0002360
  H       -0.4226550     1.1696880     0.8802810
  H       -0.4229150     1.1699190    -0.8798440
  H        0.4930910    -1.1591820    -0.8784170
  H        0.4933810    -1.1593220     0.8780960
  H       -2.0610110    -0.7444140    -0.8841720
  H       -2.0608750    -0.7445920     0.8845450
  H       -2.7085880     0.6433700     0.0003330
  H        2.0796550     0.6282150     0.8131880
  H        2.0792360     0.6287680    -0.8134610
units angstrom
no_reorient  #important for SAPT in psi4, default
symmetry c1  #important for SAPT in psi4, default
}

set PROPERTIES_ORIGIN ["COM"]
properties('MP2/aug-cc-pvtz', properties = ['dipole'])
--------------------------------------------------------------------------

    Molecular point group: c1
  Charge       = 0
  Multiplicity = 1
  Basis Set: AUG-CC-PVTZ
    Blend: AUG-CC-PVTZ
  Basis Set: (AUG-CC-PVTZ AUX)
    Blend: AUG-CC-PVTZ-JKFIT

    Orbital Energies [Eh]
    ---------------------

    Doubly Occupied:

       1A    -15.524717     2A    -11.245050     3A    -11.215150
       4A    -11.214683     5A     -1.179184     6A     -1.025627
       7A     -0.894931     8A     -0.812257     9A     -0.687387
      10A     -0.611573    11A     -0.599244    12A     -0.562975
      13A     -0.520617    14A     -0.511508    15A     -0.486895
      16A     -0.478837    17A     -0.371962

  @DF-RHF Final Energy:  -173.34722327026788

   => Energetics <=

    Nuclear Repulsion Energy =            131.2269830629620628
    One-Electron Energy =                -493.2632184172514371
    Two-Electron Energy =                 188.6890120840214990
    Total Energy =                       -173.3472232702678753
  Basis Set: (AUG-CC-PVTZ AUX)
    Blend: AUG-CC-PVTZ-RI
    Molecular point group: c1

    Geometry (in Angstrom), charge = 0, multiplicity = 1:

       Center              X                  Y                   Z               Mass
    ------------   -----------------  -----------------  -----------------  -----------------
         N            1.880529896824     0.075718427294    -0.000283902444    14.003074004430
         C           -0.525026603176     0.559732027294     0.000158797556    12.000000000000
         C            0.546324396824    -0.532027372706    -0.000122602444    12.000000000000
         C           -1.967809603176    -0.136371372706     0.000243397556    12.000000000000
         H           -0.469463603176     1.148506627294     0.880288397556     1.007825032230
         H           -0.469723603176     1.148737627294    -0.879836602444     1.007825032230
         H            0.446282396824    -1.180363372706    -0.878409602444     1.007825032230
         H            0.446572396824    -1.180503372706     0.878103397556     1.007825032230
         H           -2.107819603176    -0.765595372706    -0.884164602444     1.007825032230
         H           -2.107683603176    -0.765773372706     0.884552397556     1.007825032230
         H           -2.755396603176     0.622188627294     0.000340397556     1.007825032230
         H            2.032846396824     0.607033627294     0.813195397556     1.007825032230
         H            2.032427396824     0.607586627294    -0.813453602444     1.007825032230

  Basis Set: AUG-CC-PVTZ
    Blend: AUG-CC-PVTZ
  Basis Set: (AUG-CC-PVTZ AUX)
    Blend: AUG-CC-PVTZ-JKFIT
	 Reference Energy          =    -173.3472232702678753 [Eh]
	 Singles Energy            =      -0.0000000000000000 [Eh]
	 Same-Spin Energy          =      -0.1798931773062177 [Eh]
	 Opposite-Spin Energy      =      -0.6578956834246507 [Eh]
	 Correlation Energy        =      -0.8377888607308683 [Eh]
	 Total Energy              =    -174.1850121309987571 [Eh]

	 ================> DF-SCS-MP2 Energies <==================
	-----------------------------------------------------------
	 SCS Same-Spin Scale       =       0.3333333333333333 [-]
	 SCS Opposite-Spin Scale   =       1.2000000000000000 [-]
	 SCS Same-Spin Energy      =      -0.0599643924354059 [Eh]
	 SCS Opposite-Spin Energy  =      -0.7894748201095808 [Eh]
	 SCS Correlation Energy    =      -0.8494392125449867 [Eh]
	 SCS Total Energy          =    -174.1966624828128545 [Eh]
	-----------------------------------------------------------

  Dipole Moment: [D]
     X:    -0.8849      Y:     0.9324      Z:     0.0006     Total:     1.2855

*** Psi4 exiting successfully. Buy a developer a beer!
