                               Psi4 1.3.2 release

  ==> Input File <==

--------------------------------------------------------------------------
#psi4
#
memory 32 gb

molecule  {
0 1
  N        1.9573170     0.0262400    -0.0003030
  C       -0.5338880     0.5233470     0.0001550
  C        0.5799684    -0.4719027     0.0646900
  C       -1.9210010    -0.1151900     0.0002360
  H       -0.4226550     1.1696880     0.8802810
  H       -0.4229150     1.1699190    -0.8798440
  H        0.4930910    -1.1591820    -0.8784170
  H        0.4933810    -1.1593220     0.8780960
  H       -2.0610110    -0.7444140    -0.8841720
  H       -2.0608750    -0.7445920     0.8845450
  H       -2.7085880     0.6433700     0.0003330
  H        2.0291636     0.6176378     0.8268577
  H        2.0792360     0.6287680    -0.8134610
units angstrom
no_reorient  #important for SAPT in psi4, default
symmetry c1  #important for SAPT in psi4, default
}

set PROPERTIES_ORIGIN ["COM"]
properties('MP2/aug-cc-pvtz', properties = ['dipole'])
--------------------------------------------------------------------------

    Molecular point group: c1
  Charge       = 0
  Multiplicity = 1
  Basis Set: AUG-CC-PVTZ
    Blend: AUG-CC-PVTZ
  Basis Set: (AUG-CC-PVTZ AUX)
    Blend: AUG-CC-PVTZ-JKFIT

    Orbital Energies [Eh]
    ---------------------

    Doubly Occupied:

       1A    -15.540879     2A    -11.246315     3A    -11.220301
       4A    -11.216871     5A     -1.179337     6A     -1.041678
       7A     -0.898572     8A     -0.802857     9A     -0.674812
      10A     -0.611805    11A     -0.601537    12A     -0.565847
      13A     -0.524959    14A     -0.510649    15A     -0.488322
      16A     -0.457262    17A     -0.393572

  @DF-RHF Final Energy:  -173.34550495237721

   => Energetics <=

    Nuclear Repulsion Energy =            131.4559715407380907
    One-Electron Energy =                -493.6518038932329659
    Two-Electron Energy =                 188.8503274001176919
    Total Energy =                       -173.3455049523772118
  Basis Set: (AUG-CC-PVTZ AUX)
    Blend: AUG-CC-PVTZ-RI
    Molecular point group: c1

    Geometry (in Angstrom), charge = 0, multiplicity = 1:

       Center              X                  Y                   Z               Mass
    ------------   -----------------  -----------------  -----------------  -----------------
         N            1.918246393527     0.025771664275    -0.013694098205    14.003074004430
         C           -0.572958606473     0.522878664275    -0.013236098205    12.000000000000
         C            0.540897793527    -0.472371035725     0.051298901795    12.000000000000
         C           -1.960071606473    -0.115658335725    -0.013155098205    12.000000000000
         H           -0.461725606473     1.169219664275     0.866889901795     1.007825032230
         H           -0.461985606473     1.169450664275    -0.893235098205     1.007825032230
         H            0.454020393527    -1.159650335725    -0.891808098205     1.007825032230
         H            0.454310393527    -1.159790335725     0.864704901795     1.007825032230
         H           -2.100081606473    -0.744882335725    -0.897563098205     1.007825032230
         H           -2.099945606473    -0.745060335725     0.871153901795     1.007825032230
         H           -2.747658606473     0.642901664275    -0.013058098205     1.007825032230
         H            1.990092993527     0.617169464275     0.813466601795     1.007825032230
         H            2.040165393527     0.628299664275    -0.826852098205     1.007825032230

  Basis Set: AUG-CC-PVTZ
    Blend: AUG-CC-PVTZ
  Basis Set: (AUG-CC-PVTZ AUX)
    Blend: AUG-CC-PVTZ-JKFIT
	 Reference Energy          =    -173.3455049523772118 [Eh]
	 Singles Energy            =      -0.0000000000000000 [Eh]
	 Same-Spin Energy          =      -0.1809273441242093 [Eh]
	 Opposite-Spin Energy      =      -0.6600958575877875 [Eh]
	 Correlation Energy        =      -0.8410232017119968 [Eh]
	 Total Energy              =    -174.1865281540892170 [Eh]

	 ================> DF-SCS-MP2 Energies <==================
	-----------------------------------------------------------
	 SCS Same-Spin Scale       =       0.3333333333333333 [-]
	 SCS Opposite-Spin Scale   =       1.2000000000000000 [-]
	 SCS Same-Spin Energy      =      -0.0603091147080698 [Eh]
	 SCS Opposite-Spin Energy  =      -0.7921150291053450 [Eh]
	 SCS Correlation Energy    =      -0.8524241438134148 [Eh]
	 SCS Total Energy          =    -174.1979290961906202 [Eh]
	-----------------------------------------------------------

  Dipole Moment: [D]
     X:    -1.0971      Y:     1.1035      Z:     0.0502     Total:     1.5569

*** Psi4 exiting successfully. Buy a developer a beer!
