                               Psi4 1.3.2 release

  ==> Input File <==

--------------------------------------------------------------------------
#psi4
#
memory 32 gb

molecule  {
0 1
  N        1.9573170     0.0262400    -0.0003030
  C       -0.5338880     0.5233470     0.0001550
  C        0.5931330    -0.5108460    -0.0001300
  C       -1.9210010    -0.1151900     0.0002360
  H       -0.4226550     1.1696880     0.8802810
  H       -0.4229150     1.1699190    -0.8798440
  H        0.4930910    -1.1591820    -0.8784170
  H        0.4933810    -1.1593220     0.8780960
  H       -2.0610110    -0.7444140    -0.8841720
  H       -2.0608750    -0.7445920     0.8845450
  H       -2.7085880     0.6433700     0.0003330
  H        2.0879386     0.6691176     0.7799242
  H        2.0875369     0.6696487    -0.7801736
units angstrom
no_reorient  #important for SAPT in psi4, default
symmetry c1  #important for SAPT in psi4, default
}

set PROPERTIES_ORIGIN ["COM"]
properties('MP2/aug-cc-pvtz', properties = ['dipole'])
--------------------------------------------------------------------------

    Molecular point group: c1
  Charge       = 0
  Multiplicity = 1
  Basis Set: AUG-CC-PVTZ
    Blend: AUG-CC-PVTZ
  Basis Set: (AUG-CC-PVTZ AUX)
    Blend: AUG-CC-PVTZ-JKFIT

    Orbital Energies [Eh]
    ---------------------

    Doubly Occupied:

       1A    -15.539303     2A    -11.245355     3A    -11.220450
       4A    -11.215820     5A     -1.176114     6A     -1.037618
       7A     -0.898797     8A     -0.805931     9A     -0.667280
      10A     -0.609720    11A     -0.599205    12A     -0.560559
      13A     -0.524829    14A     -0.514452    15A     -0.486902
      16A     -0.470863    17A     -0.389397

  @DF-RHF Final Energy:  -173.35248816942834

   => Energetics <=

    Nuclear Repulsion Energy =            131.0498533900206155
    One-Electron Energy =                -492.8794973716940717
    Two-Electron Energy =                 188.4771558122451438
    Total Energy =                       -173.3524881694283408
  Basis Set: (AUG-CC-PVTZ AUX)
    Blend: AUG-CC-PVTZ-RI
    Molecular point group: c1

    Geometry (in Angstrom), charge = 0, multiplicity = 1:

       Center              X                  Y                   Z               Mass
    ------------   -----------------  -----------------  -----------------  -----------------
         N            1.914427828963     0.032106761748    -0.000293962939    14.003074004430
         C           -0.576777171037     0.529213761748     0.000164037061    12.000000000000
         C            0.550243828963    -0.504979238252    -0.000120962939    12.000000000000
         C           -1.963890171037    -0.109323238252     0.000245037061    12.000000000000
         H           -0.465544171037     1.175554761748     0.880290037061     1.007825032230
         H           -0.465804171037     1.175785761748    -0.879834962939     1.007825032230
         H            0.450201828963    -1.153315238252    -0.878407962939     1.007825032230
         H            0.450491828963    -1.153455238252     0.878105037061     1.007825032230
         H           -2.103900171037    -0.738547238252    -0.884162962939     1.007825032230
         H           -2.103764171037    -0.738725238252     0.884554037061     1.007825032230
         H           -2.751477171037     0.649236761748     0.000342037061     1.007825032230
         H            2.045049428963     0.674984361748     0.779933237061     1.007825032230
         H            2.044647728963     0.675515461748    -0.780164562939     1.007825032230

  Basis Set: AUG-CC-PVTZ
    Blend: AUG-CC-PVTZ
  Basis Set: (AUG-CC-PVTZ AUX)
    Blend: AUG-CC-PVTZ-JKFIT
	 Reference Energy          =    -173.3524881694283408 [Eh]
	 Singles Energy            =      -0.0000000000000000 [Eh]
	 Same-Spin Energy          =      -0.1804664091266694 [Eh]
	 Opposite-Spin Energy      =      -0.6593122020105527 [Eh]
	 Correlation Energy        =      -0.8397786111372221 [Eh]
	 Total Energy              =    -174.1922667805655749 [Eh]

	 ================> DF-SCS-MP2 Energies <==================
	-----------------------------------------------------------
	 SCS Same-Spin Scale       =       0.3333333333333333 [-]
	 SCS Opposite-Spin Scale   =       1.2000000000000000 [-]
	 SCS Same-Spin Energy      =      -0.0601554697088898 [Eh]
	 SCS Opposite-Spin Energy  =      -0.7911746424126632 [Eh]
	 SCS Correlation Energy    =      -0.8513301121215531 [Eh]
	 SCS Total Energy          =    -174.2038182815498999 [Eh]
	-----------------------------------------------------------

  Dipole Moment: [D]
     X:    -1.0751      Y:     1.1077      Z:     0.0006     Total:     1.5436

*** Psi4 exiting successfully. Buy a developer a beer!
