                               Psi4 1.3.2 release

  ==> Input File <==

--------------------------------------------------------------------------
#psi4
#
memory 32 gb

molecule  {
0 1
  N        1.9573170     0.0262400    -0.0003030
  C       -0.5338880     0.5233470     0.0001550
  C        0.5840652    -0.5206416    -0.0001303
  C       -1.9153760    -0.1272704     0.0002336
  H       -0.4226550     1.1696880     0.8802810
  H       -0.4229150     1.1699190    -0.8798440
  H        0.4930910    -1.1591820    -0.8784170
  H        0.4933810    -1.1593220     0.8780960
  H       -2.0610110    -0.7444140    -0.8841720
  H       -2.0608750    -0.7445920     0.8845450
  H       -2.7085880     0.6433700     0.0003330
  H        2.0796550     0.6282150     0.8131880
  H        2.0792360     0.6287680    -0.8134610
units angstrom
no_reorient  #important for SAPT in psi4, default
symmetry c1  #important for SAPT in psi4, default
}

set PROPERTIES_ORIGIN ["COM"]
properties('MP2/aug-cc-pvtz', properties = ['dipole'])
--------------------------------------------------------------------------

    Molecular point group: c1
  Charge       = 0
  Multiplicity = 1
  Basis Set: AUG-CC-PVTZ
    Blend: AUG-CC-PVTZ
  Basis Set: (AUG-CC-PVTZ AUX)
    Blend: AUG-CC-PVTZ-JKFIT

    Orbital Energies [Eh]
    ---------------------

    Doubly Occupied:

       1A    -15.538054     2A    -11.243852     3A    -11.220200
       4A    -11.215438     5A     -1.171426     6A     -1.037175
       7A     -0.897229     8A     -0.805377     9A     -0.673106
      10A     -0.604112    11A     -0.602852    12A     -0.559096
      13A     -0.520050    14A     -0.516672    15A     -0.487900
      16A     -0.473830    17A     -0.385688

  @DF-RHF Final Energy:  -173.35320525309183

   => Energetics <=

    Nuclear Repulsion Energy =            131.0255565980360473
    One-Electron Energy =                -492.8534085525409409
    Two-Electron Energy =                 188.4746467014130928
    Total Energy =                       -173.3532052530918293
  Basis Set: (AUG-CC-PVTZ AUX)
    Blend: AUG-CC-PVTZ-RI
    Molecular point group: c1

    Geometry (in Angstrom), charge = 0, multiplicity = 1:

       Center              X                  Y                   Z               Mass
    ------------   -----------------  -----------------  -----------------  -----------------
         N            1.915410128555     0.037945847989    -0.000293011841    14.003074004430
         C           -0.575794871445     0.535052847989     0.000164988159    12.000000000000
         C            0.542158328555    -0.508935752011    -0.000120311841    12.000000000000
         C           -1.957282871445    -0.115564552011     0.000243588159    12.000000000000
         H           -0.464561871445     1.181393847989     0.880290988159     1.007825032230
         H           -0.464821871445     1.181624847989    -0.879834011841     1.007825032230
         H            0.451184128555    -1.147476152011    -0.878407011841     1.007825032230
         H            0.451474128555    -1.147616152011     0.878105988159     1.007825032230
         H           -2.102917871445    -0.732708152011    -0.884162011841     1.007825032230
         H           -2.102781871445    -0.732886152011     0.884554988159     1.007825032230
         H           -2.750494871445     0.655075847989     0.000342988159     1.007825032230
         H            2.037748128555     0.639920847989     0.813197988159     1.007825032230
         H            2.037329128555     0.640473847989    -0.813451011841     1.007825032230

  Basis Set: AUG-CC-PVTZ
    Blend: AUG-CC-PVTZ
  Basis Set: (AUG-CC-PVTZ AUX)
    Blend: AUG-CC-PVTZ-JKFIT
	 Reference Energy          =    -173.3532052530918293 [Eh]
	 Singles Energy            =      -0.0000000000000000 [Eh]
	 Same-Spin Energy          =      -0.1803733830368140 [Eh]
	 Opposite-Spin Energy      =      -0.6592399393043242 [Eh]
	 Correlation Energy        =      -0.8396133223411382 [Eh]
	 Total Energy              =    -174.1928185754329661 [Eh]

	 ================> DF-SCS-MP2 Energies <==================
	-----------------------------------------------------------
	 SCS Same-Spin Scale       =       0.3333333333333333 [-]
	 SCS Opposite-Spin Scale   =       1.2000000000000000 [-]
	 SCS Same-Spin Energy      =      -0.0601244610122713 [Eh]
	 SCS Opposite-Spin Energy  =      -0.7910879271651891 [Eh]
	 SCS Correlation Energy    =      -0.8512123881774604 [Eh]
	 SCS Total Energy          =    -174.2044176412692877 [Eh]
	-----------------------------------------------------------

  Dipole Moment: [D]
     X:    -1.0722      Y:     1.0353      Z:     0.0006     Total:     1.4904

*** Psi4 exiting successfully. Buy a developer a beer!
