                               Psi4 1.3.2 release

  ==> Input File <==

--------------------------------------------------------------------------
#psi4
#
memory 32 gb

molecule  {
0 1
  N        1.9573170     0.0262400    -0.0003030
  C       -0.5338880     0.5233470     0.0001550
  C        0.5732763    -0.5310944    -0.0453663
  C       -1.9210010    -0.1151900     0.0002360
  H       -0.4538795     1.1889514     0.8692468
  H       -0.4229150     1.1699190    -0.8798440
  H        0.4930910    -1.1591820    -0.8784170
  H        0.4933810    -1.1593220     0.8780960
  H       -2.0610110    -0.7444140    -0.8841720
  H       -2.0608750    -0.7445920     0.8845450
  H       -2.7085880     0.6433700     0.0003330
  H        2.0796550     0.6282150     0.8131880
  H        2.0792360     0.6287680    -0.8134610
units angstrom
no_reorient  #important for SAPT in psi4, default
symmetry c1  #important for SAPT in psi4, default
}

set PROPERTIES_ORIGIN ["COM"]
properties('MP2/aug-cc-pvtz', properties = ['dipole'])
--------------------------------------------------------------------------

    Molecular point group: c1
  Charge       = 0
  Multiplicity = 1
  Basis Set: AUG-CC-PVTZ
    Blend: AUG-CC-PVTZ
  Basis Set: (AUG-CC-PVTZ AUX)
    Blend: AUG-CC-PVTZ-JKFIT

    Orbital Energies [Eh]
    ---------------------

    Doubly Occupied:

       1A    -15.537710     2A    -11.244688     3A    -11.220591
       4A    -11.215056     5A     -1.167414     6A     -1.037439
       7A     -0.898488     8A     -0.807030     9A     -0.671783
      10A     -0.605946    11A     -0.599722    12A     -0.560271
      13A     -0.522739    14A     -0.515239    15A     -0.489035
      16A     -0.470858    17A     -0.385533

  @DF-RHF Final Energy:  -173.34988143447976

   => Energetics <=

    Nuclear Repulsion Energy =            130.8732042408856842
    One-Electron Energy =                -492.5470849961312751
    Two-Electron Energy =                 188.3239993207658358
    Total Energy =                       -173.3498814344797552
  Basis Set: (AUG-CC-PVTZ AUX)
    Blend: AUG-CC-PVTZ-RI
    Molecular point group: c1

    Geometry (in Angstrom), charge = 0, multiplicity = 1:

       Center              X                  Y                   Z               Mass
    ------------   -----------------  -----------------  -----------------  -----------------
         N            1.919277101655     0.037286578821     0.009083844949    14.003074004430
         C           -0.571927898345     0.534393578821     0.009541844949    12.000000000000
         C            0.535236401655    -0.520047821179    -0.035979455051    12.000000000000
         C           -1.959040898345    -0.104143421179     0.009622844949    12.000000000000
         H           -0.491919398345     1.199997978821     0.878633644949     1.007825032230
         H           -0.460954898345     1.180965578821    -0.870457155051     1.007825032230
         H            0.455051101655    -1.148135421179    -0.869030155051     1.007825032230
         H            0.455341101655    -1.148275421179     0.887482844949     1.007825032230
         H           -2.099050898345    -0.733367421179    -0.874785155051     1.007825032230
         H           -2.098914898345    -0.733545421179     0.893931844949     1.007825032230
         H           -2.746627898345     0.654416578821     0.009719844949     1.007825032230
         H            2.041615101655     0.639261578821     0.822574844949     1.007825032230
         H            2.041196101655     0.639814578821    -0.804074155051     1.007825032230

  Basis Set: AUG-CC-PVTZ
    Blend: AUG-CC-PVTZ
  Basis Set: (AUG-CC-PVTZ AUX)
    Blend: AUG-CC-PVTZ-JKFIT
	 Reference Energy          =    -173.3498814344797552 [Eh]
	 Singles Energy            =      -0.0000000000000000 [Eh]
	 Same-Spin Energy          =      -0.1803371319381627 [Eh]
	 Opposite-Spin Energy      =      -0.6593887218429637 [Eh]
	 Correlation Energy        =      -0.8397258537811264 [Eh]
	 Total Energy              =    -174.1896072882608735 [Eh]

	 ================> DF-SCS-MP2 Energies <==================
	-----------------------------------------------------------
	 SCS Same-Spin Scale       =       0.3333333333333333 [-]
	 SCS Opposite-Spin Scale   =       1.2000000000000000 [-]
	 SCS Same-Spin Energy      =      -0.0601123773127209 [Eh]
	 SCS Opposite-Spin Energy  =      -0.7912664662115564 [Eh]
	 SCS Correlation Energy    =      -0.8513788435242773 [Eh]
	 SCS Total Energy          =    -174.2012602780040424 [Eh]
	-----------------------------------------------------------

  Dipole Moment: [D]
     X:    -1.1038      Y:     1.0371      Z:    -0.0332     Total:     1.5149

*** Psi4 exiting successfully. Buy a developer a beer!
