                               Psi4 1.3.2 release

  ==> Input File <==

--------------------------------------------------------------------------
#psi4
#
memory 32 gb

molecule  {
0 1
  N        1.9573170     0.0262400    -0.0003030
  C       -0.5338880     0.5233470     0.0001550
  C        0.5931330    -0.5108460    -0.0001300
  C       -1.9210010    -0.1151900     0.0002360
  H       -0.4226550     1.1696880     0.8802810
  H       -0.4229150     1.1699190    -0.8798440
  H        0.4930910    -1.1591820    -0.8784170
  H        0.4933810    -1.1593220     0.8780960
  H       -2.0610110    -0.7444140    -0.8841720
  H       -2.0608750    -0.7445920     0.8845450
  H       -2.7085880     0.6433700     0.0003330
  H        2.0852161     0.6556738     0.7912544
  H        2.0848085     0.6562123    -0.7915116
units angstrom
no_reorient  #important for SAPT in psi4, default
symmetry c1  #important for SAPT in psi4, default
}

set PROPERTIES_ORIGIN ["COM"]
properties('MP2/aug-cc-pvtz', properties = ['dipole'])
--------------------------------------------------------------------------

    Molecular point group: c1
  Charge       = 0
  Multiplicity = 1
  Basis Set: AUG-CC-PVTZ
    Blend: AUG-CC-PVTZ
  Basis Set: (AUG-CC-PVTZ AUX)
    Blend: AUG-CC-PVTZ-JKFIT

    Orbital Energies [Eh]
    ---------------------

    Doubly Occupied:

       1A    -15.539152     2A    -11.245034     3A    -11.220273
       4A    -11.215720     5A     -1.175770     6A     -1.037355
       7A     -0.898172     8A     -0.805397     9A     -0.669299
      10A     -0.608383    11A     -0.600591    12A     -0.560333
      13A     -0.523883    14A     -0.515164    15A     -0.486739
      16A     -0.470900    17A     -0.388540

  @DF-RHF Final Energy:  -173.35307405591010

   => Energetics <=

    Nuclear Repulsion Energy =            131.0566913168472070
    One-Electron Energy =                -492.8981200203579078
    Two-Electron Energy =                 188.4883546476006018
    Total Energy =                       -173.3530740559100991
  Basis Set: (AUG-CC-PVTZ AUX)
    Blend: AUG-CC-PVTZ-RI
    Molecular point group: c1

    Geometry (in Angstrom), charge = 0, multiplicity = 1:

       Center              X                  Y                   Z               Mass
    ------------   -----------------  -----------------  -----------------  -----------------
         N            1.914520824190     0.032565352127    -0.000293829867    14.003074004430
         C           -0.576684175810     0.529672352127     0.000164170133    12.000000000000
         C            0.550336824190    -0.504520647873    -0.000120829867    12.000000000000
         C           -1.963797175810    -0.108864647873     0.000245170133    12.000000000000
         H           -0.465451175810     1.176013352127     0.880290170133     1.007825032230
         H           -0.465711175810     1.176244352127    -0.879834829867     1.007825032230
         H            0.450294824190    -1.152856647873    -0.878407829867     1.007825032230
         H            0.450584824190    -1.152996647873     0.878105170133     1.007825032230
         H           -2.103807175810    -0.738088647873    -0.884162829867     1.007825032230
         H           -2.103671175810    -0.738266647873     0.884554170133     1.007825032230
         H           -2.751384175810     0.649695352127     0.000342170133     1.007825032230
         H            2.042419924190     0.661999152127     0.791263570133     1.007825032230
         H            2.042012324190     0.662537652127    -0.791502429867     1.007825032230

  Basis Set: AUG-CC-PVTZ
    Blend: AUG-CC-PVTZ
  Basis Set: (AUG-CC-PVTZ AUX)
    Blend: AUG-CC-PVTZ-JKFIT
	 Reference Energy          =    -173.3530740559100991 [Eh]
	 Singles Energy            =      -0.0000000000000000 [Eh]
	 Same-Spin Energy          =      -0.1804417718484464 [Eh]
	 Opposite-Spin Energy      =      -0.6592582185335729 [Eh]
	 Correlation Energy        =      -0.8396999903820193 [Eh]
	 Total Energy              =    -174.1927740462921292 [Eh]

	 ================> DF-SCS-MP2 Energies <==================
	-----------------------------------------------------------
	 SCS Same-Spin Scale       =       0.3333333333333333 [-]
	 SCS Opposite-Spin Scale   =       1.2000000000000000 [-]
	 SCS Same-Spin Energy      =      -0.0601472572828155 [Eh]
	 SCS Opposite-Spin Energy  =      -0.7911098622402875 [Eh]
	 SCS Correlation Energy    =      -0.8512571195231029 [Eh]
	 SCS Total Energy          =    -174.2043311754331967 [Eh]
	-----------------------------------------------------------

  Dipole Moment: [D]
     X:    -1.0638      Y:     1.0897      Z:     0.0006     Total:     1.5229

*** Psi4 exiting successfully. Buy a developer a beer!
