                               Psi4 1.3.2 release

  ==> Input File <==

--------------------------------------------------------------------------
#psi4
#
memory 32 gb

molecule  {
0 1
  N        1.9573170     0.0262400    -0.0003030
  C       -0.5338880     0.5233470     0.0001550
  C        0.5563536    -0.5495485    -0.0001309
  C       -1.8978714    -0.1632106     0.0002264
  H       -0.4226550     1.1696880     0.8802810
  H       -0.4229150     1.1699190    -0.8798440
  H        0.4930910    -1.1591820    -0.8784170
  H        0.4933810    -1.1593220     0.8780960
  H       -2.0610110    -0.7444140    -0.8841720
  H       -2.0608750    -0.7445920     0.8845450
  H       -2.7085880     0.6433700     0.0003330
  H        2.0796550     0.6282150     0.8131880
  H        2.0792360     0.6287680    -0.8134610
units angstrom
no_reorient  #important for SAPT in psi4, default
symmetry c1  #important for SAPT in psi4, default
}

set PROPERTIES_ORIGIN ["COM"]
properties('MP2/aug-cc-pvtz', properties = ['dipole'])
--------------------------------------------------------------------------

    Molecular point group: c1
  Charge       = 0
  Multiplicity = 1
  Basis Set: AUG-CC-PVTZ
    Blend: AUG-CC-PVTZ
  Basis Set: (AUG-CC-PVTZ AUX)
    Blend: AUG-CC-PVTZ-JKFIT

    Orbital Energies [Eh]
    ---------------------

    Doubly Occupied:

       1A    -15.535696     2A    -11.242766     3A    -11.221378
       4A    -11.215700     5A     -1.160925     6A     -1.038433
       7A     -0.898308     8A     -0.808802     9A     -0.672654
      10A     -0.607289    11A     -0.594641    12A     -0.556594
      13A     -0.530775    14A     -0.501806    15A     -0.491292
      16A     -0.482184    17A     -0.381776

  @DF-RHF Final Energy:  -173.34768815402094

   => Energetics <=

    Nuclear Repulsion Energy =            130.9017285975996572
    One-Electron Energy =                -492.6167935733071772
    Two-Electron Energy =                 188.3673768216865483
    Total Energy =                       -173.3476881540209433
  Basis Set: (AUG-CC-PVTZ AUX)
    Blend: AUG-CC-PVTZ-RI
    Molecular point group: c1

    Geometry (in Angstrom), charge = 0, multiplicity = 1:

       Center              X                  Y                   Z               Mass
    ------------   -----------------  -----------------  -----------------  -----------------
         N            1.917483545594     0.051118678604    -0.000291427375    14.003074004430
         C           -0.573721454406     0.548225678604     0.000166572625    12.000000000000
         C            0.516520145594    -0.524669821396    -0.000119327375    12.000000000000
         C           -1.937704854406    -0.138331921396     0.000237972625    12.000000000000
         H           -0.462488454406     1.194566678604     0.880292572625     1.007825032230
         H           -0.462748454406     1.194797678604    -0.879832427375     1.007825032230
         H            0.453257545594    -1.134303321396    -0.878405427375     1.007825032230
         H            0.453547545594    -1.134443321396     0.878107572625     1.007825032230
         H           -2.100844454406    -0.719535321396    -0.884160427375     1.007825032230
         H           -2.100708454406    -0.719713321396     0.884556572625     1.007825032230
         H           -2.748421454406     0.668248678604     0.000344572625     1.007825032230
         H            2.039821545594     0.653093678604     0.813199572625     1.007825032230
         H            2.039402545594     0.653646678604    -0.813449427375     1.007825032230

  Basis Set: AUG-CC-PVTZ
    Blend: AUG-CC-PVTZ
  Basis Set: (AUG-CC-PVTZ AUX)
    Blend: AUG-CC-PVTZ-JKFIT
	 Reference Energy          =    -173.3476881540209433 [Eh]
	 Singles Energy            =      -0.0000000000000000 [Eh]
	 Same-Spin Energy          =      -0.1803368409666879 [Eh]
	 Opposite-Spin Energy      =      -0.6596186869482252 [Eh]
	 Correlation Energy        =      -0.8399555279149131 [Eh]
	 Total Energy              =    -174.1876436819358673 [Eh]

	 ================> DF-SCS-MP2 Energies <==================
	-----------------------------------------------------------
	 SCS Same-Spin Scale       =       0.3333333333333333 [-]
	 SCS Opposite-Spin Scale   =       1.2000000000000000 [-]
	 SCS Same-Spin Energy      =      -0.0601122803222293 [Eh]
	 SCS Opposite-Spin Energy  =      -0.7915424243378703 [Eh]
	 SCS Correlation Energy    =      -0.8516547046600995 [Eh]
	 SCS Total Energy          =    -174.1993428586810353 [Eh]
	-----------------------------------------------------------

  Dipole Moment: [D]
     X:    -1.1603      Y:     0.9849      Z:     0.0006     Total:     1.5219

*** Psi4 exiting successfully. Buy a developer a beer!
