                               Psi4 1.4a3.dev225

  ==> Input File <==

--------------------------------------------------------------------------
#psi4
#
memory 32 gb

molecule  {
0 1
  N        1.9567340     0.0254830    -0.0000010
  C       -0.5337590     0.5239430     0.0000000
  C        0.5924050    -0.5103730    -0.0000030
  C       -1.9201290    -0.1150620     0.0000010
  H       -0.4211530     1.1712430     0.8793960
  H       -0.4211550     1.1712460    -0.8793930
  H        0.4914030    -1.1596150    -0.8777340
  H        0.4914020    -1.1596250     0.8777200
  H       -2.0588170    -0.7452150    -0.8839620
  H       -2.0588250    -0.7451950     0.8839770
  H       -2.7099090     0.6412230    -0.0000110
  H        2.0818185     0.6400597     0.8290652
  H        2.0794030     0.6282730    -0.8130910
units angstrom
no_reorient  #important for SAPT in psi4, default
symmetry c1  #important for SAPT in psi4, default
}

set PROPERTIES_ORIGIN ["COM"]
properties('MP2/aug-cc-pvtz', properties = ['dipole'])
--------------------------------------------------------------------------

    Molecular point group: c1
  Charge       = 0
  Multiplicity = 1
  Basis Set: AUG-CC-PVTZ
    Blend: AUG-CC-PVTZ
  Basis Set: (AUG-CC-PVTZ AUX)
    Blend: AUG-CC-PVTZ-JKFIT

    Orbital Energies [Eh]
    ---------------------

    Doubly Occupied:

       1A    -15.541188     2A    -11.244463     3A    -11.219860
       4A    -11.215499     5A     -1.172979     6A     -1.036485
       7A     -0.896193     8A     -0.804132     9A     -0.671456
      10A     -0.605668    11A     -0.601433    12A     -0.559888
      13A     -0.521924    14A     -0.515348    15A     -0.486655
      16A     -0.470516    17A     -0.386679

  @DF-RHF Final Energy:  -173.35256557537653

   => Energetics <=

    Nuclear Repulsion Energy =            131.0047548073154076
    One-Electron Energy =                -492.8139087403747567
    Two-Electron Energy =                 188.4565883576828185
    Total Energy =                       -173.3525655753765307
  Basis Set: (AUG-CC-PVTZ AUX)
    Blend: AUG-CC-PVTZ-RI
    Molecular point group: c1

    Geometry (in Angstrom), charge = 0, multiplicity = 1:

       Center              X                  Y                   Z               Mass
    ------------   -----------------  -----------------  -----------------  -----------------
         N            1.914127792169     0.032511654427    -0.000272765529    14.003074004430
         C           -0.576365207831     0.530971654427    -0.000271765529    12.000000000000
         C            0.549798792169    -0.503344345573    -0.000274765529    12.000000000000
         C           -1.962735207831    -0.108033345573    -0.000270765529    12.000000000000
         H           -0.463759207831     1.178271654427     0.879124234471     1.007825032230
         H           -0.463761207831     1.178274654427    -0.879664765529     1.007825032230
         H            0.448796792169    -1.152586345573    -0.878005765529     1.007825032230
         H            0.448795792169    -1.152596345573     0.877448234471     1.007825032230
         H           -2.101423207831    -0.738186345573    -0.884233765529     1.007825032230
         H           -2.101431207831    -0.738166345573     0.883705234471     1.007825032230
         H           -2.752515207831     0.648251654427    -0.000282765529     1.007825032230
         H            2.039212292169     0.647088354427     0.828793434471     1.007825032230
         H            2.036796792169     0.635301654427    -0.813362765529     1.007825032230

  Basis Set: AUG-CC-PVTZ
    Blend: AUG-CC-PVTZ
  Basis Set: (AUG-CC-PVTZ AUX)
    Blend: AUG-CC-PVTZ-JKFIT
	 Reference Energy          =    -173.3525655753765307 [Eh]
	 Singles Energy            =      -0.0000000000000000 [Eh]
	 Same-Spin Energy          =      -0.1805292029893632 [Eh]
	 Opposite-Spin Energy      =      -0.6595397180838849 [Eh]
	 Correlation Energy        =      -0.8400689210732482 [Eh]
	 Total Energy              =    -174.1926344964497844 [Eh]

	 ================> DF-SCS-MP2 Energies <==================
	-----------------------------------------------------------
	 SCS Same-Spin Scale       =       0.3333333333333333 [-]
	 SCS Opposite-Spin Scale   =       1.2000000000000000 [-]
	 SCS Same-Spin Energy      =      -0.0601764009964544 [Eh]
	 SCS Opposite-Spin Energy  =      -0.7914476617006618 [Eh]
	 SCS Correlation Energy    =      -0.8516240626971162 [Eh]
	 SCS Total Energy          =    -174.2041896380736432 [Eh]
	-----------------------------------------------------------

  Dipole Moment: [D]
     X:    -1.0402      Y:     1.0515      Z:     0.0024     Total:     1.4791

*** Psi4 exiting successfully. Buy a developer a beer!
