                               Psi4 1.3.2 release

  ==> Input File <==

--------------------------------------------------------------------------
#psi4
#
memory 32 gb

molecule  {
0 1
  N        1.9573170     0.0262400    -0.0003030
  C       -0.5338880     0.5233470     0.0001550
  C        0.5931330    -0.5108460    -0.0001300
  C       -1.9210010    -0.1151900     0.0002360
  H       -0.4226550     1.1696880     0.8802810
  H       -0.4229150     1.1699190    -0.8798440
  H        0.4930910    -1.1591820    -0.8784170
  H        0.4933810    -1.1593220     0.8780960
  H       -2.0610110    -0.7444140    -0.8841720
  H       -2.0608750    -0.7445920     0.8845450
  H       -2.7085880     0.6433700     0.0003330
  H        2.1036578     0.7463227     0.9727952
  H        2.0792360     0.6287680    -0.8134610
units angstrom
no_reorient  #important for SAPT in psi4, default
symmetry c1  #important for SAPT in psi4, default
}

set PROPERTIES_ORIGIN ["COM"]
properties('MP2/aug-cc-pvtz', properties = ['dipole'])
--------------------------------------------------------------------------

    Molecular point group: c1
  Charge       = 0
  Multiplicity = 1
  Basis Set: AUG-CC-PVTZ
    Blend: AUG-CC-PVTZ
  Basis Set: (AUG-CC-PVTZ AUX)
    Blend: AUG-CC-PVTZ-JKFIT

    Orbital Energies [Eh]
    ---------------------

    Doubly Occupied:

       1A    -15.559794     2A    -11.245877     3A    -11.219887
       4A    -11.215506     5A     -1.159348     6A     -1.033094
       7A     -0.891282     8A     -0.802252     9A     -0.659439
      10A     -0.605731    11A     -0.585416    12A     -0.558878
      13A     -0.521465    14A     -0.504806    15A     -0.486503
      16A     -0.469197    17A     -0.385316

  @DF-RHF Final Energy:  -173.32596995752721

   => Energetics <=

    Nuclear Repulsion Energy =            130.2606276846902063
    One-Electron Energy =                -491.3656097057428838
    Two-Electron Energy =                 187.7790120635254993
    Total Energy =                       -173.3259699575272066
  Basis Set: (AUG-CC-PVTZ AUX)
    Blend: AUG-CC-PVTZ-RI
    Molecular point group: c1

    Geometry (in Angstrom), charge = 0, multiplicity = 1:

       Center              X                  Y                   Z               Mass
    ------------   -----------------  -----------------  -----------------  -----------------
         N            1.914301268855     0.031487048339    -0.003016543263    14.003074004430
         C           -0.576903731145     0.528594048339    -0.002558543263    12.000000000000
         C            0.550117268855    -0.505598951661    -0.002843543263    12.000000000000
         C           -1.964016731145    -0.109942951661    -0.002477543263    12.000000000000
         H           -0.465670731145     1.174935048339     0.877567456737     1.007825032230
         H           -0.465930731145     1.175166048339    -0.882557543263     1.007825032230
         H            0.450075268855    -1.153934951661    -0.881130543263     1.007825032230
         H            0.450365268855    -1.154074951661     0.875382456737     1.007825032230
         H           -2.104026731145    -0.739166951661    -0.886885543263     1.007825032230
         H           -2.103890731145    -0.739344951661     0.881831456737     1.007825032230
         H           -2.751603731145     0.648617048339    -0.002380543263     1.007825032230
         H            2.060642068855     0.751569748339     0.970081656737     1.007825032230
         H            2.036220268855     0.634015048339    -0.816174543263     1.007825032230

  Basis Set: AUG-CC-PVTZ
    Blend: AUG-CC-PVTZ
  Basis Set: (AUG-CC-PVTZ AUX)
    Blend: AUG-CC-PVTZ-JKFIT
	 Reference Energy          =    -173.3259699575272066 [Eh]
	 Singles Energy            =      -0.0000000000000000 [Eh]
	 Same-Spin Energy          =      -0.1812240384550104 [Eh]
	 Opposite-Spin Energy      =      -0.6628714447248778 [Eh]
	 Correlation Energy        =      -0.8440954831798881 [Eh]
	 Total Energy              =    -174.1700654407071056 [Eh]

	 ================> DF-SCS-MP2 Energies <==================
	-----------------------------------------------------------
	 SCS Same-Spin Scale       =       0.3333333333333333 [-]
	 SCS Opposite-Spin Scale   =       1.2000000000000000 [-]
	 SCS Same-Spin Energy      =      -0.0604080128183368 [Eh]
	 SCS Opposite-Spin Energy  =      -0.7954457336698534 [Eh]
	 SCS Correlation Energy    =      -0.8558537464881901 [Eh]
	 SCS Total Energy          =    -174.1818237040153861 [Eh]
	-----------------------------------------------------------

  Dipole Moment: [D]
     X:    -1.0585      Y:     1.0177      Z:     0.0037     Total:     1.4684

*** Psi4 exiting successfully. Buy a developer a beer!
