                               Psi4 1.3.2 release

  ==> Input File <==

--------------------------------------------------------------------------
#psi4
#
memory 32 gb

molecule  {
0 1
  N        1.9573170     0.0262400    -0.0003030
  C       -0.5338880     0.5233470     0.0001550
  C        0.5839387    -0.4850408     0.0430943
  C       -1.9210010    -0.1151900     0.0002360
  H       -0.4226550     1.1696880     0.8802810
  H       -0.4229150     1.1699190    -0.8798440
  H        0.4930910    -1.1591820    -0.8784170
  H        0.4933810    -1.1593220     0.8780960
  H       -2.0610110    -0.7444140    -0.8841720
  H       -2.0608750    -0.7445920     0.8845450
  H       -2.7085880     0.6433700     0.0003330
  H        2.0460228     0.6213452     0.8225513
  H        2.0792360     0.6287680    -0.8134610
units angstrom
no_reorient  #important for SAPT in psi4, default
symmetry c1  #important for SAPT in psi4, default
}

set PROPERTIES_ORIGIN ["COM"]
properties('MP2/aug-cc-pvtz', properties = ['dipole'])
--------------------------------------------------------------------------

    Molecular point group: c1
  Charge       = 0
  Multiplicity = 1
  Basis Set: AUG-CC-PVTZ
    Blend: AUG-CC-PVTZ
  Basis Set: (AUG-CC-PVTZ AUX)
    Blend: AUG-CC-PVTZ-JKFIT

    Orbital Energies [Eh]
    ---------------------

    Doubly Occupied:

       1A    -15.540105     2A    -11.245407     3A    -11.220071
       4A    -11.216405     5A     -1.177816     6A     -1.040027
       7A     -0.897854     8A     -0.803139     9A     -0.674453
      10A     -0.609379    11A     -0.602343    12A     -0.563176
      13A     -0.523719    14A     -0.512477    15A     -0.487326
      16A     -0.463233    17A     -0.391557

  @DF-RHF Final Energy:  -173.34971072719438

   => Energetics <=

    Nuclear Repulsion Energy =            131.3314698325993675
    One-Electron Energy =                -493.4253837784468715
    Two-Electron Energy =                 188.7442032186530980
    Total Energy =                       -173.3497107271943776
  Basis Set: (AUG-CC-PVTZ AUX)
    Blend: AUG-CC-PVTZ-RI
    Molecular point group: c1

    Geometry (in Angstrom), charge = 0, multiplicity = 1:

       Center              X                  Y                   Z               Mass
    ------------   -----------------  -----------------  -----------------  -----------------
         N            1.917152252761     0.028377245311    -0.009233747949    14.003074004430
         C           -0.574052747239     0.525484245311    -0.008775747949    12.000000000000
         C            0.543773952761    -0.482903554689     0.034163552051    12.000000000000
         C           -1.961165747239    -0.113052754689    -0.008694747949    12.000000000000
         H           -0.462819747239     1.171825245311     0.871350252051     1.007825032230
         H           -0.463079747239     1.172056245311    -0.888774747949     1.007825032230
         H            0.452926252761    -1.157044754689    -0.887347747949     1.007825032230
         H            0.453216252761    -1.157184754689     0.869165252051     1.007825032230
         H           -2.101175747239    -0.742276754689    -0.893102747949     1.007825032230
         H           -2.101039747239    -0.742454754689     0.875614252051     1.007825032230
         H           -2.748752747239     0.645507245311    -0.008597747949     1.007825032230
         H            2.005858052761     0.623482445311     0.813620552051     1.007825032230
         H            2.039071252761     0.630905245311    -0.822391747949     1.007825032230

  Basis Set: AUG-CC-PVTZ
    Blend: AUG-CC-PVTZ
  Basis Set: (AUG-CC-PVTZ AUX)
    Blend: AUG-CC-PVTZ-JKFIT
	 Reference Energy          =    -173.3497107271943776 [Eh]
	 Singles Energy            =      -0.0000000000000000 [Eh]
	 Same-Spin Energy          =      -0.1807233054782143 [Eh]
	 Opposite-Spin Energy      =      -0.6597084129862074 [Eh]
	 Correlation Energy        =      -0.8404317184644218 [Eh]
	 Total Energy              =    -174.1901424456588074 [Eh]

	 ================> DF-SCS-MP2 Energies <==================
	-----------------------------------------------------------
	 SCS Same-Spin Scale       =       0.3333333333333333 [-]
	 SCS Opposite-Spin Scale   =       1.2000000000000000 [-]
	 SCS Same-Spin Energy      =      -0.0602411018260714 [Eh]
	 SCS Opposite-Spin Energy  =      -0.7916500955834489 [Eh]
	 SCS Correlation Energy    =      -0.8518911974095204 [Eh]
	 SCS Total Energy          =    -174.2016019246038923 [Eh]
	-----------------------------------------------------------

  Dipole Moment: [D]
     X:    -1.0799      Y:     1.0845      Z:     0.0327     Total:     1.5308

*** Psi4 exiting successfully. Buy a developer a beer!
