                               Psi4 1.4a3.dev225

  ==> Input File <==

--------------------------------------------------------------------------
#psi4
#
memory 32 gb

molecule  {
0 1
  N        1.9567340     0.0254830    -0.0000010
  C       -0.5337590     0.5239430     0.0000000
  C        0.5737894    -0.5176845    -0.0000030
  C       -1.9201290    -0.1150620     0.0000010
  H       -0.4211530     1.1712430     0.8793960
  H       -0.4211550     1.1712460    -0.8793930
  H        0.4914030    -1.1596150    -0.8777340
  H        0.4914020    -1.1596250     0.8777200
  H       -2.0588170    -0.7452150    -0.8839620
  H       -2.0588250    -0.7451950     0.8839770
  H       -2.7099090     0.6412230    -0.0000110
  H        2.0794120     0.6282360     0.8131150
  H        2.0794030     0.6282730    -0.8130910
units angstrom
no_reorient  #important for SAPT in psi4, default
symmetry c1  #important for SAPT in psi4, default
}

set PROPERTIES_ORIGIN ["COM"]
properties('MP2/aug-cc-pvtz', properties = ['dipole'])
--------------------------------------------------------------------------

    Molecular point group: c1
  Charge       = 0
  Multiplicity = 1
  Basis Set: AUG-CC-PVTZ
    Blend: AUG-CC-PVTZ
  Basis Set: (AUG-CC-PVTZ AUX)
    Blend: AUG-CC-PVTZ-JKFIT

    Orbital Energies [Eh]
    ---------------------

    Doubly Occupied:

       1A    -15.538189     2A    -11.244132     3A    -11.220165
       4A    -11.215629     5A     -1.169771     6A     -1.038363
       7A     -0.898253     8A     -0.805222     9A     -0.672323
      10A     -0.604211    11A     -0.602904    12A     -0.558920
      13A     -0.519298    14A     -0.518467    15A     -0.487286
      16A     -0.472490    17A     -0.387423

  @DF-RHF Final Energy:  -173.35311499924964

   => Energetics <=

    Nuclear Repulsion Energy =            131.0418682790818252
    One-Electron Energy =                -492.8838738696575206
    Two-Electron Energy =                 188.4888905913260544
    Total Energy =                       -173.3531149992496410
  Basis Set: (AUG-CC-PVTZ AUX)
    Blend: AUG-CC-PVTZ-RI
    Molecular point group: c1

    Geometry (in Angstrom), charge = 0, multiplicity = 1:

       Center              X                  Y                   Z               Mass
    ------------   -----------------  -----------------  -----------------  -----------------
         N            1.917950361233     0.034198607495    -0.000000646710    14.003074004430
         C           -0.572542638767     0.532658607495     0.000000353290    12.000000000000
         C            0.535005761233    -0.508968892505    -0.000002646710    12.000000000000
         C           -1.958912638767    -0.106346392505     0.000001353290    12.000000000000
         H           -0.459936638767     1.179958607495     0.879396353290     1.007825032230
         H           -0.459938638767     1.179961607495    -0.879392646710     1.007825032230
         H            0.452619361233    -1.150899392505    -0.877733646710     1.007825032230
         H            0.452618361233    -1.150909392505     0.877720353290     1.007825032230
         H           -2.097600638767    -0.736499392505    -0.883961646710     1.007825032230
         H           -2.097608638767    -0.736479392505     0.883977353290     1.007825032230
         H           -2.748692638767     0.649938607495    -0.000010646710     1.007825032230
         H            2.040628361233     0.636951607495     0.813115353290     1.007825032230
         H            2.040619361233     0.636988607495    -0.813090646710     1.007825032230

  Basis Set: AUG-CC-PVTZ
    Blend: AUG-CC-PVTZ
  Basis Set: (AUG-CC-PVTZ AUX)
    Blend: AUG-CC-PVTZ-JKFIT
	 Reference Energy          =    -173.3531149992496410 [Eh]
	 Singles Energy            =      -0.0000000000000000 [Eh]
	 Same-Spin Energy          =      -0.1804149021436834 [Eh]
	 Opposite-Spin Energy      =      -0.6593349416260457 [Eh]
	 Correlation Energy        =      -0.8397498437697291 [Eh]
	 Total Energy              =    -174.1928648430193789 [Eh]

	 ================> DF-SCS-MP2 Energies <==================
	-----------------------------------------------------------
	 SCS Same-Spin Scale       =       0.3333333333333333 [-]
	 SCS Opposite-Spin Scale   =       1.2000000000000000 [-]
	 SCS Same-Spin Energy      =      -0.0601383007145611 [Eh]
	 SCS Opposite-Spin Energy  =      -0.7912019299512548 [Eh]
	 SCS Correlation Energy    =      -0.8513402306658160 [Eh]
	 SCS Total Energy          =    -174.2044552299154532 [Eh]
	-----------------------------------------------------------

  Dipole Moment: [D]
     X:    -1.0940      Y:     1.0429      Z:     0.0000     Total:     1.5115

*** Psi4 exiting successfully. Buy a developer a beer!
