                               Psi4 1.3.2 release

  ==> Input File <==

--------------------------------------------------------------------------
#psi4
#
memory 32 gb

molecule  {
0 1
  N        1.9573170     0.0262400    -0.0003030
  C       -0.5338880     0.5233470     0.0001550
  C        0.5882966    -0.5160272    -0.0114412
  C       -1.9210010    -0.1151900     0.0002360
  H       -0.4304499     1.1745786     0.8776225
  H       -0.4229150     1.1699190    -0.8798440
  H        0.4930910    -1.1591820    -0.8784170
  H        0.4933810    -1.1593220     0.8780960
  H       -2.0610110    -0.7444140    -0.8841720
  H       -2.0608750    -0.7445920     0.8845450
  H       -2.7085880     0.6433700     0.0003330
  H        2.0796550     0.6282150     0.8131880
  H        2.0792360     0.6287680    -0.8134610
units angstrom
no_reorient  #important for SAPT in psi4, default
symmetry c1  #important for SAPT in psi4, default
}

set PROPERTIES_ORIGIN ["COM"]
properties('MP2/aug-cc-pvtz', properties = ['dipole'])
--------------------------------------------------------------------------

    Molecular point group: c1
  Charge       = 0
  Multiplicity = 1
  Basis Set: AUG-CC-PVTZ
    Blend: AUG-CC-PVTZ
  Basis Set: (AUG-CC-PVTZ AUX)
    Blend: AUG-CC-PVTZ-JKFIT

    Orbital Energies [Eh]
    ---------------------

    Doubly Occupied:

       1A    -15.538518     2A    -11.244369     3A    -11.220032
       4A    -11.215390     5A     -1.173207     6A     -1.036965
       7A     -0.897252     8A     -0.804890     9A     -0.673151
      10A     -0.605389    11A     -0.602602    12A     -0.559505
      13A     -0.521216    14A     -0.517115    15A     -0.486878
      16A     -0.471563    17A     -0.386554

  @DF-RHF Final Energy:  -173.35334458112013

   => Energetics <=

    Nuclear Repulsion Energy =            131.0221748027865658
    One-Electron Energy =                -492.8418440154179052
    Two-Electron Energy =                 188.4663246315111849
    Total Energy =                       -173.3533445811201261
  Basis Set: (AUG-CC-PVTZ AUX)
    Blend: AUG-CC-PVTZ-RI
    Molecular point group: c1

    Geometry (in Angstrom), charge = 0, multiplicity = 1:

       Center              X                  Y                   Z               Mass
    ------------   -----------------  -----------------  -----------------  -----------------
         N            1.915826205064     0.034471083983     0.002049515764    14.003074004430
         C           -0.575378794936     0.531578083983     0.002507515764    12.000000000000
         C            0.546805805064    -0.507796116017    -0.009088684236    12.000000000000
         C           -1.962491794936    -0.106958916017     0.002588515764    12.000000000000
         H           -0.471940694936     1.182809683983     0.879975015764     1.007825032230
         H           -0.464405794936     1.178150083983    -0.877491484236     1.007825032230
         H            0.451600205064    -1.150950916017    -0.876064484236     1.007825032230
         H            0.451890205064    -1.151090916017     0.880448515764     1.007825032230
         H           -2.102501794936    -0.736182916017    -0.881819484236     1.007825032230
         H           -2.102365794936    -0.736360916017     0.886897515764     1.007825032230
         H           -2.750078794936     0.651601083983     0.002685515764     1.007825032230
         H            2.038164205064     0.636446083983     0.815540515764     1.007825032230
         H            2.037745205064     0.636999083983    -0.811108484236     1.007825032230

  Basis Set: AUG-CC-PVTZ
    Blend: AUG-CC-PVTZ
  Basis Set: (AUG-CC-PVTZ AUX)
    Blend: AUG-CC-PVTZ-JKFIT
	 Reference Energy          =    -173.3533445811201261 [Eh]
	 Singles Energy            =      -0.0000000000000000 [Eh]
	 Same-Spin Energy          =      -0.1803876948844084 [Eh]
	 Opposite-Spin Energy      =      -0.6592091837235841 [Eh]
	 Correlation Energy        =      -0.8395968786079924 [Eh]
	 Total Energy              =    -174.1929414597281323 [Eh]

	 ================> DF-SCS-MP2 Energies <==================
	-----------------------------------------------------------
	 SCS Same-Spin Scale       =       0.3333333333333333 [-]
	 SCS Opposite-Spin Scale   =       1.2000000000000000 [-]
	 SCS Same-Spin Energy      =      -0.0601292316281361 [Eh]
	 SCS Opposite-Spin Energy  =      -0.7910510204683009 [Eh]
	 SCS Correlation Energy    =      -0.8511802520964370 [Eh]
	 SCS Total Energy          =    -174.2045248332165670 [Eh]
	-----------------------------------------------------------

  Dipole Moment: [D]
     X:    -1.0566      Y:     1.0478      Z:    -0.0083     Total:     1.4881

*** Psi4 exiting successfully. Buy a developer a beer!
