                               Psi4 1.3.2 release

  ==> Input File <==

--------------------------------------------------------------------------
#psi4
#
memory 32 gb

molecule  {
0 1
  N        1.9573170     0.0262400    -0.0003030
  C       -0.5338880     0.5233470     0.0001550
  C        0.6100367    -0.5483172    -0.0649505
  C       -1.9210010    -0.1151900     0.0002360
  H       -0.4226550     1.1696880     0.8802810
  H       -0.4229150     1.1699190    -0.8798440
  H        0.4930910    -1.1591820    -0.8784170
  H        0.4933810    -1.1593220     0.8780960
  H       -2.0610110    -0.7444140    -0.8841720
  H       -2.0608750    -0.7445920     0.8845450
  H       -2.7085880     0.6433700     0.0003330
  H        2.1298111     0.6371422     0.7972886
  H        2.0792360     0.6287680    -0.8134610
units angstrom
no_reorient  #important for SAPT in psi4, default
symmetry c1  #important for SAPT in psi4, default
}

set PROPERTIES_ORIGIN ["COM"]
properties('MP2/aug-cc-pvtz', properties = ['dipole'])
--------------------------------------------------------------------------

    Molecular point group: c1
  Charge       = 0
  Multiplicity = 1
  Basis Set: AUG-CC-PVTZ
    Blend: AUG-CC-PVTZ
  Basis Set: (AUG-CC-PVTZ AUX)
    Blend: AUG-CC-PVTZ-JKFIT

    Orbital Energies [Eh]
    ---------------------

    Doubly Occupied:

       1A    -15.537588     2A    -11.244793     3A    -11.220381
       4A    -11.214288     5A     -1.172222     6A     -1.032448
       7A     -0.897575     8A     -0.807539     9A     -0.671647
      10A     -0.608858    11A     -0.597666    12A     -0.564317
      13A     -0.524310    14A     -0.514278    15A     -0.488617
      16A     -0.470102    17A     -0.378462

  @DF-RHF Final Energy:  -173.34627874270114

   => Energetics <=

    Nuclear Repulsion Energy =            130.6638475301525659
    One-Electron Energy =                -492.1300730501247926
    Two-Electron Energy =                 188.1199467772710818
    Total Energy =                       -173.3462787427011449
  Basis Set: (AUG-CC-PVTZ AUX)
    Blend: AUG-CC-PVTZ-RI
    Molecular point group: c1

    Geometry (in Angstrom), charge = 0, multiplicity = 1:

       Center              X                  Y                   Z               Mass
    ------------   -----------------  -----------------  -----------------  -----------------
         N            1.910421316708     0.040961503850     0.013145119009    14.003074004430
         C           -0.580783683292     0.538068503850     0.013603119009    12.000000000000
         C            0.563141016708    -0.533595696150    -0.051502380991    12.000000000000
         C           -1.967896683292    -0.100468496150     0.013684119009    12.000000000000
         H           -0.469550683292     1.184409503850     0.893729119009     1.007825032230
         H           -0.469810683292     1.184640503850    -0.866395880991     1.007825032230
         H            0.446195316708    -1.144460496150    -0.864968880991     1.007825032230
         H            0.446485316708    -1.144600496150     0.891544119009     1.007825032230
         H           -2.107906683292    -0.729692496150    -0.870723880991     1.007825032230
         H           -2.107770683292    -0.729870496150     0.897993119009     1.007825032230
         H           -2.755483683292     0.658091503850     0.013781119009     1.007825032230
         H            2.082915416708     0.651863703850     0.810736719009     1.007825032230
         H            2.032340316708     0.643489503850    -0.800012880991     1.007825032230

  Basis Set: AUG-CC-PVTZ
    Blend: AUG-CC-PVTZ
  Basis Set: (AUG-CC-PVTZ AUX)
    Blend: AUG-CC-PVTZ-JKFIT
	 Reference Energy          =    -173.3462787427011449 [Eh]
	 Singles Energy            =      -0.0000000000000000 [Eh]
	 Same-Spin Energy          =      -0.1802636139813660 [Eh]
	 Opposite-Spin Energy      =      -0.6591658178849895 [Eh]
	 Correlation Energy        =      -0.8394294318663555 [Eh]
	 Total Energy              =    -174.1857081745675089 [Eh]

	 ================> DF-SCS-MP2 Energies <==================
	-----------------------------------------------------------
	 SCS Same-Spin Scale       =       0.3333333333333333 [-]
	 SCS Opposite-Spin Scale   =       1.2000000000000000 [-]
	 SCS Same-Spin Energy      =      -0.0600878713271220 [Eh]
	 SCS Opposite-Spin Energy  =      -0.7909989814619874 [Eh]
	 SCS Correlation Energy    =      -0.8510868527891094 [Eh]
	 SCS Total Energy          =    -174.1973655954902540 [Eh]
	-----------------------------------------------------------

  Dipole Moment: [D]
     X:    -0.9706      Y:     1.0206      Z:    -0.0401     Total:     1.4090

*** Psi4 exiting successfully. Buy a developer a beer!
