                               Psi4 1.3.2 release

  ==> Input File <==

--------------------------------------------------------------------------
#psi4
#
memory 32 gb

molecule  {
0 1
  N        1.9735461    -0.0174262    -0.0214846
  C       -0.5338880     0.5233470     0.0001550
  C        0.5931330    -0.5108460    -0.0001300
  C       -1.9210010    -0.1151900     0.0002360
  H       -0.4872587     1.1317313     0.8749909
  H       -0.4229150     1.1699190    -0.8798440
  H        0.4930910    -1.1591820    -0.8784170
  H        0.4933810    -1.1593220     0.8780960
  H       -2.0610110    -0.7444140    -0.8841720
  H       -2.0608750    -0.7445920     0.8845450
  H       -2.7085880     0.6433700     0.0003330
  H        2.0796550     0.6282150     0.8131880
  H        2.0792360     0.6287680    -0.8134610
units angstrom
no_reorient  #important for SAPT in psi4, default
symmetry c1  #important for SAPT in psi4, default
}

set PROPERTIES_ORIGIN ["COM"]
properties('MP2/aug-cc-pvtz', properties = ['dipole'])
--------------------------------------------------------------------------

    Molecular point group: c1
  Charge       = 0
  Multiplicity = 1
  Basis Set: AUG-CC-PVTZ
    Blend: AUG-CC-PVTZ
  Basis Set: (AUG-CC-PVTZ AUX)
    Blend: AUG-CC-PVTZ-JKFIT

    Orbital Energies [Eh]
    ---------------------

    Doubly Occupied:

       1A    -15.546469     2A    -11.244419     3A    -11.217504
       4A    -11.215374     5A     -1.172660     6A     -1.038924
       7A     -0.895109     8A     -0.806294     9A     -0.668576
      10A     -0.606539    11A     -0.601937    12A     -0.557408
      13A     -0.523899    14A     -0.512706    15A     -0.483943
      16A     -0.473123    17A     -0.392898

  @DF-RHF Final Energy:  -173.34905718924571

   => Energetics <=

    Nuclear Repulsion Energy =            130.9061189825995370
    One-Electron Energy =                -492.5947852432904028
    Two-Electron Energy =                 188.3396090714451532
    Total Energy =                       -173.3490571892457126
  Basis Set: (AUG-CC-PVTZ AUX)
    Blend: AUG-CC-PVTZ-RI
    Molecular point group: c1

    Geometry (in Angstrom), charge = 0, multiplicity = 1:

       Center              X                  Y                   Z               Mass
    ------------   -----------------  -----------------  -----------------  -----------------
         N            1.928195016434     0.000834240947    -0.016363917348    14.003074004430
         C           -0.579239083566     0.541607440947     0.005275682652    12.000000000000
         C            0.547781916434    -0.492585559053     0.004990682652    12.000000000000
         C           -1.966352083566    -0.096929559053     0.005356682652    12.000000000000
         H           -0.532609783566     1.149991740947     0.880111582652     1.007825032230
         H           -0.468266083566     1.188179440947    -0.874723317348     1.007825032230
         H            0.447739916434    -1.140921559053    -0.873296317348     1.007825032230
         H            0.448029916434    -1.141061559053     0.883216682652     1.007825032230
         H           -2.106362083566    -0.726153559053    -0.879051317348     1.007825032230
         H           -2.106226083566    -0.726331559053     0.889665682652     1.007825032230
         H           -2.753939083566     0.661630440947     0.005453682652     1.007825032230
         H            2.034303916434     0.646475440947     0.818308682652     1.007825032230
         H            2.033884916434     0.647028440947    -0.808340317348     1.007825032230

  Basis Set: AUG-CC-PVTZ
    Blend: AUG-CC-PVTZ
  Basis Set: (AUG-CC-PVTZ AUX)
    Blend: AUG-CC-PVTZ-JKFIT
	 Reference Energy          =    -173.3490571892457126 [Eh]
	 Singles Energy            =      -0.0000000000000000 [Eh]
	 Same-Spin Energy          =      -0.1807517915419045 [Eh]
	 Opposite-Spin Energy      =      -0.6602465308679160 [Eh]
	 Correlation Energy        =      -0.8409983224098205 [Eh]
	 Total Energy              =    -174.1900555116555438 [Eh]

	 ================> DF-SCS-MP2 Energies <==================
	-----------------------------------------------------------
	 SCS Same-Spin Scale       =       0.3333333333333333 [-]
	 SCS Opposite-Spin Scale   =       1.2000000000000000 [-]
	 SCS Same-Spin Energy      =      -0.0602505971806348 [Eh]
	 SCS Opposite-Spin Energy  =      -0.7922958370414991 [Eh]
	 SCS Correlation Energy    =      -0.8525464342221339 [Eh]
	 SCS Total Energy          =    -174.2016036234678324 [Eh]
	-----------------------------------------------------------

  Dipole Moment: [D]
     X:    -1.1093      Y:     1.1403      Z:     0.0477     Total:     1.5916

*** Psi4 exiting successfully. Buy a developer a beer!
