                               Psi4 1.4a3.dev225

  ==> Input File <==

--------------------------------------------------------------------------
#psi4
#
memory 32 gb

molecule  {
0 1
  N        1.9567340     0.0254830    -0.0000010
  C       -0.5337590     0.5239430     0.0000000
  C        0.5924050    -0.5103730    -0.0000030
  C       -1.9201290    -0.1150620     0.0000010
  H       -0.4211530     1.1712430     0.8793960
  H       -0.4211550     1.1712460    -0.8793930
  H        0.4914030    -1.1596150    -0.8777340
  H        0.4914020    -1.1596250     0.8777200
  H       -2.0588170    -0.7452150    -0.8839620
  H       -2.0588250    -0.7451950     0.8839770
  H       -2.7099090     0.6412230    -0.0000110
  H        2.0854282     0.6577952     0.8529905
  H        2.0794030     0.6282730    -0.8130910
units angstrom
no_reorient  #important for SAPT in psi4, default
symmetry c1  #important for SAPT in psi4, default
}

set PROPERTIES_ORIGIN ["COM"]
properties('MP2/aug-cc-pvtz', properties = ['dipole'])
--------------------------------------------------------------------------

    Molecular point group: c1
  Charge       = 0
  Multiplicity = 1
  Basis Set: AUG-CC-PVTZ
    Blend: AUG-CC-PVTZ
  Basis Set: (AUG-CC-PVTZ AUX)
    Blend: AUG-CC-PVTZ-JKFIT

    Orbital Energies [Eh]
    ---------------------

    Doubly Occupied:

       1A    -15.544535     2A    -11.244621     3A    -11.219825
       4A    -11.215475     5A     -1.169874     6A     -1.035777
       7A     -0.895106     8A     -0.803710     9A     -0.668748
      10A     -0.605460    11A     -0.598829    12A     -0.559707
      13A     -0.521705    14A     -0.514034    15A     -0.486634
      16A     -0.470319    17A     -0.386402

  @DF-RHF Final Energy:  -173.35012724625884

   => Energetics <=

    Nuclear Repulsion Energy =            130.8720896509024669
    One-Electron Energy =                -492.5629082721348482
    Two-Electron Energy =                 188.3406913749735452
    Total Energy =                       -173.3501272462588361
  Basis Set: (AUG-CC-PVTZ AUX)
    Blend: AUG-CC-PVTZ-RI
    Molecular point group: c1

    Geometry (in Angstrom), charge = 0, multiplicity = 1:

       Center              X                  Y                   Z               Mass
    ------------   -----------------  -----------------  -----------------  -----------------
         N            1.914066208784     0.032209077450    -0.000680943757    14.003074004430
         C           -0.576426791216     0.530669077450    -0.000679943757    12.000000000000
         C            0.549737208784    -0.503646922550    -0.000682943757    12.000000000000
         C           -1.962796791216    -0.108335922550    -0.000678943757    12.000000000000
         H           -0.463820791216     1.177969077450     0.878716056243     1.007825032230
         H           -0.463822791216     1.177972077450    -0.880072943757     1.007825032230
         H            0.448735208784    -1.152888922550    -0.878413943757     1.007825032230
         H            0.448734208784    -1.152898922550     0.877040056243     1.007825032230
         H           -2.101484791216    -0.738488922550    -0.884641943757     1.007825032230
         H           -2.101492791216    -0.738468922550     0.883297056243     1.007825032230
         H           -2.752576791216     0.647949077450    -0.000690943757     1.007825032230
         H            2.042760408784     0.664521277450     0.852310556243     1.007825032230
         H            2.036735208784     0.634999077450    -0.813770943757     1.007825032230

  Basis Set: AUG-CC-PVTZ
    Blend: AUG-CC-PVTZ
  Basis Set: (AUG-CC-PVTZ AUX)
    Blend: AUG-CC-PVTZ-JKFIT
	 Reference Energy          =    -173.3501272462588361 [Eh]
	 Singles Energy            =      -0.0000000000000000 [Eh]
	 Same-Spin Energy          =      -0.1806595876279412 [Eh]
	 Opposite-Spin Energy      =      -0.6600494510243307 [Eh]
	 Correlation Energy        =      -0.8407090386522719 [Eh]
	 Total Energy              =    -174.1908362849111143 [Eh]

	 ================> DF-SCS-MP2 Energies <==================
	-----------------------------------------------------------
	 SCS Same-Spin Scale       =       0.3333333333333333 [-]
	 SCS Opposite-Spin Scale   =       1.2000000000000000 [-]
	 SCS Same-Spin Energy      =      -0.0602198625426471 [Eh]
	 SCS Opposite-Spin Energy  =      -0.7920593412291967 [Eh]
	 SCS Correlation Energy    =      -0.8522792037718439 [Eh]
	 SCS Total Energy          =    -174.2024064500306793 [Eh]
	-----------------------------------------------------------

  Dipole Moment: [D]
     X:    -1.0410      Y:     1.0478      Z:     0.0052     Total:     1.4770

*** Psi4 exiting successfully. Buy a developer a beer!
