                               Psi4 1.3.2 release

  ==> Input File <==

--------------------------------------------------------------------------
#psi4
#
memory 32 gb

molecule  {
0 1
  N        1.9573170     0.0262400    -0.0003030
  C       -0.5338880     0.5233470     0.0001550
  C        0.5931330    -0.5108460    -0.0001300
  C       -1.9210010    -0.1151900     0.0002360
  H       -0.4226550     1.1696880     0.8802810
  H       -0.4229150     1.1699190    -0.8798440
  H        0.4930910    -1.1591820    -0.8784170
  H        0.4933810    -1.1593220     0.8780960
  H       -2.0610110    -0.7444140    -0.8841720
  H       -2.0608750    -0.7445920     0.8845450
  H       -2.7085880     0.6433700     0.0003330
  H        2.0810595     0.6351498     0.8077965
  H        2.0806433     0.6356992    -0.8080655
units angstrom
no_reorient  #important for SAPT in psi4, default
symmetry c1  #important for SAPT in psi4, default
}

set PROPERTIES_ORIGIN ["COM"]
properties('MP2/aug-cc-pvtz', properties = ['dipole'])
--------------------------------------------------------------------------

    Molecular point group: c1
  Charge       = 0
  Multiplicity = 1
  Basis Set: AUG-CC-PVTZ
    Blend: AUG-CC-PVTZ
  Basis Set: (AUG-CC-PVTZ AUX)
    Blend: AUG-CC-PVTZ-JKFIT

    Orbital Energies [Eh]
    ---------------------

    Doubly Occupied:

       1A    -15.538911     2A    -11.244557     3A    -11.220008
       4A    -11.215569     5A     -1.175323     6A     -1.036976
       7A     -0.897267     8A     -0.804600     9A     -0.672481
      10A     -0.606444    11A     -0.602490    12A     -0.560001
      13A     -0.522425    14A     -0.516097    15A     -0.486492
      16A     -0.470915    17A     -0.387231

  @DF-RHF Final Energy:  -173.35350360288894

   => Energetics <=

    Nuclear Repulsion Energy =            131.0678653726035066
    One-Electron Energy =                -492.9271663834808805
    Two-Electron Energy =                 188.5057974079884673
    Total Energy =                       -173.3535036028889351
  Basis Set: (AUG-CC-PVTZ AUX)
    Blend: AUG-CC-PVTZ-RI
    Molecular point group: c1

    Geometry (in Angstrom), charge = 0, multiplicity = 1:

       Center              X                  Y                   Z               Mass
    ------------   -----------------  -----------------  -----------------  -----------------
         N            1.914662798484     0.033265466681    -0.000293628553    14.003074004430
         C           -0.576542201516     0.530372466681     0.000164371447    12.000000000000
         C            0.550478798484    -0.503820533319    -0.000120628553    12.000000000000
         C           -1.963655201516    -0.108164533319     0.000245371447    12.000000000000
         H           -0.465309201516     1.176713466681     0.880290371447     1.007825032230
         H           -0.465569201516     1.176944466681    -0.879834628553     1.007825032230
         H            0.450436798484    -1.152156533319    -0.878407628553     1.007825032230
         H            0.450726798484    -1.152296533319     0.878105371447     1.007825032230
         H           -2.103665201516    -0.737388533319    -0.884162628553     1.007825032230
         H           -2.103529201516    -0.737566533319     0.884554371447     1.007825032230
         H           -2.751242201516     0.650395466681     0.000342371447     1.007825032230
         H            2.038405298484     0.642175266681     0.807805871447     1.007825032230
         H            2.037989098484     0.642724666681    -0.808056128553     1.007825032230

  Basis Set: AUG-CC-PVTZ
    Blend: AUG-CC-PVTZ
  Basis Set: (AUG-CC-PVTZ AUX)
    Blend: AUG-CC-PVTZ-JKFIT
	 Reference Energy          =    -173.3535036028889351 [Eh]
	 Singles Energy            =      -0.0000000000000000 [Eh]
	 Same-Spin Energy          =      -0.1804254548073191 [Eh]
	 Opposite-Spin Energy      =      -0.6592104223142641 [Eh]
	 Correlation Energy        =      -0.8396358771215832 [Eh]
	 Total Energy              =    -174.1931394800105295 [Eh]

	 ================> DF-SCS-MP2 Energies <==================
	-----------------------------------------------------------
	 SCS Same-Spin Scale       =       0.3333333333333333 [-]
	 SCS Opposite-Spin Scale   =       1.2000000000000000 [-]
	 SCS Same-Spin Energy      =      -0.0601418182691063 [Eh]
	 SCS Opposite-Spin Energy  =      -0.7910525067771169 [Eh]
	 SCS Correlation Energy    =      -0.8511943250462233 [Eh]
	 SCS Total Energy          =    -174.2046979279351717 [Eh]
	-----------------------------------------------------------

  Dipole Moment: [D]
     X:    -1.0467      Y:     1.0621      Z:     0.0006     Total:     1.4912

*** Psi4 exiting successfully. Buy a developer a beer!
