                               Psi4 1.3.2 release

  ==> Input File <==

--------------------------------------------------------------------------
#psi4
#
memory 32 gb

molecule  {
0 1
  N        1.9573170     0.0262400    -0.0003030
  C       -0.5338880     0.5233470     0.0001550
  C        0.5931330    -0.5108460    -0.0001300
  C       -1.9210010    -0.1151900     0.0002360
  H       -0.4226550     1.1696880     0.8802810
  H       -0.4229150     1.1699190    -0.8798440
  H        0.4930910    -1.1591820    -0.8784170
  H        0.4933810    -1.1593220     0.8780960
  H       -2.0610110    -0.7444140    -0.8841720
  H       -2.0608750    -0.7445920     0.8845450
  H       -2.7085880     0.6433700     0.0003330
  H        2.0768181     0.6142085     0.8237848
  H        2.0763936     0.6147684    -0.8240658
units angstrom
no_reorient  #important for SAPT in psi4, default
symmetry c1  #important for SAPT in psi4, default
}

set PROPERTIES_ORIGIN ["COM"]
properties('MP2/aug-cc-pvtz', properties = ['dipole'])
--------------------------------------------------------------------------

    Molecular point group: c1
  Charge       = 0
  Multiplicity = 1
  Basis Set: AUG-CC-PVTZ
    Blend: AUG-CC-PVTZ
  Basis Set: (AUG-CC-PVTZ AUX)
    Blend: AUG-CC-PVTZ-JKFIT

    Orbital Energies [Eh]
    ---------------------

    Doubly Occupied:

       1A    -15.538649     2A    -11.244086     3A    -11.219742
       4A    -11.215417     5A     -1.174952     6A     -1.036613
       7A     -0.896396     8A     -0.803812     9A     -0.675821
      10A     -0.604582    11A     -0.604176    12A     -0.559680
      13A     -0.520923    14A     -0.516883    15A     -0.486240
      16A     -0.470889    17A     -0.385893

  @DF-RHF Final Energy:  -173.35340853886950

   => Energetics <=

    Nuclear Repulsion Energy =            131.0801063458787326
    One-Electron Energy =                -492.9575247896129895
    Two-Electron Energy =                 188.5240099048647551
    Total Energy =                       -173.3534085388695019
  Basis Set: (AUG-CC-PVTZ AUX)
    Blend: AUG-CC-PVTZ-RI
    Molecular point group: c1

    Geometry (in Angstrom), charge = 0, multiplicity = 1:

       Center              X                  Y                   Z               Mass
    ------------   -----------------  -----------------  -----------------  -----------------
         N            1.914807661125     0.033979826776    -0.000293423826    14.003074004430
         C           -0.576397338875     0.531086826776     0.000164576174    12.000000000000
         C            0.550623661125    -0.503106173224    -0.000120423826    12.000000000000
         C           -1.963510338875    -0.107450173224     0.000245576174    12.000000000000
         H           -0.465164338875     1.177427826776     0.880290576174     1.007825032230
         H           -0.465424338875     1.177658826776    -0.879834423826     1.007825032230
         H            0.450581661125    -1.151442173224    -0.878407423826     1.007825032230
         H            0.450871661125    -1.151582173224     0.878105576174     1.007825032230
         H           -2.103520338875    -0.736674173224    -0.884162423826     1.007825032230
         H           -2.103384338875    -0.736852173224     0.884554576174     1.007825032230
         H           -2.751097338875     0.651109826776     0.000342576174     1.007825032230
         H            2.034308761125     0.621948326776     0.823794376174     1.007825032230
         H            2.033884261125     0.622508226776    -0.824056223826     1.007825032230

  Basis Set: AUG-CC-PVTZ
    Blend: AUG-CC-PVTZ
  Basis Set: (AUG-CC-PVTZ AUX)
    Blend: AUG-CC-PVTZ-JKFIT
	 Reference Energy          =    -173.3534085388695019 [Eh]
	 Singles Energy            =      -0.0000000000000000 [Eh]
	 Same-Spin Energy          =      -0.1804334265752534 [Eh]
	 Opposite-Spin Energy      =      -0.6592009453726871 [Eh]
	 Correlation Energy        =      -0.8396343719479405 [Eh]
	 Total Energy              =    -174.1930429108174394 [Eh]

	 ================> DF-SCS-MP2 Energies <==================
	-----------------------------------------------------------
	 SCS Same-Spin Scale       =       0.3333333333333333 [-]
	 SCS Opposite-Spin Scale   =       1.2000000000000000 [-]
	 SCS Same-Spin Energy      =      -0.0601444755250845 [Eh]
	 SCS Opposite-Spin Energy  =      -0.7910411344472246 [Eh]
	 SCS Correlation Energy    =      -0.8511856099723091 [Eh]
	 SCS Total Energy          =    -174.2045941488418066 [Eh]
	-----------------------------------------------------------

  Dipole Moment: [D]
     X:    -1.0295      Y:     1.0335      Z:     0.0006     Total:     1.4588

*** Psi4 exiting successfully. Buy a developer a beer!
