                               Psi4 1.3.2 release

  ==> Input File <==

--------------------------------------------------------------------------
#psi4
#
memory 32 gb

molecule  {
0 1
  N        1.9394259     0.0692519     0.0208788
  C       -0.5338880     0.5233470     0.0001550
  C        0.5931330    -0.5108460    -0.0001300
  C       -1.9210010    -0.1151900     0.0002360
  H       -0.3568137     1.2055972     0.8844984
  H       -0.4229150     1.1699190    -0.8798440
  H        0.4930910    -1.1591820    -0.8784170
  H        0.4933810    -1.1593220     0.8780960
  H       -2.0610110    -0.7444140    -0.8841720
  H       -2.0608750    -0.7445920     0.8845450
  H       -2.7085880     0.6433700     0.0003330
  H        2.0796550     0.6282150     0.8131880
  H        2.0792360     0.6287680    -0.8134610
units angstrom
no_reorient  #important for SAPT in psi4, default
symmetry c1  #important for SAPT in psi4, default
}

set PROPERTIES_ORIGIN ["COM"]
properties('MP2/aug-cc-pvtz', properties = ['dipole'])
--------------------------------------------------------------------------

    Molecular point group: c1
  Charge       = 0
  Multiplicity = 1
  Basis Set: AUG-CC-PVTZ
    Blend: AUG-CC-PVTZ
  Basis Set: (AUG-CC-PVTZ AUX)
    Blend: AUG-CC-PVTZ-JKFIT

    Orbital Energies [Eh]
    ---------------------

    Doubly Occupied:

       1A    -15.531710     2A    -11.244612     3A    -11.222554
       4A    -11.215816     5A     -1.177891     6A     -1.035240
       7A     -0.898936     8A     -0.802202     9A     -0.680560
      10A     -0.606230    11A     -0.602867    12A     -0.562249
      13A     -0.521815    14A     -0.517988    15A     -0.487882
      16A     -0.466818    17A     -0.381001

  @DF-RHF Final Energy:  -173.35200995523479

   => Energetics <=

    Nuclear Repulsion Energy =            131.2476012157412413
    One-Electron Energy =                -493.2864820054396660
    Two-Electron Energy =                 188.6868708344636048
    Total Energy =                       -173.3520099552347915
  Basis Set: (AUG-CC-PVTZ AUX)
    Blend: AUG-CC-PVTZ-RI
    Molecular point group: c1

    Geometry (in Angstrom), charge = 0, multiplicity = 1:

       Center              X                  Y                   Z               Mass
    ------------   -----------------  -----------------  -----------------  -----------------
         N            1.899937376693     0.065705544883     0.015795250145    14.003074004430
         C           -0.573376523307     0.519800644883    -0.004928549855    12.000000000000
         C            0.553644476693    -0.514392355117    -0.005213549855    12.000000000000
         C           -1.960489523307    -0.118736355117    -0.004847549855    12.000000000000
         H           -0.396302223307     1.202050844883     0.879414850145     1.007825032230
         H           -0.462403523307     1.166372644883    -0.884927549855     1.007825032230
         H            0.453602476693    -1.162728355117    -0.883500549855     1.007825032230
         H            0.453892476693    -1.162868355117     0.873012450145     1.007825032230
         H           -2.100499523307    -0.747960355117    -0.889255549855     1.007825032230
         H           -2.100363523307    -0.748138355117     0.879461450145     1.007825032230
         H           -2.748076523307     0.639823644883    -0.004750549855     1.007825032230
         H            2.040166476693     0.624668644883     0.808104450145     1.007825032230
         H            2.039747476693     0.625221644883    -0.818544549855     1.007825032230

  Basis Set: AUG-CC-PVTZ
    Blend: AUG-CC-PVTZ
  Basis Set: (AUG-CC-PVTZ AUX)
    Blend: AUG-CC-PVTZ-JKFIT
	 Reference Energy          =    -173.3520099552347915 [Eh]
	 Singles Energy            =      -0.0000000000000000 [Eh]
	 Same-Spin Energy          =      -0.1802525996410157 [Eh]
	 Opposite-Spin Energy      =      -0.6585510111039579 [Eh]
	 Correlation Energy        =      -0.8388036107449736 [Eh]
	 Total Energy              =    -174.1908135659797665 [Eh]

	 ================> DF-SCS-MP2 Energies <==================
	-----------------------------------------------------------
	 SCS Same-Spin Scale       =       0.3333333333333333 [-]
	 SCS Opposite-Spin Scale   =       1.2000000000000000 [-]
	 SCS Same-Spin Energy      =      -0.0600841998803386 [Eh]
	 SCS Opposite-Spin Energy  =      -0.7902612133247494 [Eh]
	 SCS Correlation Energy    =      -0.8503454132050879 [Eh]
	 SCS Total Energy          =    -174.2023553684398678 [Eh]
	-----------------------------------------------------------

  Dipole Moment: [D]
     X:    -0.9694      Y:     0.9495      Z:    -0.0552     Total:     1.3581

*** Psi4 exiting successfully. Buy a developer a beer!
