                               Psi4 1.3.2 release

  ==> Input File <==

--------------------------------------------------------------------------
#psi4
#
memory 32 gb

molecule  {
0 1
  N        1.9529992     0.0370564     0.0049934
  C       -0.5338880     0.5233470     0.0001550
  C        0.5931330    -0.5108460    -0.0001300
  C       -1.9210010    -0.1151900     0.0002360
  H       -0.4063076     1.1788590     0.8814361
  H       -0.4229150     1.1699190    -0.8798440
  H        0.4930910    -1.1591820    -0.8784170
  H        0.4933810    -1.1593220     0.8780960
  H       -2.0610110    -0.7444140    -0.8841720
  H       -2.0608750    -0.7445920     0.8845450
  H       -2.7085880     0.6433700     0.0003330
  H        2.0796550     0.6282150     0.8131880
  H        2.0792360     0.6287680    -0.8134610
units angstrom
no_reorient  #important for SAPT in psi4, default
symmetry c1  #important for SAPT in psi4, default
}

set PROPERTIES_ORIGIN ["COM"]
properties('MP2/aug-cc-pvtz', properties = ['dipole'])
--------------------------------------------------------------------------

    Molecular point group: c1
  Charge       = 0
  Multiplicity = 1
  Basis Set: AUG-CC-PVTZ
    Blend: AUG-CC-PVTZ
  Basis Set: (AUG-CC-PVTZ AUX)
    Blend: AUG-CC-PVTZ-JKFIT

    Orbital Energies [Eh]
    ---------------------

    Doubly Occupied:

       1A    -15.536994     2A    -11.244431     3A    -11.220561
       4A    -11.215580     5A     -1.175851     6A     -1.036409
       7A     -0.897453     8A     -0.803815     9A     -0.675166
      10A     -0.605769    11A     -0.603184    12A     -0.560505
      13A     -0.521600    14A     -0.517096    15A     -0.486881
      16A     -0.470040    17A     -0.385306

  @DF-RHF Final Energy:  -173.35371862304089

   => Energetics <=

    Nuclear Repulsion Energy =            131.1148296585968467
    One-Electron Energy =                -493.0238138398223100
    Two-Electron Energy =                 188.5552655581846011
    Total Energy =                       -173.3537186230408906
  Basis Set: (AUG-CC-PVTZ AUX)
    Blend: AUG-CC-PVTZ-RI
    Molecular point group: c1

    Geometry (in Angstrom), charge = 0, multiplicity = 1:

       Center              X                  Y                   Z               Mass
    ------------   -----------------  -----------------  -----------------  -----------------
         N            1.911137586649     0.041597992983     0.003727648263    14.003074004430
         C           -0.575749613351     0.527888592983    -0.001110751737    12.000000000000
         C            0.551271386649    -0.506304407017    -0.001395751737    12.000000000000
         C           -1.962862613351    -0.110648407017    -0.001029751737    12.000000000000
         H           -0.448169213351     1.183400592983     0.880170348263     1.007825032230
         H           -0.464776613351     1.174460592983    -0.881109751737     1.007825032230
         H            0.451229386649    -1.154640407017    -0.879682751737     1.007825032230
         H            0.451519386649    -1.154780407017     0.876830248263     1.007825032230
         H           -2.102872613351    -0.739872407017    -0.885437751737     1.007825032230
         H           -2.102736613351    -0.740050407017     0.883279248263     1.007825032230
         H           -2.750449613351     0.647911592983    -0.000932751737     1.007825032230
         H            2.037793386649     0.632756592983     0.811922248263     1.007825032230
         H            2.037374386649     0.633309592983    -0.814726751737     1.007825032230

  Basis Set: AUG-CC-PVTZ
    Blend: AUG-CC-PVTZ
  Basis Set: (AUG-CC-PVTZ AUX)
    Blend: AUG-CC-PVTZ-JKFIT
	 Reference Energy          =    -173.3537186230408906 [Eh]
	 Singles Energy            =      -0.0000000000000000 [Eh]
	 Same-Spin Energy          =      -0.1803680526387805 [Eh]
	 Opposite-Spin Energy      =      -0.6590036854302318 [Eh]
	 Correlation Energy        =      -0.8393717380690123 [Eh]
	 Total Energy              =    -174.1930903611099097 [Eh]

	 ================> DF-SCS-MP2 Energies <==================
	-----------------------------------------------------------
	 SCS Same-Spin Scale       =       0.3333333333333333 [-]
	 SCS Opposite-Spin Scale   =       1.2000000000000000 [-]
	 SCS Same-Spin Energy      =      -0.0601226842129268 [Eh]
	 SCS Opposite-Spin Energy  =      -0.7908044225162781 [Eh]
	 SCS Correlation Energy    =      -0.8509271067292050 [Eh]
	 SCS Total Energy          =    -174.2046457297701068 [Eh]
	-----------------------------------------------------------

  Dipole Moment: [D]
     X:    -1.0235      Y:     1.0283      Z:    -0.0125     Total:     1.4509

*** Psi4 exiting successfully. Buy a developer a beer!
