                               Psi4 1.3.2 release

  ==> Input File <==

--------------------------------------------------------------------------
#psi4
#
memory 32 gb

molecule  {
0 1
  N        1.9573170     0.0262400    -0.0003030
  C       -0.5338880     0.5233470     0.0001550
  C        0.7792296    -0.4375789    -0.0001536
  C       -1.9210010    -0.1151900     0.0002360
  H       -0.4226550     1.1696880     0.8802810
  H       -0.4229150     1.1699190    -0.8798440
  H        0.4930910    -1.1591820    -0.8784170
  H        0.4933810    -1.1593220     0.8780960
  H       -2.0610110    -0.7444140    -0.8841720
  H       -2.0608750    -0.7445920     0.8845450
  H       -2.7085880     0.6433700     0.0003330
  H        2.0796550     0.6282150     0.8131880
  H        2.0792360     0.6287680    -0.8134610
units angstrom
no_reorient  #important for SAPT in psi4, default
symmetry c1  #important for SAPT in psi4, default
}

set PROPERTIES_ORIGIN ["COM"]
properties('MP2/aug-cc-pvtz', properties = ['dipole'])
--------------------------------------------------------------------------

    Molecular point group: c1
  Charge       = 0
  Multiplicity = 1
  Basis Set: AUG-CC-PVTZ
    Blend: AUG-CC-PVTZ
  Basis Set: (AUG-CC-PVTZ AUX)
    Blend: AUG-CC-PVTZ-JKFIT

    Orbital Energies [Eh]
    ---------------------

    Doubly Occupied:

       1A    -15.545645     2A    -11.253650     3A    -11.216332
       4A    -11.214272     5A     -1.252862     6A     -1.023121
       7A     -0.881186     8A     -0.801268     9A     -0.699372
      10A     -0.645654    11A     -0.599714    12A     -0.570456
      13A     -0.541026    14A     -0.495841    15A     -0.486165
      16A     -0.440305    17A     -0.361361

  @DF-RHF Final Energy:  -173.30483471142651

   => Energetics <=

    Nuclear Repulsion Energy =            131.9245288707163866
    One-Electron Energy =                -494.4022674601781659
    Two-Electron Energy =                 189.1729038780352425
    Total Energy =                       -173.3048347114265084
  Basis Set: (AUG-CC-PVTZ AUX)
    Blend: AUG-CC-PVTZ-RI
    Molecular point group: c1

    Geometry (in Angstrom), charge = 0, multiplicity = 1:

       Center              X                  Y                   Z               Mass
    ------------   -----------------  -----------------  -----------------  -----------------
         N            1.876907706536     0.018618785709    -0.000288766283    14.003074004430
         C           -0.614297293464     0.515725785709     0.000169233717    12.000000000000
         C            0.698820306536    -0.445200114291    -0.000139366283    12.000000000000
         C           -2.001410293464    -0.122811214291     0.000250233717    12.000000000000
         H           -0.503064293464     1.162066785709     0.880295233717     1.007825032230
         H           -0.503324293464     1.162297785709    -0.879829766283     1.007825032230
         H            0.412681706536    -1.166803214291    -0.878402766283     1.007825032230
         H            0.412971706536    -1.166943214291     0.878110233717     1.007825032230
         H           -2.141420293464    -0.752035214291    -0.884157766283     1.007825032230
         H           -2.141284293464    -0.752213214291     0.884559233717     1.007825032230
         H           -2.788997293464     0.635748785709     0.000347233717     1.007825032230
         H            1.999245706536     0.620593785709     0.813202233717     1.007825032230
         H            1.998826706536     0.621146785709    -0.813446766283     1.007825032230

  Basis Set: AUG-CC-PVTZ
    Blend: AUG-CC-PVTZ
  Basis Set: (AUG-CC-PVTZ AUX)
    Blend: AUG-CC-PVTZ-JKFIT
	 Reference Energy          =    -173.3048347114265084 [Eh]
	 Singles Energy            =      -0.0000000000000000 [Eh]
	 Same-Spin Energy          =      -0.1825117277691515 [Eh]
	 Opposite-Spin Energy      =      -0.6608269714205939 [Eh]
	 Correlation Energy        =      -0.8433386991897454 [Eh]
	 Total Energy              =    -174.1481734106162662 [Eh]

	 ================> DF-SCS-MP2 Energies <==================
	-----------------------------------------------------------
	 SCS Same-Spin Scale       =       0.3333333333333333 [-]
	 SCS Opposite-Spin Scale   =       1.2000000000000000 [-]
	 SCS Same-Spin Energy      =      -0.0608372425897172 [Eh]
	 SCS Opposite-Spin Energy  =      -0.7929923657047127 [Eh]
	 SCS Correlation Energy    =      -0.8538296082944299 [Eh]
	 SCS Total Energy          =    -174.1586643197209412 [Eh]
	-----------------------------------------------------------

  Dipole Moment: [D]
     X:    -0.3641      Y:     1.2150      Z:     0.0006     Total:     1.2684

*** Psi4 exiting successfully. Buy a developer a beer!
