                               Psi4 1.3.2 release

  ==> Input File <==

--------------------------------------------------------------------------
#psi4
#
memory 32 gb

molecule  {
0 1
  N        1.9573170     0.0262400    -0.0003030
  C       -0.5338880     0.5233470     0.0001550
  C        0.5749122    -0.5303577    -0.0001305
  C       -1.9096457    -0.1393012     0.0002312
  H       -0.4226550     1.1696880     0.8802810
  H       -0.4229150     1.1699190    -0.8798440
  H        0.4930910    -1.1591820    -0.8784170
  H        0.4933810    -1.1593220     0.8780960
  H       -2.0610110    -0.7444140    -0.8841720
  H       -2.0608750    -0.7445920     0.8845450
  H       -2.7085880     0.6433700     0.0003330
  H        2.0796550     0.6282150     0.8131880
  H        2.0792360     0.6287680    -0.8134610
units angstrom
no_reorient  #important for SAPT in psi4, default
symmetry c1  #important for SAPT in psi4, default
}

set PROPERTIES_ORIGIN ["COM"]
properties('MP2/aug-cc-pvtz', properties = ['dipole'])
--------------------------------------------------------------------------

    Molecular point group: c1
  Charge       = 0
  Multiplicity = 1
  Basis Set: AUG-CC-PVTZ
    Blend: AUG-CC-PVTZ
  Basis Set: (AUG-CC-PVTZ AUX)
    Blend: AUG-CC-PVTZ-JKFIT

    Orbital Energies [Eh]
    ---------------------

    Doubly Occupied:

       1A    -15.537277     2A    -11.243397     3A    -11.220538
       4A    -11.215441     5A     -1.167794     6A     -1.037547
       7A     -0.897539     8A     -0.806472     9A     -0.672792
      10A     -0.605162    11A     -0.599983    12A     -0.558279
      13A     -0.523682    14A     -0.511506    15A     -0.489284
      16A     -0.476682    17A     -0.384484

  @DF-RHF Final Energy:  -173.35210621350549

   => Energetics <=

    Nuclear Repulsion Energy =            130.9818174352695053
    One-Electron Energy =                -492.7721305821980309
    Two-Electron Energy =                 188.4382069334230039
    Total Energy =                       -173.3521062135054933
  Basis Set: (AUG-CC-PVTZ AUX)
    Blend: AUG-CC-PVTZ-RI
    Molecular point group: c1

    Geometry (in Angstrom), charge = 0, multiplicity = 1:

       Center              X                  Y                   Z               Mass
    ------------   -----------------  -----------------  -----------------  -----------------
         N            1.916105404787     0.042363443072    -0.000292483686    14.003074004430
         C           -0.575099595213     0.539470443072     0.000165516314    12.000000000000
         C            0.533700604787    -0.514234256928    -0.000119983686    12.000000000000
         C           -1.950857295213    -0.123177756928     0.000241716314    12.000000000000
         H           -0.463866595213     1.185811443072     0.880291516314     1.007825032230
         H           -0.464126595213     1.186042443072    -0.879833483686     1.007825032230
         H            0.451879404787    -1.143058556928    -0.878406483686     1.007825032230
         H            0.452169404787    -1.143198556928     0.878106516314     1.007825032230
         H           -2.102222595213    -0.728290556928    -0.884161483686     1.007825032230
         H           -2.102086595213    -0.728468556928     0.884555516314     1.007825032230
         H           -2.749799595213     0.659493443072     0.000343516314     1.007825032230
         H            2.038443404787     0.644338443072     0.813198516314     1.007825032230
         H            2.038024404787     0.644891443072    -0.813450483686     1.007825032230

  Basis Set: AUG-CC-PVTZ
    Blend: AUG-CC-PVTZ
  Basis Set: (AUG-CC-PVTZ AUX)
    Blend: AUG-CC-PVTZ-JKFIT
	 Reference Energy          =    -173.3521062135054933 [Eh]
	 Singles Energy            =      -0.0000000000000000 [Eh]
	 Same-Spin Energy          =      -0.1803412530000400 [Eh]
	 Opposite-Spin Energy      =      -0.6593216332355235 [Eh]
	 Correlation Energy        =      -0.8396628862355635 [Eh]
	 Total Energy              =    -174.1917690997410659 [Eh]

	 ================> DF-SCS-MP2 Energies <==================
	-----------------------------------------------------------
	 SCS Same-Spin Scale       =       0.3333333333333333 [-]
	 SCS Opposite-Spin Scale   =       1.2000000000000000 [-]
	 SCS Same-Spin Energy      =      -0.0601137510000133 [Eh]
	 SCS Opposite-Spin Energy  =      -0.7911859598826282 [Eh]
	 SCS Correlation Energy    =      -0.8512997108826416 [Eh]
	 SCS Total Energy          =    -174.2034059243881359 [Eh]
	-----------------------------------------------------------

  Dipole Moment: [D]
     X:    -1.1024      Y:     1.0183      Z:     0.0006     Total:     1.5007

*** Psi4 exiting successfully. Buy a developer a beer!
