                               Psi4 1.4a3.dev225

  ==> Input File <==

--------------------------------------------------------------------------
#psi4
#
memory 32 gb

molecule  {
0 1
  N        1.9567340     0.0254830    -0.0000010
  C       -0.5337590     0.5239430     0.0000000
  C        0.5924050    -0.5103730    -0.0000030
  C       -1.9201290    -0.1150620     0.0000010
  H       -0.4211530     1.1712430     0.8793960
  H       -0.4211550     1.1712460    -0.8793930
  H        0.4914030    -1.1596150    -0.8777340
  H        0.4914020    -1.1596250     0.8777200
  H       -2.0588170    -0.7452150    -0.8839620
  H       -2.0588250    -0.7451950     0.8839770
  H       -2.7099090     0.6412230    -0.0000110
  H        2.0733958     0.5986768     0.7732395
  H        2.0794030     0.6282730    -0.8130910
units angstrom
no_reorient  #important for SAPT in psi4, default
symmetry c1  #important for SAPT in psi4, default
}

set PROPERTIES_ORIGIN ["COM"]
properties('MP2/aug-cc-pvtz', properties = ['dipole'])
--------------------------------------------------------------------------

    Molecular point group: c1
  Charge       = 0
  Multiplicity = 1
  Basis Set: AUG-CC-PVTZ
    Blend: AUG-CC-PVTZ
  Basis Set: (AUG-CC-PVTZ AUX)
    Blend: AUG-CC-PVTZ-JKFIT

    Orbital Energies [Eh]
    ---------------------

    Doubly Occupied:

       1A    -15.532995     2A    -11.244198     3A    -11.219987
       4A    -11.215590     5A     -1.181918     6A     -1.038386
       7A     -0.899186     8A     -0.805309     9A     -0.678899
      10A     -0.608820    11A     -0.604556    12A     -0.560364
      13A     -0.522807    14A     -0.517605    15A     -0.486767
      16A     -0.470932    17A     -0.387465

  @DF-RHF Final Energy:  -173.35294495409764

   => Energetics <=

    Nuclear Repulsion Energy =            131.3390617129103646
    One-Electron Energy =                -493.4324476223935108
    Two-Electron Energy =                 188.7404409553854805
    Total Energy =                       -173.3529449540976373
  Basis Set: (AUG-CC-PVTZ AUX)
    Blend: AUG-CC-PVTZ-RI
    Molecular point group: c1

    Geometry (in Angstrom), charge = 0, multiplicity = 1:

       Center              X                  Y                   Z               Mass
    ------------   -----------------  -----------------  -----------------  -----------------
         N            1.914271487870     0.033217668512     0.000679650336    14.003074004430
         C           -0.576221512130     0.531677668512     0.000680650336    12.000000000000
         C            0.549942487870    -0.502638331488     0.000677650336    12.000000000000
         C           -1.962591512130    -0.107327331488     0.000681650336    12.000000000000
         H           -0.463615512130     1.178977668512     0.880076650336     1.007825032230
         H           -0.463617512130     1.178980668512    -0.878712349664     1.007825032230
         H            0.448940487870    -1.151880331488    -0.877053349664     1.007825032230
         H            0.448939487870    -1.151890331488     0.878400650336     1.007825032230
         H           -2.101279512130    -0.737480331488    -0.883281349664     1.007825032230
         H           -2.101287512130    -0.737460331488     0.884657650336     1.007825032230
         H           -2.752371512130     0.648957668512     0.000669650336     1.007825032230
         H            2.030933287870     0.606411468512     0.773920150336     1.007825032230
         H            2.036940487870     0.636007668512    -0.812410349664     1.007825032230

  Basis Set: AUG-CC-PVTZ
    Blend: AUG-CC-PVTZ
  Basis Set: (AUG-CC-PVTZ AUX)
    Blend: AUG-CC-PVTZ-JKFIT
	 Reference Energy          =    -173.3529449540976373 [Eh]
	 Singles Energy            =      -0.0000000000000000 [Eh]
	 Same-Spin Energy          =      -0.1802198016161781 [Eh]
	 Opposite-Spin Energy      =      -0.6584422620798740 [Eh]
	 Correlation Energy        =      -0.8386620636960521 [Eh]
	 Total Energy              =    -174.1916070177937002 [Eh]

	 ================> DF-SCS-MP2 Energies <==================
	-----------------------------------------------------------
	 SCS Same-Spin Scale       =       0.3333333333333333 [-]
	 SCS Opposite-Spin Scale   =       1.2000000000000000 [-]
	 SCS Same-Spin Energy      =      -0.0600732672053927 [Eh]
	 SCS Opposite-Spin Energy  =      -0.7901307144958488 [Eh]
	 SCS Correlation Energy    =      -0.8502039817012416 [Eh]
	 SCS Total Energy          =    -174.2031489357988789 [Eh]
	-----------------------------------------------------------

  Dipole Moment: [D]
     X:    -1.0416      Y:     1.0576      Z:    -0.0079     Total:     1.4844

*** Psi4 exiting successfully. Buy a developer a beer!
