                               Psi4 1.3.2 release

  ==> Input File <==

--------------------------------------------------------------------------
#psi4
#
memory 32 gb

molecule  {
0 1
  N        1.9485779     0.0478310     0.0102895
  C       -0.5338880     0.5233470     0.0001550
  C        0.5931330    -0.5108460    -0.0001300
  C       -1.9210010    -0.1151900     0.0002360
  H       -0.3898841     1.1879013     0.8825241
  H       -0.4229150     1.1699190    -0.8798440
  H        0.4930910    -1.1591820    -0.8784170
  H        0.4933810    -1.1593220     0.8780960
  H       -2.0610110    -0.7444140    -0.8841720
  H       -2.0608750    -0.7445920     0.8845450
  H       -2.7085880     0.6433700     0.0003330
  H        2.0796550     0.6282150     0.8131880
  H        2.0792360     0.6287680    -0.8134610
units angstrom
no_reorient  #important for SAPT in psi4, default
symmetry c1  #important for SAPT in psi4, default
}

set PROPERTIES_ORIGIN ["COM"]
properties('MP2/aug-cc-pvtz', properties = ['dipole'])
--------------------------------------------------------------------------

    Molecular point group: c1
  Charge       = 0
  Multiplicity = 1
  Basis Set: AUG-CC-PVTZ
    Blend: AUG-CC-PVTZ
  Basis Set: (AUG-CC-PVTZ AUX)
    Blend: AUG-CC-PVTZ-JKFIT

    Orbital Energies [Eh]
    ---------------------

    Doubly Occupied:

       1A    -15.535197     2A    -11.244477     3A    -11.221215
       4A    -11.215651     5A     -1.176521     6A     -1.035993
       7A     -0.897939     8A     -0.803285     9A     -0.676867
      10A     -0.605821    11A     -0.603184    12A     -0.561104
      13A     -0.521430    14A     -0.517649    15A     -0.487283
      16A     -0.469065    17A     -0.383846

  @DF-RHF Final Energy:  -173.35353008386545

   => Energetics <=

    Nuclear Repulsion Energy =            131.1584591623087874
    One-Electron Energy =                -493.1109253458586181
    Two-Electron Energy =                 188.5989360996844084
    Total Energy =                       -173.3535300838654507
  Basis Set: (AUG-CC-PVTZ AUX)
    Blend: AUG-CC-PVTZ-RI
    Molecular point group: c1

    Geometry (in Angstrom), charge = 0, multiplicity = 1:

       Center              X                  Y                   Z               Mass
    ------------   -----------------  -----------------  -----------------  -----------------
         N            1.907484139870     0.049664262186     0.007749772711    14.003074004430
         C           -0.574981760130     0.525180262186    -0.002384727289    12.000000000000
         C            0.552039239870    -0.509012737814    -0.002669727289    12.000000000000
         C           -1.962094760130    -0.113356737814    -0.002303727289    12.000000000000
         H           -0.430977860130     1.189734562186     0.879984372711     1.007825032230
         H           -0.464008760130     1.171752262186    -0.882383727289     1.007825032230
         H            0.451997239870    -1.157348737814    -0.880956727289     1.007825032230
         H            0.452287239870    -1.157488737814     0.875556272711     1.007825032230
         H           -2.102104760130    -0.742580737814    -0.886711727289     1.007825032230
         H           -2.101968760130    -0.742758737814     0.882005272711     1.007825032230
         H           -2.749681760130     0.645203262186    -0.002206727289     1.007825032230
         H            2.038561239870     0.630048262186     0.810648272711     1.007825032230
         H            2.038142239870     0.630601262186    -0.816000727289     1.007825032230

  Basis Set: AUG-CC-PVTZ
    Blend: AUG-CC-PVTZ
  Basis Set: (AUG-CC-PVTZ AUX)
    Blend: AUG-CC-PVTZ-JKFIT
	 Reference Energy          =    -173.3535300838654507 [Eh]
	 Singles Energy            =      -0.0000000000000000 [Eh]
	 Same-Spin Energy          =      -0.1803201719367576 [Eh]
	 Opposite-Spin Energy      =      -0.6588285918909864 [Eh]
	 Correlation Energy        =      -0.8391487638277441 [Eh]
	 Total Energy              =    -174.1926788476932018 [Eh]

	 ================> DF-SCS-MP2 Energies <==================
	-----------------------------------------------------------
	 SCS Same-Spin Scale       =       0.3333333333333333 [-]
	 SCS Opposite-Spin Scale   =       1.2000000000000000 [-]
	 SCS Same-Spin Energy      =      -0.0601067239789192 [Eh]
	 SCS Opposite-Spin Energy  =      -0.7905943102691837 [Eh]
	 SCS Correlation Energy    =      -0.8507010342481029 [Eh]
	 SCS Total Energy          =    -174.2042311181135403 [Eh]
	-----------------------------------------------------------

  Dipole Moment: [D]
     X:    -1.0057      Y:     1.0030      Z:    -0.0262     Total:     1.4207

*** Psi4 exiting successfully. Buy a developer a beer!
