                               Psi4 1.3.2 release

  ==> Input File <==

--------------------------------------------------------------------------
#psi4
#
memory 32 gb

molecule  {
0 1
  N        1.9573170     0.0262400    -0.0003030
  C       -0.5338880     0.5233470     0.0001550
  C        0.6021150    -0.5009716    -0.0001297
  C       -1.9265204    -0.1030610     0.0002384
  H       -0.4226550     1.1696880     0.8802810
  H       -0.4229150     1.1699190    -0.8798440
  H        0.4930910    -1.1591820    -0.8784170
  H        0.4933810    -1.1593220     0.8780960
  H       -2.0610110    -0.7444140    -0.8841720
  H       -2.0608750    -0.7445920     0.8845450
  H       -2.7085880     0.6433700     0.0003330
  H        2.0796550     0.6282150     0.8131880
  H        2.0792360     0.6287680    -0.8134610
units angstrom
no_reorient  #important for SAPT in psi4, default
symmetry c1  #important for SAPT in psi4, default
}

set PROPERTIES_ORIGIN ["COM"]
properties('MP2/aug-cc-pvtz', properties = ['dipole'])
--------------------------------------------------------------------------

    Molecular point group: c1
  Charge       = 0
  Multiplicity = 1
  Basis Set: AUG-CC-PVTZ
    Blend: AUG-CC-PVTZ
  Basis Set: (AUG-CC-PVTZ AUX)
    Blend: AUG-CC-PVTZ-JKFIT

    Orbital Energies [Eh]
    ---------------------

    Doubly Occupied:

       1A    -15.539593     2A    -11.245037     3A    -11.219696
       4A    -11.215681     5A     -1.179090     6A     -1.036582
       7A     -0.896775     8A     -0.803355     9A     -0.674206
      10A     -0.608847    11A     -0.602058    12A     -0.560668
      13A     -0.527249    14A     -0.512664    15A     -0.484854
      16A     -0.467925    17A     -0.387778

  @DF-RHF Final Energy:  -173.35305311849626

   => Energetics <=

    Nuclear Repulsion Energy =            131.1206791259058946
    One-Electron Energy =                -493.0233520039142832
    Two-Electron Energy =                 188.5496197595121259
    Total Energy =                       -173.3530531184962626
  Basis Set: (AUG-CC-PVTZ AUX)
    Blend: AUG-CC-PVTZ-RI
    Molecular point group: c1

    Geometry (in Angstrom), charge = 0, multiplicity = 1:

       Center              X                  Y                   Z               Mass
    ------------   -----------------  -----------------  -----------------  -----------------
         N            1.914007387885     0.029032328284    -0.000294108780    14.003074004430
         C           -0.577197612115     0.526139328284     0.000163891220    12.000000000000
         C            0.558805387885    -0.498179271716    -0.000120808780    12.000000000000
         C           -1.969830012115    -0.100268671716     0.000247291220    12.000000000000
         H           -0.465964612115     1.172480328284     0.880289891220     1.007825032230
         H           -0.466224612115     1.172711328284    -0.879835108780     1.007825032230
         H            0.449781387885    -1.156389671716    -0.878408108780     1.007825032230
         H            0.450071387885    -1.156529671716     0.878104891220     1.007825032230
         H           -2.104320612115    -0.741621671716    -0.884163108780     1.007825032230
         H           -2.104184612115    -0.741799671716     0.884553891220     1.007825032230
         H           -2.751897612115     0.646162328284     0.000341891220     1.007825032230
         H            2.036345387885     0.631007328284     0.813196891220     1.007825032230
         H            2.035926387885     0.631560328284    -0.813452108780     1.007825032230

  Basis Set: AUG-CC-PVTZ
    Blend: AUG-CC-PVTZ
  Basis Set: (AUG-CC-PVTZ AUX)
    Blend: AUG-CC-PVTZ-JKFIT
	 Reference Energy          =    -173.3530531184962626 [Eh]
	 Singles Energy            =      -0.0000000000000000 [Eh]
	 Same-Spin Energy          =      -0.1804974277970792 [Eh]
	 Opposite-Spin Energy      =      -0.6592113129495631 [Eh]
	 Correlation Energy        =      -0.8397087407466424 [Eh]
	 Total Energy              =    -174.1927618592428928 [Eh]

	 ================> DF-SCS-MP2 Energies <==================
	-----------------------------------------------------------
	 SCS Same-Spin Scale       =       0.3333333333333333 [-]
	 SCS Opposite-Spin Scale   =       1.2000000000000000 [-]
	 SCS Same-Spin Energy      =      -0.0601658092656931 [Eh]
	 SCS Opposite-Spin Energy  =      -0.7910535755394758 [Eh]
	 SCS Correlation Energy    =      -0.8512193848051688 [Eh]
	 SCS Total Energy          =    -174.2042725033014392 [Eh]
	-----------------------------------------------------------

  Dipole Moment: [D]
     X:    -1.0089      Y:     1.0704      Z:     0.0006     Total:     1.4709

*** Psi4 exiting successfully. Buy a developer a beer!
