                               Psi4 1.3.2 release

  ==> Input File <==

--------------------------------------------------------------------------
#psi4
#
memory 32 gb

molecule  {
0 1
  N        1.9573170     0.0262400    -0.0003030
  C       -0.5338880     0.5233470     0.0001550
  C        0.6285393    -0.4708835    -0.0001287
  C       -1.9424406    -0.0663915     0.0002455
  H       -0.4226550     1.1696880     0.8802810
  H       -0.4229150     1.1699190    -0.8798440
  H        0.4930910    -1.1591820    -0.8784170
  H        0.4933810    -1.1593220     0.8780960
  H       -2.0610110    -0.7444140    -0.8841720
  H       -2.0608750    -0.7445920     0.8845450
  H       -2.7085880     0.6433700     0.0003330
  H        2.0796550     0.6282150     0.8131880
  H        2.0792360     0.6287680    -0.8134610
units angstrom
no_reorient  #important for SAPT in psi4, default
symmetry c1  #important for SAPT in psi4, default
}

set PROPERTIES_ORIGIN ["COM"]
properties('MP2/aug-cc-pvtz', properties = ['dipole'])
--------------------------------------------------------------------------

    Molecular point group: c1
  Charge       = 0
  Multiplicity = 1
  Basis Set: AUG-CC-PVTZ
    Blend: AUG-CC-PVTZ
  Basis Set: (AUG-CC-PVTZ AUX)
    Blend: AUG-CC-PVTZ-JKFIT

    Orbital Energies [Eh]
    ---------------------

    Doubly Occupied:

       1A    -15.541895     2A    -11.247480     3A    -11.219381
       4A    -11.216641     5A     -1.191593     6A     -1.036083
       7A     -0.896572     8A     -0.800824     9A     -0.676969
      10A     -0.618107    11A     -0.599164    12A     -0.562870
      13A     -0.543456    14A     -0.501415    15A     -0.480087
      16A     -0.458589    17A     -0.390038

  @DF-RHF Final Energy:  -173.34657700341594

   => Energetics <=

    Nuclear Repulsion Energy =            131.2830989684441079
    One-Electron Energy =                -493.2970248362373127
    Two-Electron Energy =                 188.6673488643772600
    Total Energy =                       -173.3465770034159448
  Basis Set: (AUG-CC-PVTZ AUX)
    Blend: AUG-CC-PVTZ-RI
    Molecular point group: c1

    Geometry (in Angstrom), charge = 0, multiplicity = 1:

       Center              X                  Y                   Z               Mass
    ------------   -----------------  -----------------  -----------------  -----------------
         N            1.911873618910     0.015471404866    -0.000295754188    14.003074004430
         C           -0.579331381090     0.512578404866     0.000162245812    12.000000000000
         C            0.583095918910    -0.481652095134    -0.000121454188    12.000000000000
         C           -1.987883981090    -0.077160095134     0.000252745812    12.000000000000
         H           -0.468098381090     1.158919404866     0.880288245812     1.007825032230
         H           -0.468358381090     1.159150404866    -0.879836754188     1.007825032230
         H            0.447647618910    -1.169950595134    -0.878409754188     1.007825032230
         H            0.447937618910    -1.170090595134     0.878103245812     1.007825032230
         H           -2.106454381090    -0.755182595134    -0.884164754188     1.007825032230
         H           -2.106318381090    -0.755360595134     0.884552245812     1.007825032230
         H           -2.754031381090     0.632601404866     0.000340245812     1.007825032230
         H            2.034211618910     0.617446404866     0.813195245812     1.007825032230
         H            2.033792618910     0.617999404866    -0.813453754188     1.007825032230

  Basis Set: AUG-CC-PVTZ
    Blend: AUG-CC-PVTZ
  Basis Set: (AUG-CC-PVTZ AUX)
    Blend: AUG-CC-PVTZ-JKFIT
	 Reference Energy          =    -173.3465770034159448 [Eh]
	 Singles Energy            =      -0.0000000000000000 [Eh]
	 Same-Spin Energy          =      -0.1808330839331914 [Eh]
	 Opposite-Spin Energy      =      -0.6595076313515953 [Eh]
	 Correlation Energy        =      -0.8403407152847867 [Eh]
	 Total Energy              =    -174.1869177187007267 [Eh]

	 ================> DF-SCS-MP2 Energies <==================
	-----------------------------------------------------------
	 SCS Same-Spin Scale       =       0.3333333333333333 [-]
	 SCS Opposite-Spin Scale   =       1.2000000000000000 [-]
	 SCS Same-Spin Energy      =      -0.0602776946443971 [Eh]
	 SCS Opposite-Spin Energy  =      -0.7914091576219143 [Eh]
	 SCS Correlation Energy    =      -0.8516868522663115 [Eh]
	 SCS Total Energy          =    -174.1982638556822565 [Eh]
	-----------------------------------------------------------

  Dipole Moment: [D]
     X:    -0.9060      Y:     1.1261      Z:     0.0006     Total:     1.4454

*** Psi4 exiting successfully. Buy a developer a beer!
