                               Psi4 1.3.2 release

  ==> Input File <==

--------------------------------------------------------------------------
#psi4
#
memory 32 gb

molecule  {
0 1
  N        1.9573170     0.0262400    -0.0003030
  C       -0.5338880     0.5233470     0.0001550
  C        0.5931330    -0.5108460    -0.0001300
  C       -1.9210010    -0.1151900     0.0002360
  H       -0.4226550     1.1696880     0.8802810
  H       -0.4229150     1.1699190    -0.8798440
  H        0.4930910    -1.1591820    -0.8784170
  H        0.4933810    -1.1593220     0.8780960
  H       -2.0610110    -0.7444140    -0.8841720
  H       -2.0608750    -0.7445920     0.8845450
  H       -2.7085880     0.6433700     0.0003330
  H        2.0796550     0.6282150     0.8131880
  H        2.0792360     0.6287680    -0.8134610
units angstrom
no_reorient  #important for SAPT in psi4, default
symmetry c1  #important for SAPT in psi4, default
}

set PROPERTIES_ORIGIN ["COM"]
properties('MP2/aug-cc-pvtz', properties = ['dipole'])
--------------------------------------------------------------------------

    Molecular point group: c1
  Charge       = 0
  Multiplicity = 1
  Basis Set: AUG-CC-PVTZ
    Blend: AUG-CC-PVTZ
  Basis Set: (AUG-CC-PVTZ AUX)
    Blend: AUG-CC-PVTZ-JKFIT

    Orbital Energies [Eh]
    ---------------------

    Doubly Occupied:

       1A    -15.538826     2A    -11.244399     3A    -11.219919
       4A    -11.215519     5A     -1.175191     6A     -1.036853
       7A     -0.896973     8A     -0.804337     9A     -0.673578
      10A     -0.605815    11A     -0.603075    12A     -0.559893
      13A     -0.521929    14A     -0.516374    15A     -0.486409
      16A     -0.470910    17A     -0.386788

  @DF-RHF Final Energy:  -173.35352937431875

   => Energetics <=

    Nuclear Repulsion Energy =            131.0718287881375090
    One-Electron Energy =                -492.9371409872810545
    Two-Electron Energy =                 188.5117828248247918
    Total Energy =                       -173.3535293743187538
  Basis Set: (AUG-CC-PVTZ AUX)
    Blend: AUG-CC-PVTZ-RI
    Molecular point group: c1

    Geometry (in Angstrom), charge = 0, multiplicity = 1:

       Center              X                  Y                   Z               Mass
    ------------   -----------------  -----------------  -----------------  -----------------
         N            1.914710769274     0.033502027949    -0.000293560311    14.003074004430
         C           -0.576494230726     0.530609027949     0.000164439689    12.000000000000
         C            0.550526769274    -0.503583972051    -0.000120560311    12.000000000000
         C           -1.963607230726    -0.107927972051     0.000245439689    12.000000000000
         H           -0.465261230726     1.176950027949     0.880290439689     1.007825032230
         H           -0.465521230726     1.177181027949    -0.879834560311     1.007825032230
         H            0.450484769274    -1.151919972051    -0.878407560311     1.007825032230
         H            0.450774769274    -1.152059972051     0.878105439689     1.007825032230
         H           -2.103617230726    -0.737151972051    -0.884162560311     1.007825032230
         H           -2.103481230726    -0.737329972051     0.884554439689     1.007825032230
         H           -2.751194230726     0.650632027949     0.000342439689     1.007825032230
         H            2.037048769274     0.635477027949     0.813197439689     1.007825032230
         H            2.036629769274     0.636030027949    -0.813451560311     1.007825032230

  Basis Set: AUG-CC-PVTZ
    Blend: AUG-CC-PVTZ
  Basis Set: (AUG-CC-PVTZ AUX)
    Blend: AUG-CC-PVTZ-JKFIT
	 Reference Energy          =    -173.3535293743187538 [Eh]
	 Singles Energy            =      -0.0000000000000000 [Eh]
	 Same-Spin Energy          =      -0.1804254414236643 [Eh]
	 Opposite-Spin Energy      =      -0.6592031057888245 [Eh]
	 Correlation Energy        =      -0.8396285472124888 [Eh]
	 Total Energy              =    -174.1931579215312524 [Eh]

	 ================> DF-SCS-MP2 Energies <==================
	-----------------------------------------------------------
	 SCS Same-Spin Scale       =       0.3333333333333333 [-]
	 SCS Opposite-Spin Scale   =       1.2000000000000000 [-]
	 SCS Same-Spin Energy      =      -0.0601418138078881 [Eh]
	 SCS Opposite-Spin Energy  =      -0.7910437269465893 [Eh]
	 SCS Correlation Energy    =      -0.8511855407544774 [Eh]
	 SCS Total Energy          =    -174.2047149150732253 [Eh]
	-----------------------------------------------------------

  Dipole Moment: [D]
     X:    -1.0410      Y:     1.0527      Z:     0.0006     Total:     1.4805

*** Psi4 exiting successfully. Buy a developer a beer!
