                               Psi4 1.3.2 release

  ==> Input File <==

--------------------------------------------------------------------------
#psi4
#
memory 32 gb

molecule  {
0 1
  N        1.9810311    -0.0394881    -0.0320673
  C       -0.5338880     0.5233470     0.0001550
  C        0.5931330    -0.5108460    -0.0001300
  C       -1.9210010    -0.1151900     0.0002360
  H       -0.5190719     1.1119996     0.8719456
  H       -0.4229150     1.1699190    -0.8798440
  H        0.4930910    -1.1591820    -0.8784170
  H        0.4933810    -1.1593220     0.8780960
  H       -2.0610110    -0.7444140    -0.8841720
  H       -2.0608750    -0.7445920     0.8845450
  H       -2.7085880     0.6433700     0.0003330
  H        2.0796550     0.6282150     0.8131880
  H        2.0792360     0.6287680    -0.8134610
units angstrom
no_reorient  #important for SAPT in psi4, default
symmetry c1  #important for SAPT in psi4, default
}

set PROPERTIES_ORIGIN ["COM"]
properties('MP2/aug-cc-pvtz', properties = ['dipole'])
--------------------------------------------------------------------------

    Molecular point group: c1
  Charge       = 0
  Multiplicity = 1
  Basis Set: AUG-CC-PVTZ
    Blend: AUG-CC-PVTZ
  Basis Set: (AUG-CC-PVTZ AUX)
    Blend: AUG-CC-PVTZ-JKFIT

    Orbital Energies [Eh]
    ---------------------

    Doubly Occupied:

       1A    -15.550463     2A    -11.244516     3A    -11.216433
       4A    -11.215349     5A     -1.171465     6A     -1.040148
       7A     -0.894207     8A     -0.807172     9A     -0.666979
      10A     -0.607030    11A     -0.601114    12A     -0.556215
      13A     -0.525018    14A     -0.510653    15A     -0.482633
      16A     -0.473159    17A     -0.396032

  @DF-RHF Final Energy:  -173.34464476350411

   => Energetics <=

    Nuclear Repulsion Energy =            130.8270116347424619
    One-Electron Energy =                -492.4261396106556958
    Two-Electron Energy =                 188.2544832124091272
    Total Energy =                       -173.3446447635041068
  Basis Set: (AUG-CC-PVTZ AUX)
    Blend: AUG-CC-PVTZ-RI
    Molecular point group: c1

    Geometry (in Angstrom), charge = 0, multiplicity = 1:

       Center              X                  Y                   Z               Mass
    ------------   -----------------  -----------------  -----------------  -----------------
         N            1.934448485029    -0.015661364123    -0.024386087455    14.003074004430
         C           -0.580470614971     0.547173735877     0.007836212545    12.000000000000
         C            0.546550385029    -0.487019264123     0.007551212545    12.000000000000
         C           -1.967583614971    -0.091363264123     0.007917212545    12.000000000000
         H           -0.565654514971     1.135826335877     0.879626812545     1.007825032230
         H           -0.469497614971     1.193745735877    -0.872162787455     1.007825032230
         H            0.446508385029    -1.135355264123    -0.870735787455     1.007825032230
         H            0.446798385029    -1.135495264123     0.885777212545     1.007825032230
         H           -2.107593614971    -0.720587264123    -0.876490787455     1.007825032230
         H           -2.107457614971    -0.720765264123     0.892226212545     1.007825032230
         H           -2.755170614971     0.667196735877     0.008014212545     1.007825032230
         H            2.033072385029     0.652041735877     0.820869212545     1.007825032230
         H            2.032653385029     0.652594735877    -0.805779787455     1.007825032230

  Basis Set: AUG-CC-PVTZ
    Blend: AUG-CC-PVTZ
  Basis Set: (AUG-CC-PVTZ AUX)
    Blend: AUG-CC-PVTZ-JKFIT
	 Reference Energy          =    -173.3446447635041068 [Eh]
	 Singles Energy            =      -0.0000000000000000 [Eh]
	 Same-Spin Energy          =      -0.1809743191426973 [Eh]
	 Opposite-Spin Energy      =      -0.6609177465256253 [Eh]
	 Correlation Energy        =      -0.8418920656683226 [Eh]
	 Total Energy              =    -174.1865368291724394 [Eh]

	 ================> DF-SCS-MP2 Energies <==================
	-----------------------------------------------------------
	 SCS Same-Spin Scale       =       0.3333333333333333 [-]
	 SCS Opposite-Spin Scale   =       1.2000000000000000 [-]
	 SCS Same-Spin Energy      =      -0.0603247730475658 [Eh]
	 SCS Opposite-Spin Energy  =      -0.7931012958307503 [Eh]
	 SCS Correlation Energy    =      -0.8534260688783161 [Eh]
	 SCS Total Energy          =    -174.1980708323824274 [Eh]
	-----------------------------------------------------------

  Dipole Moment: [D]
     X:    -1.1428      Y:     1.1782      Z:     0.0678     Total:     1.6428

*** Psi4 exiting successfully. Buy a developer a beer!
