                               Psi4 1.3.2 release

  ==> Input File <==

--------------------------------------------------------------------------
#psi4
#
memory 32 gb

molecule  {
0 1
  N        1.9573170     0.0262400    -0.0003030
  C       -0.5338880     0.5233470     0.0001550
  C        0.5833748    -0.5211293    -0.0227516
  C       -1.9210010    -0.1151900     0.0002360
  H       -0.4382527     1.1794196     0.8748971
  H       -0.4229150     1.1699190    -0.8798440
  H        0.4930910    -1.1591820    -0.8784170
  H        0.4933810    -1.1593220     0.8780960
  H       -2.0610110    -0.7444140    -0.8841720
  H       -2.0608750    -0.7445920     0.8845450
  H       -2.7085880     0.6433700     0.0003330
  H        2.0796550     0.6282150     0.8131880
  H        2.0792360     0.6287680    -0.8134610
units angstrom
no_reorient  #important for SAPT in psi4, default
symmetry c1  #important for SAPT in psi4, default
}

set PROPERTIES_ORIGIN ["COM"]
properties('MP2/aug-cc-pvtz', properties = ['dipole'])
--------------------------------------------------------------------------

    Molecular point group: c1
  Charge       = 0
  Multiplicity = 1
  Basis Set: AUG-CC-PVTZ
    Blend: AUG-CC-PVTZ
  Basis Set: (AUG-CC-PVTZ AUX)
    Blend: AUG-CC-PVTZ-JKFIT

    Orbital Energies [Eh]
    ---------------------

    Doubly Occupied:

       1A    -15.538230     2A    -11.244408     3A    -11.220182
       4A    -11.215271     5A     -1.171249     6A     -1.037100
       7A     -0.897596     8A     -0.805523     9A     -0.672709
      10A     -0.605412    11A     -0.601740    12A     -0.559417
      13A     -0.521248    14A     -0.517060    15A     -0.487531
      16A     -0.471722    17A     -0.386263

  @DF-RHF Final Energy:  -173.35268385915219

   => Energetics <=

    Nuclear Repulsion Energy =            130.9724662445121908
    One-Electron Energy =                -492.7449756295866337
    Two-Electron Energy =                 188.4198255259222492
    Total Energy =                       -173.3526838591521937
  Basis Set: (AUG-CC-PVTZ AUX)
    Blend: AUG-CC-PVTZ-RI
    Molecular point group: c1

    Geometry (in Angstrom), charge = 0, multiplicity = 1:

       Center              X                  Y                   Z               Mass
    ------------   -----------------  -----------------  -----------------  -----------------
         N            1.916959123512     0.035424918099     0.004393570679    14.003074004430
         C           -0.574245876488     0.532531918099     0.004851570679    12.000000000000
         C            0.543016923512    -0.511944381901    -0.018055029321    12.000000000000
         C           -1.961358876488    -0.106005081901     0.004932570679    12.000000000000
         H           -0.478610576488     1.188604518099     0.879593670679     1.007825032230
         H           -0.463272876488     1.179103918099    -0.875147429321     1.007825032230
         H            0.452733123512    -1.149997081901    -0.873720429321     1.007825032230
         H            0.453023123512    -1.150137081901     0.882792570679     1.007825032230
         H           -2.101368876488    -0.735229081901    -0.879475429321     1.007825032230
         H           -2.101232876488    -0.735407081901     0.889241570679     1.007825032230
         H           -2.748945876488     0.652554918099     0.005029570679     1.007825032230
         H            2.039297123512     0.637399918099     0.817884570679     1.007825032230
         H            2.038878123512     0.637952918099    -0.808764429321     1.007825032230

  Basis Set: AUG-CC-PVTZ
    Blend: AUG-CC-PVTZ
  Basis Set: (AUG-CC-PVTZ AUX)
    Blend: AUG-CC-PVTZ-JKFIT
	 Reference Energy          =    -173.3526838591521937 [Eh]
	 Singles Energy            =      -0.0000000000000000 [Eh]
	 Same-Spin Energy          =      -0.1803603275021622 [Eh]
	 Opposite-Spin Energy      =      -0.6592418399939415 [Eh]
	 Correlation Energy        =      -0.8396021674961037 [Eh]
	 Total Energy              =    -174.1922860266483042 [Eh]

	 ================> DF-SCS-MP2 Energies <==================
	-----------------------------------------------------------
	 SCS Same-Spin Scale       =       0.3333333333333333 [-]
	 SCS Opposite-Spin Scale   =       1.2000000000000000 [-]
	 SCS Same-Spin Energy      =      -0.0601201091673874 [Eh]
	 SCS Opposite-Spin Energy  =      -0.7910902079927298 [Eh]
	 SCS Correlation Energy    =      -0.8512103171601172 [Eh]
	 SCS Total Energy          =    -174.2038941763123034 [Eh]
	-----------------------------------------------------------

  Dipole Moment: [D]
     X:    -1.0723      Y:     1.0435      Z:    -0.0169     Total:     1.4963

*** Psi4 exiting successfully. Buy a developer a beer!
