                               Psi4 1.3.2 release

  ==> Input File <==

--------------------------------------------------------------------------
#psi4
#
memory 32 gb

molecule  {
0 1
  N        1.9573170     0.0262400    -0.0003030
  C       -0.5338880     0.5233470     0.0001550
  C        0.5931330    -0.5108460    -0.0001300
  C       -1.9210010    -0.1151900     0.0002360
  H       -0.4226550     1.1696880     0.8802810
  H       -0.4229150     1.1699190    -0.8798440
  H        0.4930910    -1.1591820    -0.8784170
  H        0.4933810    -1.1593220     0.8780960
  H       -2.0610110    -0.7444140    -0.8841720
  H       -2.0608750    -0.7445920     0.8845450
  H       -2.7085880     0.6433700     0.0003330
  H        2.0676536     0.5691612     0.7333844
  H        2.0792360     0.6287680    -0.8134610
units angstrom
no_reorient  #important for SAPT in psi4, default
symmetry c1  #important for SAPT in psi4, default
}

set PROPERTIES_ORIGIN ["COM"]
properties('MP2/aug-cc-pvtz', properties = ['dipole'])
--------------------------------------------------------------------------

    Molecular point group: c1
  Charge       = 0
  Multiplicity = 1
  Basis Set: AUG-CC-PVTZ
    Blend: AUG-CC-PVTZ
  Basis Set: (AUG-CC-PVTZ AUX)
    Blend: AUG-CC-PVTZ-JKFIT

    Orbital Energies [Eh]
    ---------------------

    Doubly Occupied:

       1A    -15.526757     2A    -11.244121     3A    -11.220141
       4A    -11.215681     5A     -1.189906     6A     -1.039799
       7A     -0.901713     8A     -0.806203     9A     -0.685240
      10A     -0.612446    11A     -0.604918    12A     -0.560631
      13A     -0.523590    14A     -0.518824    15A     -0.486628
      16A     -0.471479    17A     -0.388059

  @DF-RHF Final Energy:  -173.34693227903500

   => Energetics <=

    Nuclear Repulsion Energy =            131.5777693217466151
    One-Electron Energy =                -493.8571339268961538
    Two-Electron Energy =                 188.9324323261145651
    Total Energy =                       -173.3469322790350020
  Basis Set: (AUG-CC-PVTZ AUX)
    Blend: AUG-CC-PVTZ-RI
    Molecular point group: c1

    Geometry (in Angstrom), charge = 0, multiplicity = 1:

       Center              X                  Y                   Z               Mass
    ------------   -----------------  -----------------  -----------------  -----------------
         N            1.914915519483     0.034509516901     0.001067931165    14.003074004430
         C           -0.576289480517     0.531616516901     0.001525931165    12.000000000000
         C            0.550731519483    -0.502576483099     0.001240931165    12.000000000000
         C           -1.963402480517    -0.106920483099     0.001606931165    12.000000000000
         H           -0.465056480517     1.177957516901     0.881651931165     1.007825032230
         H           -0.465316480517     1.178188516901    -0.878473068835     1.007825032230
         H            0.450689519483    -1.150912483099    -0.877046068835     1.007825032230
         H            0.450979519483    -1.151052483099     0.879466931165     1.007825032230
         H           -2.103412480517    -0.736144483099    -0.882801068835     1.007825032230
         H           -2.103276480517    -0.736322483099     0.885915931165     1.007825032230
         H           -2.750989480517     0.651639516901     0.001703931165     1.007825032230
         H            2.025252119483     0.577430716901     0.734755331165     1.007825032230
         H            2.036834519483     0.637037516901    -0.812090068835     1.007825032230

  Basis Set: AUG-CC-PVTZ
    Blend: AUG-CC-PVTZ
  Basis Set: (AUG-CC-PVTZ AUX)
    Blend: AUG-CC-PVTZ-JKFIT
	 Reference Energy          =    -173.3469322790350020 [Eh]
	 Singles Energy            =      -0.0000000000000000 [Eh]
	 Same-Spin Energy          =      -0.1799902519065524 [Eh]
	 Opposite-Spin Energy      =      -0.6577447785239523 [Eh]
	 Correlation Energy        =      -0.8377350304305047 [Eh]
	 Total Energy              =    -174.1846673094655102 [Eh]

	 ================> DF-SCS-MP2 Energies <==================
	-----------------------------------------------------------
	 SCS Same-Spin Scale       =       0.3333333333333333 [-]
	 SCS Opposite-Spin Scale   =       1.2000000000000000 [-]
	 SCS Same-Spin Energy      =      -0.0599967506355175 [Eh]
	 SCS Opposite-Spin Energy  =      -0.7892937342287427 [Eh]
	 SCS Correlation Energy    =      -0.8492904848642602 [Eh]
	 SCS Total Energy          =    -174.1962227638992715 [Eh]
	-----------------------------------------------------------

  Dipole Moment: [D]
     X:    -1.0464      Y:     1.0589      Z:    -0.0181     Total:     1.4889

*** Psi4 exiting successfully. Buy a developer a beer!
