                               Psi4 1.3.2 release

  ==> Input File <==

--------------------------------------------------------------------------
#psi4
#
memory 32 gb

molecule  {
0 1
  N        1.9664827     0.0023499    -0.0003068
  C       -0.5517655     0.5035203     0.0001560
  C        0.5931330    -0.5108460    -0.0001300
  C       -1.9210010    -0.1151900     0.0002360
  H       -0.4226550     1.1696880     0.8802810
  H       -0.4229150     1.1699190    -0.8798440
  H        0.4930910    -1.1591820    -0.8784170
  H        0.4933810    -1.1593220     0.8780960
  H       -2.0610110    -0.7444140    -0.8841720
  H       -2.0608750    -0.7445920     0.8845450
  H       -2.7085880     0.6433700     0.0003330
  H        2.0796550     0.6282150     0.8131880
  H        2.0792360     0.6287680    -0.8134610
units angstrom
no_reorient  #important for SAPT in psi4, default
symmetry c1  #important for SAPT in psi4, default
}

set PROPERTIES_ORIGIN ["COM"]
properties('MP2/aug-cc-pvtz', properties = ['dipole'])
--------------------------------------------------------------------------

    Molecular point group: c1
  Charge       = 0
  Multiplicity = 1
  Basis Set: AUG-CC-PVTZ
    Blend: AUG-CC-PVTZ
  Basis Set: (AUG-CC-PVTZ AUX)
    Blend: AUG-CC-PVTZ-JKFIT

    Orbital Energies [Eh]
    ---------------------

    Doubly Occupied:

       1A    -15.544001     2A    -11.244428     3A    -11.222084
       4A    -11.215512     5A     -1.174016     6A     -1.041216
       7A     -0.897592     8A     -0.801514     9A     -0.669605
      10A     -0.607995    11A     -0.600771    12A     -0.560615
      13A     -0.526518    14A     -0.514232    15A     -0.485982
      16A     -0.464992    17A     -0.391357

  @DF-RHF Final Energy:  -173.35090441097924

   => Energetics <=

    Nuclear Repulsion Energy =            131.0346643168535081
    One-Electron Energy =                -492.8462762521739933
    Two-Electron Energy =                 188.4607075243412169
    Total Energy =                       -173.3509044109792399
  Basis Set: (AUG-CC-PVTZ AUX)
    Blend: AUG-CC-PVTZ-RI
    Molecular point group: c1

    Geometry (in Angstrom), charge = 0, multiplicity = 1:

       Center              X                  Y                   Z               Mass
    ------------   -----------------  -----------------  -----------------  -----------------
         N            1.925335364136     0.019302487085    -0.000296662677    14.003074004430
         C           -0.592912835864     0.520472887085     0.000166137323    12.000000000000
         C            0.551985664136    -0.493893412915    -0.000119862677    12.000000000000
         C           -1.962148335864    -0.098237412915     0.000246137323    12.000000000000
         H           -0.463802335864     1.186640587085     0.880291137323     1.007825032230
         H           -0.464062335864     1.186871587085    -0.879833862677     1.007825032230
         H            0.451943664136    -1.142229412915    -0.878406862677     1.007825032230
         H            0.452233664136    -1.142369412915     0.878106137323     1.007825032230
         H           -2.102158335864    -0.727461412915    -0.884161862677     1.007825032230
         H           -2.102022335864    -0.727639412915     0.884555137323     1.007825032230
         H           -2.749735335864     0.660322587085     0.000343137323     1.007825032230
         H            2.038507664136     0.645167587085     0.813198137323     1.007825032230
         H            2.038088664136     0.645720587085    -0.813450862677     1.007825032230

  Basis Set: AUG-CC-PVTZ
    Blend: AUG-CC-PVTZ
  Basis Set: (AUG-CC-PVTZ AUX)
    Blend: AUG-CC-PVTZ-JKFIT
	 Reference Energy          =    -173.3509044109792399 [Eh]
	 Singles Energy            =      -0.0000000000000000 [Eh]
	 Same-Spin Energy          =      -0.1807751229180840 [Eh]
	 Opposite-Spin Energy      =      -0.6600099885792576 [Eh]
	 Correlation Energy        =      -0.8407851114973416 [Eh]
	 Total Energy              =    -174.1916895224765938 [Eh]

	 ================> DF-SCS-MP2 Energies <==================
	-----------------------------------------------------------
	 SCS Same-Spin Scale       =       0.3333333333333333 [-]
	 SCS Opposite-Spin Scale   =       1.2000000000000000 [-]
	 SCS Same-Spin Energy      =      -0.0602583743060280 [Eh]
	 SCS Opposite-Spin Energy  =      -0.7920119862951092 [Eh]
	 SCS Correlation Energy    =      -0.8522703606011371 [Eh]
	 SCS Total Energy          =    -174.2031747715803647 [Eh]
	-----------------------------------------------------------

  Dipole Moment: [D]
     X:    -1.0824      Y:     1.0835      Z:     0.0006     Total:     1.5315

*** Psi4 exiting successfully. Buy a developer a beer!
