                               Psi4 1.3.2 release

  ==> Input File <==

--------------------------------------------------------------------------
#psi4
#
memory 32 gb

molecule  {
0 1
  N        1.9525782     0.0381241    -0.0003011
  C       -0.5248202     0.5331426     0.0001544
  C        0.5931330    -0.5108460    -0.0001300
  C       -1.9210010    -0.1151900     0.0002360
  H       -0.4226550     1.1696880     0.8802810
  H       -0.4229150     1.1699190    -0.8798440
  H        0.4930910    -1.1591820    -0.8784170
  H        0.4933810    -1.1593220     0.8780960
  H       -2.0610110    -0.7444140    -0.8841720
  H       -2.0608750    -0.7445920     0.8845450
  H       -2.7085880     0.6433700     0.0003330
  H        2.0796550     0.6282150     0.8131880
  H        2.0792360     0.6287680    -0.8134610
units angstrom
no_reorient  #important for SAPT in psi4, default
symmetry c1  #important for SAPT in psi4, default
}

set PROPERTIES_ORIGIN ["COM"]
properties('MP2/aug-cc-pvtz', properties = ['dipole'])
--------------------------------------------------------------------------

    Molecular point group: c1
  Charge       = 0
  Multiplicity = 1
  Basis Set: AUG-CC-PVTZ
    Blend: AUG-CC-PVTZ
  Basis Set: (AUG-CC-PVTZ AUX)
    Blend: AUG-CC-PVTZ-JKFIT

    Orbital Energies [Eh]
    ---------------------

    Doubly Occupied:

       1A    -15.536318     2A    -11.244434     3A    -11.218929
       4A    -11.215485     5A     -1.175809     6A     -1.034793
       7A     -0.896654     8A     -0.805717     9A     -0.675701
      10A     -0.604719    11A     -0.604337    12A     -0.559954
      13A     -0.519627    14A     -0.517304    15A     -0.486190
      16A     -0.473765    17A     -0.384422

  @DF-RHF Final Energy:  -173.35391947748536

   => Energetics <=

    Nuclear Repulsion Energy =            131.0932955872088712
    One-Electron Energy =                -492.9861182786252698
    Two-Electron Energy =                 188.5389032139310643
    Total Energy =                       -173.3539194774853627
  Basis Set: (AUG-CC-PVTZ AUX)
    Blend: AUG-CC-PVTZ-RI
    Molecular point group: c1

    Geometry (in Angstrom), charge = 0, multiplicity = 1:

       Center              X                  Y                   Z               Mass
    ------------   -----------------  -----------------  -----------------  -----------------
         N            1.909253274201     0.040579215625    -0.000291988814    14.003074004430
         C           -0.568145125799     0.535597715625     0.000163511186    12.000000000000
         C            0.549808074201    -0.508390884375    -0.000120888814    12.000000000000
         C           -1.964325925799    -0.112734884375     0.000245111186    12.000000000000
         H           -0.465979925799     1.172143115625     0.880290111186     1.007825032230
         H           -0.466239925799     1.172374115625    -0.879834888814     1.007825032230
         H            0.449766074201    -1.156726884375    -0.878407888814     1.007825032230
         H            0.450056074201    -1.156866884375     0.878105111186     1.007825032230
         H           -2.104335925799    -0.741958884375    -0.884162888814     1.007825032230
         H           -2.104199925799    -0.742136884375     0.884554111186     1.007825032230
         H           -2.751912925799     0.645825115625     0.000342111186     1.007825032230
         H            2.036330074201     0.630670115625     0.813197111186     1.007825032230
         H            2.035911074201     0.631223115625    -0.813451888814     1.007825032230

  Basis Set: AUG-CC-PVTZ
    Blend: AUG-CC-PVTZ
  Basis Set: (AUG-CC-PVTZ AUX)
    Blend: AUG-CC-PVTZ-JKFIT
	 Reference Energy          =    -173.3539194774853627 [Eh]
	 Singles Energy            =      -0.0000000000000000 [Eh]
	 Same-Spin Energy          =      -0.1802832330541635 [Eh]
	 Opposite-Spin Energy      =      -0.6588698796806149 [Eh]
	 Correlation Energy        =      -0.8391531127347784 [Eh]
	 Total Energy              =    -174.1930725902201402 [Eh]

	 ================> DF-SCS-MP2 Energies <==================
	-----------------------------------------------------------
	 SCS Same-Spin Scale       =       0.3333333333333333 [-]
	 SCS Opposite-Spin Scale   =       1.2000000000000000 [-]
	 SCS Same-Spin Energy      =      -0.0600944110180545 [Eh]
	 SCS Opposite-Spin Energy  =      -0.7906438556167379 [Eh]
	 SCS Correlation Energy    =      -0.8507382666347924 [Eh]
	 SCS Total Energy          =    -174.2046577441201691 [Eh]
	-----------------------------------------------------------

  Dipole Moment: [D]
     X:    -1.0186      Y:     1.0354      Z:     0.0006     Total:     1.4525

*** Psi4 exiting successfully. Buy a developer a beer!
