                               Psi4 1.3.2 release

  ==> Input File <==

--------------------------------------------------------------------------
#psi4
#
memory 32 gb

molecule  {
0 1
  N        1.9573170     0.0262400    -0.0003030
  C       -0.5338880     0.5233470     0.0001550
  C        0.5883273    -0.4980233     0.0214855
  C       -1.9210010    -0.1151900     0.0002360
  H       -0.4226550     1.1696880     0.8802810
  H       -0.4229150     1.1699190    -0.8798440
  H        0.4930910    -1.1591820    -0.8784170
  H        0.4933810    -1.1593220     0.8780960
  H       -2.0610110    -0.7444140    -0.8841720
  H       -2.0608750    -0.7445920     0.8845450
  H       -2.7085880     0.6433700     0.0003330
  H        2.0628550     0.6248713     0.8179943
  H        2.0792360     0.6287680    -0.8134610
units angstrom
no_reorient  #important for SAPT in psi4, default
symmetry c1  #important for SAPT in psi4, default
}

set PROPERTIES_ORIGIN ["COM"]
properties('MP2/aug-cc-pvtz', properties = ['dipole'])
--------------------------------------------------------------------------

    Molecular point group: c1
  Charge       = 0
  Multiplicity = 1
  Basis Set: AUG-CC-PVTZ
    Blend: AUG-CC-PVTZ
  Basis Set: (AUG-CC-PVTZ AUX)
    Blend: AUG-CC-PVTZ-JKFIT

    Orbital Energies [Eh]
    ---------------------

    Doubly Occupied:

       1A    -15.539420     2A    -11.244771     3A    -11.219945
       4A    -11.215955     5A     -1.176435     6A     -1.038418
       7A     -0.897311     8A     -0.803633     9A     -0.674049
      10A     -0.607170    11A     -0.603056    12A     -0.561094
      13A     -0.522591    14A     -0.514569    15A     -0.486604
      16A     -0.467937    17A     -0.389273

  @DF-RHF Final Energy:  -173.35241847815169

   => Energetics <=

    Nuclear Repulsion Energy =            131.2032410092067494
    One-Electron Energy =                -493.1868548998697293
    Two-Electron Energy =                 188.6311954125112891
    Total Energy =                       -173.3524184781516908
  Basis Set: (AUG-CC-PVTZ AUX)
    Blend: AUG-CC-PVTZ-RI
    Molecular point group: c1

    Geometry (in Angstrom), charge = 0, multiplicity = 1:

       Center              X                  Y                   Z               Mass
    ------------   -----------------  -----------------  -----------------  -----------------
         N            1.915973600517     0.030954311338    -0.004766461233    14.003074004430
         C           -0.575231399483     0.528061311338    -0.004308461233    12.000000000000
         C            0.546983900517    -0.493308988662     0.017022038767    12.000000000000
         C           -1.962344399483    -0.110475688662    -0.004227461233    12.000000000000
         H           -0.463998399483     1.174402311338     0.875817538767     1.007825032230
         H           -0.464258399483     1.174633311338    -0.884307461233     1.007825032230
         H            0.451747600517    -1.154467688662    -0.882880461233     1.007825032230
         H            0.452037600517    -1.154607688662     0.873632538767     1.007825032230
         H           -2.102354399483    -0.739699688662    -0.888635461233     1.007825032230
         H           -2.102218399483    -0.739877688662     0.880081538767     1.007825032230
         H           -2.749931399483     0.648084311338    -0.004130461233     1.007825032230
         H            2.021511600517     0.629585611338     0.813530838767     1.007825032230
         H            2.037892600517     0.633482311338    -0.817924461233     1.007825032230

  Basis Set: AUG-CC-PVTZ
    Blend: AUG-CC-PVTZ
  Basis Set: (AUG-CC-PVTZ AUX)
    Blend: AUG-CC-PVTZ-JKFIT
	 Reference Energy          =    -173.3524184781516908 [Eh]
	 Singles Energy            =      -0.0000000000000000 [Eh]
	 Same-Spin Energy          =      -0.1805558058347514 [Eh]
	 Opposite-Spin Energy      =      -0.6594098524484165 [Eh]
	 Correlation Energy        =      -0.8399656582831679 [Eh]
	 Total Energy              =    -174.1923841364348675 [Eh]

	 ================> DF-SCS-MP2 Energies <==================
	-----------------------------------------------------------
	 SCS Same-Spin Scale       =       0.3333333333333333 [-]
	 SCS Opposite-Spin Scale   =       1.2000000000000000 [-]
	 SCS Same-Spin Energy      =      -0.0601852686115838 [Eh]
	 SCS Opposite-Spin Energy  =      -0.7912918229380999 [Eh]
	 SCS Correlation Energy    =      -0.8514770915496837 [Eh]
	 SCS Total Energy          =    -174.2038955697013876 [Eh]
	-----------------------------------------------------------

  Dipole Moment: [D]
     X:    -1.0612      Y:     1.0675      Z:     0.0161     Total:     1.5054

*** Psi4 exiting successfully. Buy a developer a beer!
