                               Psi4 1.3.2 release

  ==> Input File <==

--------------------------------------------------------------------------
#psi4
#
memory 32 gb

molecule  {
0 1
  N        1.9573170     0.0262400    -0.0003030
  C       -0.5338880     0.5233470     0.0001550
  C        0.5000847    -0.5474796    -0.0001182
  C       -1.9210010    -0.1151900     0.0002360
  H       -0.4226550     1.1696880     0.8802810
  H       -0.4229150     1.1699190    -0.8798440
  H        0.4930910    -1.1591820    -0.8784170
  H        0.4933810    -1.1593220     0.8780960
  H       -2.0610110    -0.7444140    -0.8841720
  H       -2.0608750    -0.7445920     0.8845450
  H       -2.7085880     0.6433700     0.0003330
  H        2.0796550     0.6282150     0.8131880
  H        2.0792360     0.6287680    -0.8134610
units angstrom
no_reorient  #important for SAPT in psi4, default
symmetry c1  #important for SAPT in psi4, default
}

set PROPERTIES_ORIGIN ["COM"]
properties('MP2/aug-cc-pvtz', properties = ['dipole'])
--------------------------------------------------------------------------

    Molecular point group: c1
  Charge       = 0
  Multiplicity = 1
  Basis Set: AUG-CC-PVTZ
    Blend: AUG-CC-PVTZ
  Basis Set: (AUG-CC-PVTZ AUX)
    Blend: AUG-CC-PVTZ-JKFIT

    Orbital Energies [Eh]
    ---------------------

    Doubly Occupied:

       1A    -15.534789     2A    -11.244632     3A    -11.221423
       4A    -11.216214     5A     -1.151064     6A     -1.043542
       7A     -0.902779     8A     -0.808571     9A     -0.670235
      10A     -0.602364    11A     -0.602194    12A     -0.553794
      13A     -0.527798    14A     -0.509393    15A     -0.486566
      16A     -0.478771    17A     -0.386017

  @DF-RHF Final Energy:  -173.34478732050292

   => Energetics <=

    Nuclear Repulsion Energy =            130.8323898477839577
    One-Electron Energy =                -492.4740645737621207
    Two-Electron Energy =                 188.2968874054752746
    Total Energy =                       -173.3447873205029168
  Basis Set: (AUG-CC-PVTZ AUX)
    Blend: AUG-CC-PVTZ-RI
    Molecular point group: c1

    Geometry (in Angstrom), charge = 0, multiplicity = 1:

       Center              X                  Y                   Z               Mass
    ------------   -----------------  -----------------  -----------------  -----------------
         N            1.933612300643     0.040943659226    -0.000295957325    14.003074004430
         C           -0.557592699357     0.538050659226     0.000162042675    12.000000000000
         C            0.476380000643    -0.532775940774    -0.000111157325    12.000000000000
         C           -1.944705699357    -0.100486340774     0.000243042675    12.000000000000
         H           -0.446359699357     1.184391659226     0.880288042675     1.007825032230
         H           -0.446619699357     1.184622659226    -0.879836957325     1.007825032230
         H            0.469386300643    -1.144478340774    -0.878409957325     1.007825032230
         H            0.469676300643    -1.144618340774     0.878103042675     1.007825032230
         H           -2.084715699357    -0.729710340774    -0.884164957325     1.007825032230
         H           -2.084579699357    -0.729888340774     0.884552042675     1.007825032230
         H           -2.732292699357     0.658073659226     0.000340042675     1.007825032230
         H            2.055950300643     0.642918659226     0.813195042675     1.007825032230
         H            2.055531300643     0.643471659226    -0.813453957325     1.007825032230

  Basis Set: AUG-CC-PVTZ
    Blend: AUG-CC-PVTZ
  Basis Set: (AUG-CC-PVTZ AUX)
    Blend: AUG-CC-PVTZ-JKFIT
	 Reference Energy          =    -173.3447873205029168 [Eh]
	 Singles Energy            =      -0.0000000000000000 [Eh]
	 Same-Spin Energy          =      -0.1805973835689363 [Eh]
	 Opposite-Spin Energy      =      -0.6603158637973937 [Eh]
	 Correlation Energy        =      -0.8409132473663300 [Eh]
	 Total Energy              =    -174.1857005678692474 [Eh]

	 ================> DF-SCS-MP2 Energies <==================
	-----------------------------------------------------------
	 SCS Same-Spin Scale       =       0.3333333333333333 [-]
	 SCS Opposite-Spin Scale   =       1.2000000000000000 [-]
	 SCS Same-Spin Energy      =      -0.0601991278563121 [Eh]
	 SCS Opposite-Spin Energy  =      -0.7923790365568725 [Eh]
	 SCS Correlation Energy    =      -0.8525781644131846 [Eh]
	 SCS Total Energy          =    -174.1973654849161051 [Eh]
	-----------------------------------------------------------

  Dipole Moment: [D]
     X:    -1.2994      Y:     1.0050      Z:     0.0006     Total:     1.6427

*** Psi4 exiting successfully. Buy a developer a beer!
