                               Psi4 1.3.2 release

  ==> Input File <==

--------------------------------------------------------------------------
#psi4
#
memory 32 gb

molecule  {
0 1
  N        1.9835563    -0.0458919    -0.0003143
  C       -0.5864689     0.4629460     0.0001579
  C        0.5931330    -0.5108460    -0.0001300
  C       -1.9210010    -0.1151900     0.0002360
  H       -0.4226550     1.1696880     0.8802810
  H       -0.4229150     1.1699190    -0.8798440
  H        0.4930910    -1.1591820    -0.8784170
  H        0.4933810    -1.1593220     0.8780960
  H       -2.0610110    -0.7444140    -0.8841720
  H       -2.0608750    -0.7445920     0.8845450
  H       -2.7085880     0.6433700     0.0003330
  H        2.0796550     0.6282150     0.8131880
  H        2.0792360     0.6287680    -0.8134610
units angstrom
no_reorient  #important for SAPT in psi4, default
symmetry c1  #important for SAPT in psi4, default
}

set PROPERTIES_ORIGIN ["COM"]
properties('MP2/aug-cc-pvtz', properties = ['dipole'])
--------------------------------------------------------------------------

    Molecular point group: c1
  Charge       = 0
  Multiplicity = 1
  Basis Set: AUG-CC-PVTZ
    Blend: AUG-CC-PVTZ
  Basis Set: (AUG-CC-PVTZ AUX)
    Blend: AUG-CC-PVTZ-JKFIT

    Orbital Energies [Eh]
    ---------------------

    Doubly Occupied:

       1A    -15.554899     2A    -11.244896     3A    -11.227098
       4A    -11.215278     5A     -1.171930     6A     -1.050957
       7A     -0.898790     8A     -0.795658     9A     -0.662905
      10A     -0.612308    11A     -0.597115    12A     -0.566550
      13A     -0.533077    14A     -0.508798    15A     -0.483155
      16A     -0.452403    17A     -0.399630

  @DF-RHF Final Energy:  -173.33797229139373

   => Energetics <=

    Nuclear Repulsion Energy =            130.9848967443755328
    One-Electron Energy =                -492.6948416344457087
    Two-Electron Energy =                 188.3719725986764502
    Total Energy =                       -173.3379722913937258
  Basis Set: (AUG-CC-PVTZ AUX)
    Blend: AUG-CC-PVTZ-RI
    Molecular point group: c1

    Geometry (in Angstrom), charge = 0, multiplicity = 1:

       Center              X                  Y                   Z               Mass
    ------------   -----------------  -----------------  -----------------  -----------------
         N            1.945411290353    -0.009261706046    -0.000302770800    14.003074004430
         C           -0.624613909647     0.499576193954     0.000169429200    12.000000000000
         C            0.554987990353    -0.474215806046    -0.000118470800    12.000000000000
         C           -1.959146009647    -0.078559806046     0.000247529200    12.000000000000
         H           -0.460800009647     1.206318193954     0.880292529200     1.007825032230
         H           -0.461060009647     1.206549193954    -0.879832470800     1.007825032230
         H            0.454945990353    -1.122551806046    -0.878405470800     1.007825032230
         H            0.455235990353    -1.122691806046     0.878107529200     1.007825032230
         H           -2.099156009647    -0.707783806046    -0.884160470800     1.007825032230
         H           -2.099020009647    -0.707961806046     0.884556529200     1.007825032230
         H           -2.746733009647     0.680000193954     0.000344529200     1.007825032230
         H            2.041509990353     0.664845193954     0.813199529200     1.007825032230
         H            2.041090990353     0.665398193954    -0.813449470800     1.007825032230

  Basis Set: AUG-CC-PVTZ
    Blend: AUG-CC-PVTZ
  Basis Set: (AUG-CC-PVTZ AUX)
    Blend: AUG-CC-PVTZ-JKFIT
	 Reference Energy          =    -173.3379722913937258 [Eh]
	 Singles Energy            =      -0.0000000000000000 [Eh]
	 Same-Spin Energy          =      -0.1817386125886876 [Eh]
	 Opposite-Spin Energy      =      -0.6621894477631900 [Eh]
	 Correlation Energy        =      -0.8439280603518776 [Eh]
	 Total Energy              =    -174.1819003517456110 [Eh]

	 ================> DF-SCS-MP2 Energies <==================
	-----------------------------------------------------------
	 SCS Same-Spin Scale       =       0.3333333333333333 [-]
	 SCS Opposite-Spin Scale   =       1.2000000000000000 [-]
	 SCS Same-Spin Energy      =      -0.0605795375295625 [Eh]
	 SCS Opposite-Spin Energy  =      -0.7946273373158280 [Eh]
	 SCS Correlation Energy    =      -0.8552068748453906 [Eh]
	 SCS Total Energy          =    -174.1931791662391049 [Eh]
	-----------------------------------------------------------

  Dipole Moment: [D]
     X:    -1.1543      Y:     1.1296      Z:     0.0006     Total:     1.6150

*** Psi4 exiting successfully. Buy a developer a beer!
