                               Psi4 1.3.2 release

  ==> Input File <==

--------------------------------------------------------------------------
#psi4
#
memory 32 gb

molecule  {
0 1
  N        1.9573170     0.0262400    -0.0003030
  C       -0.5338880     0.5233470     0.0001550
  C        0.6861813    -0.4742124    -0.0001418
  C       -1.9210010    -0.1151900     0.0002360
  H       -0.4226550     1.1696880     0.8802810
  H       -0.4229150     1.1699190    -0.8798440
  H        0.4930910    -1.1591820    -0.8784170
  H        0.4933810    -1.1593220     0.8780960
  H       -2.0610110    -0.7444140    -0.8841720
  H       -2.0608750    -0.7445920     0.8845450
  H       -2.7085880     0.6433700     0.0003330
  H        2.0796550     0.6282150     0.8131880
  H        2.0792360     0.6287680    -0.8134610
units angstrom
no_reorient  #important for SAPT in psi4, default
symmetry c1  #important for SAPT in psi4, default
}

set PROPERTIES_ORIGIN ["COM"]
properties('MP2/aug-cc-pvtz', properties = ['dipole'])
--------------------------------------------------------------------------

    Molecular point group: c1
  Charge       = 0
  Multiplicity = 1
  Basis Set: AUG-CC-PVTZ
    Blend: AUG-CC-PVTZ
  Basis Set: (AUG-CC-PVTZ AUX)
    Blend: AUG-CC-PVTZ-JKFIT

    Orbital Energies [Eh]
    ---------------------

    Doubly Occupied:

       1A    -15.542030     2A    -11.247551     3A    -11.218457
       4A    -11.215025     5A     -1.208523     6A     -1.029975
       7A     -0.889733     8A     -0.801378     9A     -0.682862
      10A     -0.622703    11A     -0.602067    12A     -0.564321
      13A     -0.533563    14A     -0.505057    15A     -0.484589
      16A     -0.458650    17A     -0.378441

  @DF-RHF Final Energy:  -173.34285552267735

   => Energetics <=

    Nuclear Repulsion Energy =            131.4183355221209411
    One-Electron Energy =                -493.5525305415401931
    Two-Electron Energy =                 188.7913394967419265
    Total Energy =                       -173.3428555226773540
  Basis Set: (AUG-CC-PVTZ AUX)
    Blend: AUG-CC-PVTZ-RI
    Molecular point group: c1

    Geometry (in Angstrom), charge = 0, multiplicity = 1:

       Center              X                  Y                   Z               Mass
    ------------   -----------------  -----------------  -----------------  -----------------
         N            1.895809237905     0.026060396672    -0.000291163297    14.003074004430
         C           -0.595395762095     0.523167396672     0.000166836703    12.000000000000
         C            0.624673537905    -0.474392003328    -0.000129963297    12.000000000000
         C           -1.982508762095    -0.115369603328     0.000247836703    12.000000000000
         H           -0.484162762095     1.169508396672     0.880292836703     1.007825032230
         H           -0.484422762095     1.169739396672    -0.879832163297     1.007825032230
         H            0.431583237905    -1.159361603328    -0.878405163297     1.007825032230
         H            0.431873237905    -1.159501603328     0.878107836703     1.007825032230
         H           -2.122518762095    -0.744593603328    -0.884160163297     1.007825032230
         H           -2.122382762095    -0.744771603328     0.884556836703     1.007825032230
         H           -2.770095762095     0.643190396672     0.000344836703     1.007825032230
         H            2.018147237905     0.628035396672     0.813199836703     1.007825032230
         H            2.017728237905     0.628588396672    -0.813449163297     1.007825032230

  Basis Set: AUG-CC-PVTZ
    Blend: AUG-CC-PVTZ
  Basis Set: (AUG-CC-PVTZ AUX)
    Blend: AUG-CC-PVTZ-JKFIT
	 Reference Energy          =    -173.3428555226773540 [Eh]
	 Singles Energy            =      -0.0000000000000000 [Eh]
	 Same-Spin Energy          =      -0.1810378770889734 [Eh]
	 Opposite-Spin Energy      =      -0.6593501363017903 [Eh]
	 Correlation Energy        =      -0.8403880133907637 [Eh]
	 Total Energy              =    -174.1832435360681188 [Eh]

	 ================> DF-SCS-MP2 Energies <==================
	-----------------------------------------------------------
	 SCS Same-Spin Scale       =       0.3333333333333333 [-]
	 SCS Opposite-Spin Scale   =       1.2000000000000000 [-]
	 SCS Same-Spin Energy      =      -0.0603459590296578 [Eh]
	 SCS Opposite-Spin Energy  =      -0.7912201635621483 [Eh]
	 SCS Correlation Energy    =      -0.8515661225918061 [Eh]
	 SCS Total Energy          =    -174.1944216452691592 [Eh]
	-----------------------------------------------------------

  Dipole Moment: [D]
     X:    -0.7418      Y:     1.1191      Z:     0.0006     Total:     1.3426

*** Psi4 exiting successfully. Buy a developer a beer!
