                               Psi4 1.3.2 release

  ==> Input File <==

--------------------------------------------------------------------------
#psi4
#
memory 32 gb

molecule  {
0 1
  N        1.9377419     0.0735222    -0.0002952
  C       -0.4971086     0.5620495     0.0001527
  C        0.5931330    -0.5108460    -0.0001300
  C       -1.9210010    -0.1151900     0.0002360
  H       -0.4226550     1.1696880     0.8802810
  H       -0.4229150     1.1699190    -0.8798440
  H        0.4930910    -1.1591820    -0.8784170
  H        0.4933810    -1.1593220     0.8780960
  H       -2.0610110    -0.7444140    -0.8841720
  H       -2.0608750    -0.7445920     0.8845450
  H       -2.7085880     0.6433700     0.0003330
  H        2.0796550     0.6282150     0.8131880
  H        2.0792360     0.6287680    -0.8134610
units angstrom
no_reorient  #important for SAPT in psi4, default
symmetry c1  #important for SAPT in psi4, default
}

set PROPERTIES_ORIGIN ["COM"]
properties('MP2/aug-cc-pvtz', properties = ['dipole'])
--------------------------------------------------------------------------

    Molecular point group: c1
  Charge       = 0
  Multiplicity = 1
  Basis Set: AUG-CC-PVTZ
    Blend: AUG-CC-PVTZ
  Basis Set: (AUG-CC-PVTZ AUX)
    Blend: AUG-CC-PVTZ-JKFIT

    Orbital Energies [Eh]
    ---------------------

    Doubly Occupied:

       1A    -15.529155     2A    -11.244719     3A    -11.216370
       4A    -11.215190     5A     -1.177776     6A     -1.029076
       7A     -0.895650     8A     -0.809717     9A     -0.682528
      10A     -0.608512    11A     -0.601419    12A     -0.561341
      13A     -0.519549    14A     -0.513880    15A     -0.483108
      16A     -0.481879    17A     -0.377060

  @DF-RHF Final Energy:  -173.35156607529345

   => Energetics <=

    Nuclear Repulsion Energy =            131.1685060762916635
    One-Electron Energy =                -493.1462855684793567
    Two-Electron Energy =                 188.6262134168942168
    Total Energy =                       -173.3515660752934480
  Basis Set: (AUG-CC-PVTZ AUX)
    Blend: AUG-CC-PVTZ-RI
    Molecular point group: c1

    Geometry (in Angstrom), charge = 0, multiplicity = 1:

       Center              X                  Y                   Z               Mass
    ------------   -----------------  -----------------  -----------------  -----------------
         N            1.892304599030     0.061714320814    -0.000287142047    14.003074004430
         C           -0.542545900970     0.550241620814     0.000160757953    12.000000000000
         C            0.547695699030    -0.522653879186    -0.000121942047    12.000000000000
         C           -1.966438300970    -0.126997879186     0.000244057953    12.000000000000
         H           -0.468092300970     1.157880120814     0.880289057953     1.007825032230
         H           -0.468352300970     1.158111120814    -0.879835942047     1.007825032230
         H            0.447653699030    -1.170989879186    -0.878408942047     1.007825032230
         H            0.447943699030    -1.171129879186     0.878104057953     1.007825032230
         H           -2.106448300970    -0.756221879186    -0.884163942047     1.007825032230
         H           -2.106312300970    -0.756399879186     0.884553057953     1.007825032230
         H           -2.754025300970     0.631562120814     0.000341057953     1.007825032230
         H            2.034217699030     0.616407120814     0.813196057953     1.007825032230
         H            2.033798699030     0.616960120814    -0.813452942047     1.007825032230

  Basis Set: AUG-CC-PVTZ
    Blend: AUG-CC-PVTZ
  Basis Set: (AUG-CC-PVTZ AUX)
    Blend: AUG-CC-PVTZ-JKFIT
	 Reference Energy          =    -173.3515660752934480 [Eh]
	 Singles Energy            =      -0.0000000000000000 [Eh]
	 Same-Spin Energy          =      -0.1799855792249861 [Eh]
	 Opposite-Spin Energy      =      -0.6581481769970482 [Eh]
	 Correlation Energy        =      -0.8381337562220342 [Eh]
	 Total Energy              =    -174.1896998315154690 [Eh]

	 ================> DF-SCS-MP2 Energies <==================
	-----------------------------------------------------------
	 SCS Same-Spin Scale       =       0.3333333333333333 [-]
	 SCS Opposite-Spin Scale   =       1.2000000000000000 [-]
	 SCS Same-Spin Energy      =      -0.0599951930749954 [Eh]
	 SCS Opposite-Spin Energy  =      -0.7897778123964578 [Eh]
	 SCS Correlation Energy    =      -0.8497730054714532 [Eh]
	 SCS Total Energy          =    -174.2013390807649102 [Eh]
	-----------------------------------------------------------

  Dipole Moment: [D]
     X:    -0.9432      Y:     0.9768      Z:     0.0006     Total:     1.3578

*** Psi4 exiting successfully. Buy a developer a beer!
