                               Psi4 1.4a3.dev225

  ==> Input File <==

--------------------------------------------------------------------------
#psi4
#
memory 32 gb

molecule  {
0 1
  N        1.9567340     0.0254830    -0.0000010
  C       -0.5337590     0.5239430     0.0000000
  C        0.5458659    -0.5286518    -0.0000031
  C       -1.9201290    -0.1150620     0.0000010
  H       -0.4211530     1.1712430     0.8793960
  H       -0.4211550     1.1712460    -0.8793930
  H        0.4914030    -1.1596150    -0.8777340
  H        0.4914020    -1.1596250     0.8777200
  H       -2.0588170    -0.7452150    -0.8839620
  H       -2.0588250    -0.7451950     0.8839770
  H       -2.7099090     0.6412230    -0.0000110
  H        2.0794120     0.6282360     0.8131150
  H        2.0794030     0.6282730    -0.8130910
units angstrom
no_reorient  #important for SAPT in psi4, default
symmetry c1  #important for SAPT in psi4, default
}

set PROPERTIES_ORIGIN ["COM"]
properties('MP2/aug-cc-pvtz', properties = ['dipole'])
--------------------------------------------------------------------------

    Molecular point group: c1
  Charge       = 0
  Multiplicity = 1
  Basis Set: AUG-CC-PVTZ
    Blend: AUG-CC-PVTZ
  Basis Set: (AUG-CC-PVTZ AUX)
    Blend: AUG-CC-PVTZ-JKFIT

    Orbital Energies [Eh]
    ---------------------

    Doubly Occupied:

       1A    -15.537040     2A    -11.244033     3A    -11.220593
       4A    -11.215816     5A     -1.162166     6A     -1.040398
       7A     -0.900053     8A     -0.806468     9A     -0.671096
      10A     -0.602774    11A     -0.602541    12A     -0.557135
      13A     -0.521967    14A     -0.515034    15A     -0.487973
      16A     -0.474978    17A     -0.387559

  @DF-RHF Final Energy:  -173.35118169636416

   => Energetics <=

    Nuclear Repulsion Energy =            130.9669890564851187
    One-Electron Energy =                -492.7410888781865310
    Two-Electron Energy =                 188.4229181253372190
    Total Energy =                       -173.3511816963641650
  Basis Set: (AUG-CC-PVTZ AUX)
    Blend: AUG-CC-PVTZ-RI
    Molecular point group: c1

    Geometry (in Angstrom), charge = 0, multiplicity = 1:

       Center              X                  Y                   Z               Mass
    ------------   -----------------  -----------------  -----------------  -----------------
         N            1.923622650906     0.036426469422    -0.000000626397    14.003074004430
         C           -0.566870349094     0.534886469422     0.000000373603    12.000000000000
         C            0.512754550906    -0.517708330578    -0.000002726397    12.000000000000
         C           -1.953240349094    -0.104118530578     0.000001373603    12.000000000000
         H           -0.454264349094     1.182186469422     0.879396373603     1.007825032230
         H           -0.454266349094     1.182189469422    -0.879392626397     1.007825032230
         H            0.458291650906    -1.148671530578    -0.877733626397     1.007825032230
         H            0.458290650906    -1.148681530578     0.877720373603     1.007825032230
         H           -2.091928349094    -0.734271530578    -0.883961626397     1.007825032230
         H           -2.091936349094    -0.734251530578     0.883977373603     1.007825032230
         H           -2.743020349094     0.652166469422    -0.000010626397     1.007825032230
         H            2.046300650906     0.639179469422     0.813115373603     1.007825032230
         H            2.046291650906     0.639216469422    -0.813090626397     1.007825032230

  Basis Set: AUG-CC-PVTZ
    Blend: AUG-CC-PVTZ
  Basis Set: (AUG-CC-PVTZ AUX)
    Blend: AUG-CC-PVTZ-JKFIT
	 Reference Energy          =    -173.3511816963641650 [Eh]
	 Singles Energy            =      -0.0000000000000000 [Eh]
	 Same-Spin Energy          =      -0.1804331588261956 [Eh]
	 Opposite-Spin Energy      =      -0.6596125185483119 [Eh]
	 Correlation Energy        =      -0.8400456773745075 [Eh]
	 Total Energy              =    -174.1912273737386840 [Eh]

	 ================> DF-SCS-MP2 Energies <==================
	-----------------------------------------------------------
	 SCS Same-Spin Scale       =       0.3333333333333333 [-]
	 SCS Opposite-Spin Scale   =       1.2000000000000000 [-]
	 SCS Same-Spin Energy      =      -0.0601443862753985 [Eh]
	 SCS Opposite-Spin Energy  =      -0.7915350222579743 [Eh]
	 SCS Correlation Energy    =      -0.8516794085333729 [Eh]
	 SCS Total Energy          =    -174.2028611048975506 [Eh]
	-----------------------------------------------------------

  Dipole Moment: [D]
     X:    -1.1725      Y:     1.0279      Z:     0.0000     Total:     1.5593

*** Psi4 exiting successfully. Buy a developer a beer!
