                               Psi4 1.3.2 release

  ==> Input File <==

--------------------------------------------------------------------------
#psi4
#
memory 32 gb

molecule  {
0 1
  N        1.9573170     0.0262400    -0.0003030
  C       -0.5338880     0.5233470     0.0001550
  C        0.5956918    -0.5171963    -0.0109382
  C       -1.9210010    -0.1151900     0.0002360
  H       -0.4226550     1.1696880     0.8802810
  H       -0.4229150     1.1699190    -0.8798440
  H        0.4930910    -1.1591820    -0.8784170
  H        0.4933810    -1.1593220     0.8780960
  H       -2.0610110    -0.7444140    -0.8841720
  H       -2.0608750    -0.7445920     0.8845450
  H       -2.7085880     0.6433700     0.0003330
  H        2.0880414     0.6298182     0.8106918
  H        2.0792360     0.6287680    -0.8134610
units angstrom
no_reorient  #important for SAPT in psi4, default
symmetry c1  #important for SAPT in psi4, default
}

set PROPERTIES_ORIGIN ["COM"]
properties('MP2/aug-cc-pvtz', properties = ['dipole'])
--------------------------------------------------------------------------

    Molecular point group: c1
  Charge       = 0
  Multiplicity = 1
  Basis Set: AUG-CC-PVTZ
    Blend: AUG-CC-PVTZ
  Basis Set: (AUG-CC-PVTZ AUX)
    Blend: AUG-CC-PVTZ-JKFIT

    Orbital Energies [Eh]
    ---------------------

    Doubly Occupied:

       1A    -15.538562     2A    -11.244310     3A    -11.219942
       4A    -11.215305     5A     -1.174618     6A     -1.036088
       7A     -0.896892     8A     -0.804763     9A     -0.673313
      10A     -0.605845    11A     -0.602453    12A     -0.559731
      13A     -0.522019    14A     -0.516800    15A     -0.486562
      16A     -0.471676    17A     -0.385483

  @DF-RHF Final Energy:  -173.35345483273471

   => Energetics <=

    Nuclear Repulsion Energy =            131.0050967898007741
    One-Electron Energy =                -492.8083764512353468
    Two-Electron Energy =                 188.4498248286998319
    Total Energy =                       -173.3534548327347125
  Basis Set: (AUG-CC-PVTZ AUX)
    Blend: AUG-CC-PVTZ-RI
    Molecular point group: c1

    Geometry (in Angstrom), charge = 0, multiplicity = 1:

       Center              X                  Y                   Z               Mass
    ------------   -----------------  -----------------  -----------------  -----------------
         N            1.914047906496     0.034764655960     0.001944569044    14.003074004430
         C           -0.577157093504     0.531871655960     0.002402569044    12.000000000000
         C            0.552422706496    -0.508671644040    -0.008690630956    12.000000000000
         C           -1.964270093504    -0.106665344040     0.002483569044    12.000000000000
         H           -0.465924093504     1.178212655960     0.882528569044     1.007825032230
         H           -0.466184093504     1.178443655960    -0.877596430956     1.007825032230
         H            0.449821906496    -1.150657344040    -0.876169430956     1.007825032230
         H            0.450111906496    -1.150797344040     0.880343569044     1.007825032230
         H           -2.104280093504    -0.735889344040    -0.881924430956     1.007825032230
         H           -2.104144093504    -0.736067344040     0.886792569044     1.007825032230
         H           -2.751857093504     0.651894655960     0.002580569044     1.007825032230
         H            2.044772306496     0.638342855960     0.812939369044     1.007825032230
         H            2.035966906496     0.637292655960    -0.811213430956     1.007825032230

  Basis Set: AUG-CC-PVTZ
    Blend: AUG-CC-PVTZ
  Basis Set: (AUG-CC-PVTZ AUX)
    Blend: AUG-CC-PVTZ-JKFIT
	 Reference Energy          =    -173.3534548327347125 [Eh]
	 Singles Energy            =      -0.0000000000000000 [Eh]
	 Same-Spin Energy          =      -0.1803743828713750 [Eh]
	 Opposite-Spin Energy      =      -0.6591351405574123 [Eh]
	 Correlation Energy        =      -0.8395095234287873 [Eh]
	 Total Energy              =    -174.1929643561634862 [Eh]

	 ================> DF-SCS-MP2 Energies <==================
	-----------------------------------------------------------
	 SCS Same-Spin Scale       =       0.3333333333333333 [-]
	 SCS Opposite-Spin Scale   =       1.2000000000000000 [-]
	 SCS Same-Spin Energy      =      -0.0601247942904583 [Eh]
	 SCS Opposite-Spin Energy  =      -0.7909621686688947 [Eh]
	 SCS Correlation Energy    =      -0.8510869629593530 [Eh]
	 SCS Total Energy          =    -174.2045417956940696 [Eh]
	-----------------------------------------------------------

  Dipole Moment: [D]
     X:    -1.0303      Y:     1.0460      Z:    -0.0068     Total:     1.4682

*** Psi4 exiting successfully. Buy a developer a beer!
