                               Psi4 1.3.2 release

  ==> Input File <==

--------------------------------------------------------------------------
#psi4
#
memory 32 gb

molecule  {
0 1
  N        1.9573170     0.0262400    -0.0003030
  C       -0.5338880     0.5233470     0.0001550
  C        0.5983542    -0.5235051    -0.0217455
  C       -1.9210010    -0.1151900     0.0002360
  H       -0.4226550     1.1696880     0.8802810
  H       -0.4229150     1.1699190    -0.8798440
  H        0.4930910    -1.1591820    -0.8784170
  H        0.4933810    -1.1593220     0.8780960
  H       -2.0610110    -0.7444140    -0.8841720
  H       -2.0608750    -0.7445920     0.8845450
  H       -2.7085880     0.6433700     0.0003330
  H        2.0964178     0.6313754     0.8081339
  H        2.0792360     0.6287680    -0.8134610
units angstrom
no_reorient  #important for SAPT in psi4, default
symmetry c1  #important for SAPT in psi4, default
}

set PROPERTIES_ORIGIN ["COM"]
properties('MP2/aug-cc-pvtz', properties = ['dipole'])
--------------------------------------------------------------------------

    Molecular point group: c1
  Charge       = 0
  Multiplicity = 1
  Basis Set: AUG-CC-PVTZ
    Blend: AUG-CC-PVTZ
  Basis Set: (AUG-CC-PVTZ AUX)
    Blend: AUG-CC-PVTZ-JKFIT

    Orbital Energies [Eh]
    ---------------------

    Doubly Occupied:

       1A    -15.538322     2A    -11.244284     3A    -11.219987
       4A    -11.215096     5A     -1.174078     6A     -1.035335
       7A     -0.896877     8A     -0.805237     9A     -0.673026
      10A     -0.606197    11A     -0.601571    12A     -0.559915
      13A     -0.522438    14A     -0.516776    15A     -0.486863
      16A     -0.471991    17A     -0.384142

  @DF-RHF Final Energy:  -173.35294356949888

   => Energetics <=

    Nuclear Repulsion Energy =            130.9377718167536386
    One-Electron Energy =                -492.6771633915518578
    Two-Electron Energy =                 188.3864480052993429
    Total Energy =                       -173.3529435694988763
  Basis Set: (AUG-CC-PVTZ AUX)
    Blend: AUG-CC-PVTZ-RI
    Molecular point group: c1

    Geometry (in Angstrom), charge = 0, multiplicity = 1:

       Center              X                  Y                   Z               Mass
    ------------   -----------------  -----------------  -----------------  -----------------
         N            1.913364169353     0.036019638579     0.004183568210    14.003074004430
         C           -0.577840830647     0.533126638579     0.004641568210    12.000000000000
         C            0.554401369353    -0.513725461421    -0.017258931790    12.000000000000
         C           -1.964953830647    -0.105410361421     0.004722568210    12.000000000000
         H           -0.466607830647     1.179467638579     0.884767568210     1.007825032230
         H           -0.466867830647     1.179698638579    -0.875357431790     1.007825032230
         H            0.449138169353    -1.149402361421    -0.873930431790     1.007825032230
         H            0.449428169353    -1.149542361421     0.882582568210     1.007825032230
         H           -2.104963830647    -0.734634361421    -0.879685431790     1.007825032230
         H           -2.104827830647    -0.734812361421     0.889031568210     1.007825032230
         H           -2.752540830647     0.653149638579     0.004819568210     1.007825032230
         H            2.052464969353     0.641155038579     0.812620468210     1.007825032230
         H            2.035283169353     0.638547638579    -0.808974431790     1.007825032230

  Basis Set: AUG-CC-PVTZ
    Blend: AUG-CC-PVTZ
  Basis Set: (AUG-CC-PVTZ AUX)
    Blend: AUG-CC-PVTZ-JKFIT
	 Reference Energy          =    -173.3529435694988763 [Eh]
	 Singles Energy            =      -0.0000000000000000 [Eh]
	 Same-Spin Energy          =      -0.1803328503645845 [Eh]
	 Opposite-Spin Energy      =      -0.6590913245524191 [Eh]
	 Correlation Energy        =      -0.8394241749170036 [Eh]
	 Total Energy              =    -174.1923677444158898 [Eh]

	 ================> DF-SCS-MP2 Energies <==================
	-----------------------------------------------------------
	 SCS Same-Spin Scale       =       0.3333333333333333 [-]
	 SCS Opposite-Spin Scale   =       1.2000000000000000 [-]
	 SCS Same-Spin Energy      =      -0.0601109501215282 [Eh]
	 SCS Opposite-Spin Energy  =      -0.7909095894629029 [Eh]
	 SCS Correlation Energy    =      -0.8510205395844310 [Eh]
	 SCS Total Energy          =    -174.2039641090833015 [Eh]
	-----------------------------------------------------------

  Dipole Moment: [D]
     X:    -1.0192      Y:     1.0399      Z:    -0.0139     Total:     1.4561

*** Psi4 exiting successfully. Buy a developer a beer!
