                               Psi4 1.3.2 release

  ==> Input File <==

--------------------------------------------------------------------------
#psi4
#
memory 32 gb

molecule  {
0 1
  N        1.9573170     0.0262400    -0.0003030
  C       -0.5338880     0.5233470     0.0001550
  C        0.5931330    -0.5108460    -0.0001300
  C       -1.9210010    -0.1151900     0.0002360
  H       -0.4226550     1.1696880     0.8802810
  H       -0.4229150     1.1699190    -0.8798440
  H        0.4930910    -1.1591820    -0.8784170
  H        0.4933810    -1.1593220     0.8780960
  H       -2.0610110    -0.7444140    -0.8841720
  H       -2.0608750    -0.7445920     0.8845450
  H       -2.7085880     0.6433700     0.0003330
  H        2.0782412     0.6212344     0.8185176
  H        2.0778194     0.6217909    -0.8187946
units angstrom
no_reorient  #important for SAPT in psi4, default
symmetry c1  #important for SAPT in psi4, default
}

set PROPERTIES_ORIGIN ["COM"]
properties('MP2/aug-cc-pvtz', properties = ['dipole'])
--------------------------------------------------------------------------

    Molecular point group: c1
  Charge       = 0
  Multiplicity = 1
  Basis Set: AUG-CC-PVTZ
    Blend: AUG-CC-PVTZ
  Basis Set: (AUG-CC-PVTZ AUX)
    Blend: AUG-CC-PVTZ-JKFIT

    Orbital Energies [Eh]
    ---------------------

    Doubly Occupied:

       1A    -15.538739     2A    -11.244242     3A    -11.219830
       4A    -11.215468     5A     -1.175068     6A     -1.036732
       7A     -0.896682     8A     -0.804074     9A     -0.674692
      10A     -0.605194    11A     -0.603637    12A     -0.559786
      13A     -0.521428    14A     -0.516636    15A     -0.486325
      16A     -0.470902    17A     -0.386342

  @DF-RHF Final Energy:  -173.35349747229600

   => Energetics <=

    Nuclear Repulsion Energy =            131.0759091523894710
    One-Electron Energy =                -492.9472600165997278
    Two-Electron Energy =                 188.5178533919142865
    Total Energy =                       -173.3534974722959987
  Basis Set: (AUG-CC-PVTZ AUX)
    Blend: AUG-CC-PVTZ-RI
    Molecular point group: c1

    Geometry (in Angstrom), charge = 0, multiplicity = 1:

       Center              X                  Y                   Z               Mass
    ------------   -----------------  -----------------  -----------------  -----------------
         N            1.914759057390     0.033740153668    -0.000293492069    14.003074004430
         C           -0.576445942610     0.530847153668     0.000164507931    12.000000000000
         C            0.550575057390    -0.503345846332    -0.000120492069    12.000000000000
         C           -1.963558942610    -0.107689846332     0.000245507931    12.000000000000
         H           -0.465212942610     1.177188153668     0.880290507931     1.007825032230
         H           -0.465472942610     1.177419153668    -0.879834492069     1.007825032230
         H            0.450533057390    -1.151681846332    -0.878407492069     1.007825032230
         H            0.450823057390    -1.151821846332     0.878105507931     1.007825032230
         H           -2.103568942610    -0.736913846332    -0.884162492069     1.007825032230
         H           -2.103432942610    -0.737091846332     0.884554507931     1.007825032230
         H           -2.751145942610     0.650870153668     0.000342507931     1.007825032230
         H            2.035683257390     0.628734553668     0.818527107931     1.007825032230
         H            2.035261457390     0.629291053668    -0.818785092069     1.007825032230

  Basis Set: AUG-CC-PVTZ
    Blend: AUG-CC-PVTZ
  Basis Set: (AUG-CC-PVTZ AUX)
    Blend: AUG-CC-PVTZ-JKFIT
	 Reference Energy          =    -173.3534974722959987 [Eh]
	 Singles Energy            =      -0.0000000000000000 [Eh]
	 Same-Spin Energy          =      -0.1804281062355913 [Eh]
	 Opposite-Spin Energy      =      -0.6591999753179538 [Eh]
	 Correlation Energy        =      -0.8396280815535451 [Eh]
	 Total Energy              =    -174.1931255538495407 [Eh]

	 ================> DF-SCS-MP2 Energies <==================
	-----------------------------------------------------------
	 SCS Same-Spin Scale       =       0.3333333333333333 [-]
	 SCS Opposite-Spin Scale   =       1.2000000000000000 [-]
	 SCS Same-Spin Energy      =      -0.0601427020785304 [Eh]
	 SCS Opposite-Spin Energy  =      -0.7910399703815446 [Eh]
	 SCS Correlation Energy    =      -0.8511826724600751 [Eh]
	 SCS Total Energy          =    -174.2046801447560824 [Eh]
	-----------------------------------------------------------

  Dipole Moment: [D]
     X:    -1.0353      Y:     1.0432      Z:     0.0006     Total:     1.4697

*** Psi4 exiting successfully. Buy a developer a beer!
