                               Psi4 1.3.2 release

  ==> Input File <==

--------------------------------------------------------------------------
#psi4
#
memory 32 gb

molecule  {
0 1
  N        1.9573170     0.0262400    -0.0003030
  C       -0.5338880     0.5233470     0.0001550
  C        0.6110105    -0.4910193    -0.0001294
  C       -1.9319337    -0.0908843     0.0002408
  H       -0.4226550     1.1696880     0.8802810
  H       -0.4229150     1.1699190    -0.8798440
  H        0.4930910    -1.1591820    -0.8784170
  H        0.4933810    -1.1593220     0.8780960
  H       -2.0610110    -0.7444140    -0.8841720
  H       -2.0608750    -0.7445920     0.8845450
  H       -2.7085880     0.6433700     0.0003330
  H        2.0796550     0.6282150     0.8131880
  H        2.0792360     0.6287680    -0.8134610
units angstrom
no_reorient  #important for SAPT in psi4, default
symmetry c1  #important for SAPT in psi4, default
}

set PROPERTIES_ORIGIN ["COM"]
properties('MP2/aug-cc-pvtz', properties = ['dipole'])
--------------------------------------------------------------------------

    Molecular point group: c1
  Charge       = 0
  Multiplicity = 1
  Basis Set: AUG-CC-PVTZ
    Blend: AUG-CC-PVTZ
  Basis Set: (AUG-CC-PVTZ AUX)
    Blend: AUG-CC-PVTZ-JKFIT

    Orbital Energies [Eh]
    ---------------------

    Doubly Occupied:

       1A    -15.540359     2A    -11.245764     3A    -11.219531
       4A    -11.215923     5A     -1.183122     6A     -1.036362
       7A     -0.896639     8A     -0.802439     9A     -0.674983
      10A     -0.611923    11A     -0.601063    12A     -0.561421
      13A     -0.532617    14A     -0.508929    15A     -0.483267
      16A     -0.464875    17A     -0.388653

  @DF-RHF Final Energy:  -173.35175164964497

   => Energetics <=

    Nuclear Repulsion Energy =            131.1721496113566161
    One-Electron Energy =                -493.1120615430178873
    Two-Electron Energy =                 188.5881602820163323
    Total Energy =                       -173.3517516496449673
  Basis Set: (AUG-CC-PVTZ AUX)
    Blend: AUG-CC-PVTZ-RI
    Molecular point group: c1

    Geometry (in Angstrom), charge = 0, multiplicity = 1:

       Center              X                  Y                   Z               Mass
    ------------   -----------------  -----------------  -----------------  -----------------
         N            1.913300025015     0.024537114641    -0.000294657249    14.003074004430
         C           -0.577904974985     0.521644114641     0.000163342751    12.000000000000
         C            0.566993525015    -0.492722185359    -0.000121057249    12.000000000000
         C           -1.975950674985    -0.092587185359     0.000249142751    12.000000000000
         H           -0.466671974985     1.167985114641     0.880289342751     1.007825032230
         H           -0.466931974985     1.168216114641    -0.879835657249     1.007825032230
         H            0.449074025015    -1.160884885359    -0.878408657249     1.007825032230
         H            0.449364025015    -1.161024885359     0.878104342751     1.007825032230
         H           -2.105027974985    -0.746116885359    -0.884163657249     1.007825032230
         H           -2.104891974985    -0.746294885359     0.884553342751     1.007825032230
         H           -2.752604974985     0.641667114641     0.000341342751     1.007825032230
         H            2.035638025015     0.626512114641     0.813196342751     1.007825032230
         H            2.035219025015     0.627065114641    -0.813452657249     1.007825032230

  Basis Set: AUG-CC-PVTZ
    Blend: AUG-CC-PVTZ
  Basis Set: (AUG-CC-PVTZ AUX)
    Blend: AUG-CC-PVTZ-JKFIT
	 Reference Energy          =    -173.3517516496449673 [Eh]
	 Singles Energy            =      -0.0000000000000000 [Eh]
	 Same-Spin Energy          =      -0.1805893513354594 [Eh]
	 Opposite-Spin Energy      =      -0.6592647127838158 [Eh]
	 Correlation Energy        =      -0.8398540641192752 [Eh]
	 Total Energy              =    -174.1916057137642326 [Eh]

	 ================> DF-SCS-MP2 Energies <==================
	-----------------------------------------------------------
	 SCS Same-Spin Scale       =       0.3333333333333333 [-]
	 SCS Opposite-Spin Scale   =       1.2000000000000000 [-]
	 SCS Same-Spin Energy      =      -0.0601964504451531 [Eh]
	 SCS Opposite-Spin Energy  =      -0.7911176553405790 [Eh]
	 SCS Correlation Energy    =      -0.8513141057857321 [Eh]
	 SCS Total Energy          =    -174.2030657554306856 [Eh]
	-----------------------------------------------------------

  Dipole Moment: [D]
     X:    -0.9757      Y:     1.0885      Z:     0.0006     Total:     1.4618

*** Psi4 exiting successfully. Buy a developer a beer!
