                               Psi4 1.3.2 release

  ==> Input File <==

--------------------------------------------------------------------------
#psi4
#
memory 32 gb

molecule  {
0 1
  N        1.9573170     0.0262400    -0.0003030
  C       -0.5338880     0.5233470     0.0001550
  C        0.5931330    -0.5108460    -0.0001300
  C       -1.9210010    -0.1151900     0.0002360
  H       -0.4226550     1.1696880     0.8802810
  H       -0.4229150     1.1699190    -0.8798440
  H        0.4930910    -1.1591820    -0.8784170
  H        0.4933810    -1.1593220     0.8780960
  H       -2.0610110    -0.7444140    -0.8841720
  H       -2.0608750    -0.7445920     0.8845450
  H       -2.7085880     0.6433700     0.0003330
  H        2.0739448     0.6000228     0.8341305
  H        2.0735150     0.6005896    -0.8344197
units angstrom
no_reorient  #important for SAPT in psi4, default
symmetry c1  #important for SAPT in psi4, default
}

set PROPERTIES_ORIGIN ["COM"]
properties('MP2/aug-cc-pvtz', properties = ['dipole'])
--------------------------------------------------------------------------

    Molecular point group: c1
  Charge       = 0
  Multiplicity = 1
  Basis Set: AUG-CC-PVTZ
    Blend: AUG-CC-PVTZ
  Basis Set: (AUG-CC-PVTZ AUX)
    Blend: AUG-CC-PVTZ-JKFIT

    Orbital Energies [Eh]
    ---------------------

    Doubly Occupied:

       1A    -15.538464     2A    -11.243776     3A    -11.219564
       4A    -11.215315     5A     -1.174745     6A     -1.036379
       7A     -0.895833     8A     -0.803290     9A     -0.678118
      10A     -0.605185    11A     -0.603383    12A     -0.559471
      13A     -0.519898    14A     -0.517334    15A     -0.486070
      16A     -0.470853    17A     -0.384985

  @DF-RHF Final Energy:  -173.35306217418827

   => Energetics <=

    Nuclear Repulsion Energy =            131.0888440494201177
    One-Electron Energy =                -492.9784843089674951
    Two-Electron Energy =                 188.5365780853591104
    Total Energy =                       -173.3530621741882669
  Basis Set: (AUG-CC-PVTZ AUX)
    Blend: AUG-CC-PVTZ-RI
    Molecular point group: c1

    Geometry (in Angstrom), charge = 0, multiplicity = 1:

       Center              X                  Y                   Z               Mass
    ------------   -----------------  -----------------  -----------------  -----------------
         N            1.914905791571     0.034463740095    -0.000293283930    14.003074004430
         C           -0.576299208429     0.531570740095     0.000164716070    12.000000000000
         C            0.550721791571    -0.502622259905    -0.000120283930    12.000000000000
         C           -1.963412208429    -0.106966259905     0.000245716070    12.000000000000
         H           -0.465066208429     1.177911740095     0.880290716070     1.007825032230
         H           -0.465326208429     1.178142740095    -0.879834283930     1.007825032230
         H            0.450679791571    -1.150958259905    -0.878407283930     1.007825032230
         H            0.450969791571    -1.151098259905     0.878105716070     1.007825032230
         H           -2.103422208429    -0.736190259905    -0.884162283930     1.007825032230
         H           -2.103286208429    -0.736368259905     0.884554716070     1.007825032230
         H           -2.750999208429     0.651593740095     0.000342716070     1.007825032230
         H            2.031533591571     0.608246540095     0.834140216070     1.007825032230
         H            2.031103791571     0.608813340095    -0.834409983930     1.007825032230

  Basis Set: AUG-CC-PVTZ
    Blend: AUG-CC-PVTZ
  Basis Set: (AUG-CC-PVTZ AUX)
    Blend: AUG-CC-PVTZ-JKFIT
	 Reference Energy          =    -173.3530621741882669 [Eh]
	 Singles Energy            =      -0.0000000000000000 [Eh]
	 Same-Spin Energy          =      -0.1804519463750290 [Eh]
	 Opposite-Spin Energy      =      -0.6592148496832319 [Eh]
	 Correlation Energy        =      -0.8396667960582609 [Eh]
	 Total Energy              =    -174.1927289702465202 [Eh]

	 ================> DF-SCS-MP2 Energies <==================
	-----------------------------------------------------------
	 SCS Same-Spin Scale       =       0.3333333333333333 [-]
	 SCS Opposite-Spin Scale   =       1.2000000000000000 [-]
	 SCS Same-Spin Energy      =      -0.0601506487916763 [Eh]
	 SCS Opposite-Spin Energy  =      -0.7910578196198782 [Eh]
	 SCS Correlation Energy    =      -0.8512084684115545 [Eh]
	 SCS Total Energy          =    -174.2042706425998233 [Eh]
	-----------------------------------------------------------

  Dipole Moment: [D]
     X:    -1.0179      Y:     1.0140      Z:     0.0006     Total:     1.4367

*** Psi4 exiting successfully. Buy a developer a beer!
