                               Psi4 1.3.2 release

  ==> Input File <==

--------------------------------------------------------------------------
#psi4
#
memory 32 gb

molecule  {
0 1
  N        1.9619520     0.0143149    -0.0003049
  C       -0.5428700     0.5134726     0.0001555
  C        0.5931330    -0.5108460    -0.0001300
  C       -1.9210010    -0.1151900     0.0002360
  H       -0.4226550     1.1696880     0.8802810
  H       -0.4229150     1.1699190    -0.8798440
  H        0.4930910    -1.1591820    -0.8784170
  H        0.4933810    -1.1593220     0.8780960
  H       -2.0610110    -0.7444140    -0.8841720
  H       -2.0608750    -0.7445920     0.8845450
  H       -2.7085880     0.6433700     0.0003330
  H        2.0796550     0.6282150     0.8131880
  H        2.0792360     0.6287680    -0.8134610
units angstrom
no_reorient  #important for SAPT in psi4, default
symmetry c1  #important for SAPT in psi4, default
}

set PROPERTIES_ORIGIN ["COM"]
properties('MP2/aug-cc-pvtz', properties = ['dipole'])
--------------------------------------------------------------------------

    Molecular point group: c1
  Charge       = 0
  Multiplicity = 1
  Basis Set: AUG-CC-PVTZ
    Blend: AUG-CC-PVTZ
  Basis Set: (AUG-CC-PVTZ AUX)
    Blend: AUG-CC-PVTZ-JKFIT

    Orbital Energies [Eh]
    ---------------------

    Doubly Occupied:

       1A    -15.541388     2A    -11.244397     3A    -11.220972
       4A    -11.215527     5A     -1.174593     6A     -1.038994
       7A     -0.897285     8A     -0.802935     9A     -0.671544
      10A     -0.606907    11A     -0.601886    12A     -0.560097
      13A     -0.524262    14A     -0.515350    15A     -0.486319
      16A     -0.467985    17A     -0.389101

  @DF-RHF Final Energy:  -173.35252844834656

   => Energetics <=

    Nuclear Repulsion Energy =            131.0522654853419908
    One-Electron Energy =                -492.8905011344515401
    Two-Electron Energy =                 188.4857072007629881
    Total Energy =                       -173.3525284483465612
  Basis Set: (AUG-CC-PVTZ AUX)
    Blend: AUG-CC-PVTZ-RI
    Molecular point group: c1

    Geometry (in Angstrom), charge = 0, multiplicity = 1:

       Center              X                  Y                   Z               Mass
    ------------   -----------------  -----------------  -----------------  -----------------
         N            1.920071640477     0.026409566293    -0.000295111494    14.003074004430
         C           -0.584750359523     0.525567266293     0.000165288506    12.000000000000
         C            0.551252640477    -0.498751333707    -0.000120211494    12.000000000000
         C           -1.962881359523    -0.103095333707     0.000245788506    12.000000000000
         H           -0.464535359523     1.181782666293     0.880290788506     1.007825032230
         H           -0.464795359523     1.182013666293    -0.879834211494     1.007825032230
         H            0.451210640477    -1.147087333707    -0.878407211494     1.007825032230
         H            0.451500640477    -1.147227333707     0.878105788506     1.007825032230
         H           -2.102891359523    -0.732319333707    -0.884162211494     1.007825032230
         H           -2.102755359523    -0.732497333707     0.884554788506     1.007825032230
         H           -2.750468359523     0.655464666293     0.000342788506     1.007825032230
         H            2.037774640477     0.640309666293     0.813197788506     1.007825032230
         H            2.037355640477     0.640862666293    -0.813451211494     1.007825032230

  Basis Set: AUG-CC-PVTZ
    Blend: AUG-CC-PVTZ
  Basis Set: (AUG-CC-PVTZ AUX)
    Blend: AUG-CC-PVTZ-JKFIT
	 Reference Energy          =    -173.3525284483465612 [Eh]
	 Singles Energy            =      -0.0000000000000000 [Eh]
	 Same-Spin Energy          =      -0.1805893654719255 [Eh]
	 Opposite-Spin Energy      =      -0.6595830787560172 [Eh]
	 Correlation Energy        =      -0.8401724442279427 [Eh]
	 Total Energy              =    -174.1927008925744929 [Eh]

	 ================> DF-SCS-MP2 Energies <==================
	-----------------------------------------------------------
	 SCS Same-Spin Scale       =       0.3333333333333333 [-]
	 SCS Opposite-Spin Scale   =       1.2000000000000000 [-]
	 SCS Same-Spin Energy      =      -0.0601964551573085 [Eh]
	 SCS Opposite-Spin Energy  =      -0.7914996945072206 [Eh]
	 SCS Correlation Energy    =      -0.8516961496645291 [Eh]
	 SCS Total Energy          =    -174.2042245980110806 [Eh]
	-----------------------------------------------------------

  Dipole Moment: [D]
     X:    -1.0622      Y:     1.0687      Z:     0.0006     Total:     1.5068

*** Psi4 exiting successfully. Buy a developer a beer!
