                               Psi4 1.3.2 release

  ==> Input File <==

--------------------------------------------------------------------------
#psi4
#
memory 32 gb

molecule  {
0 1
  N        1.9298638     0.0904960     0.0314618
  C       -0.5338880     0.5233470     0.0001550
  C        0.5931330    -0.5108460    -0.0001300
  C       -1.9210010    -0.1151900     0.0002360
  H       -0.3234539     1.2227702     0.8862032
  H       -0.4229150     1.1699190    -0.8798440
  H        0.4930910    -1.1591820    -0.8784170
  H        0.4933810    -1.1593220     0.8780960
  H       -2.0610110    -0.7444140    -0.8841720
  H       -2.0608750    -0.7445920     0.8845450
  H       -2.7085880     0.6433700     0.0003330
  H        2.0796550     0.6282150     0.8131880
  H        2.0792360     0.6287680    -0.8134610
units angstrom
no_reorient  #important for SAPT in psi4, default
symmetry c1  #important for SAPT in psi4, default
}

set PROPERTIES_ORIGIN ["COM"]
properties('MP2/aug-cc-pvtz', properties = ['dipole'])
--------------------------------------------------------------------------

    Molecular point group: c1
  Charge       = 0
  Multiplicity = 1
  Basis Set: AUG-CC-PVTZ
    Blend: AUG-CC-PVTZ
  Basis Set: (AUG-CC-PVTZ AUX)
    Blend: AUG-CC-PVTZ-JKFIT

    Orbital Energies [Eh]
    ---------------------

    Doubly Occupied:

       1A    -15.528376     2A    -11.244803     3A    -11.223925
       4A    -11.216005     5A     -1.179298     6A     -1.034589
       7A     -0.899967     8A     -0.801102     9A     -0.684549
      10A     -0.606940    11A     -0.602258    12A     -0.563306
      13A     -0.522934    14A     -0.517530    15A     -0.488229
      16A     -0.464194    17A     -0.378268

  @DF-RHF Final Energy:  -173.34895365782126

   => Energetics <=

    Nuclear Repulsion Energy =            131.3392308761451091
    One-Electron Energy =                -493.4638231546132374
    Two-Electron Energy =                 188.7756386206468733
    Total Energy =                       -173.3489536578212551
  Basis Set: (AUG-CC-PVTZ AUX)
    Blend: AUG-CC-PVTZ-RI
    Molecular point group: c1

    Geometry (in Angstrom), charge = 0, multiplicity = 1:

       Center              X                  Y                   Z               Mass
    ------------   -----------------  -----------------  -----------------  -----------------
         N            1.892072788329     0.081620858075     0.023840518775    14.003074004430
         C           -0.571679011671     0.514471858075    -0.007466281225    12.000000000000
         C            0.555341988329    -0.519721141925    -0.007751281225    12.000000000000
         C           -1.958792011671    -0.124065141925    -0.007385281225    12.000000000000
         H           -0.361244911671     1.213895058075     0.878581918775     1.007825032230
         H           -0.460706011671     1.161043858075    -0.887465281225     1.007825032230
         H            0.455299988329    -1.168057141925    -0.886038281225     1.007825032230
         H            0.455589988329    -1.168197141925     0.870474718775     1.007825032230
         H           -2.098802011671    -0.753289141925    -0.891793281225     1.007825032230
         H           -2.098666011671    -0.753467141925     0.876923718775     1.007825032230
         H           -2.746379011671     0.634494858075    -0.007288281225     1.007825032230
         H            2.041863988329     0.619339858075     0.805566718775     1.007825032230
         H            2.041444988329     0.619892858075    -0.821082281225     1.007825032230

  Basis Set: AUG-CC-PVTZ
    Blend: AUG-CC-PVTZ
  Basis Set: (AUG-CC-PVTZ AUX)
    Blend: AUG-CC-PVTZ-JKFIT
	 Reference Energy          =    -173.3489536578212551 [Eh]
	 Singles Energy            =      -0.0000000000000000 [Eh]
	 Same-Spin Energy          =      -0.1802220646369157 [Eh]
	 Opposite-Spin Energy      =      -0.6583698058589843 [Eh]
	 Correlation Energy        =      -0.8385918704959000 [Eh]
	 Total Energy              =    -174.1875455283171448 [Eh]

	 ================> DF-SCS-MP2 Energies <==================
	-----------------------------------------------------------
	 SCS Same-Spin Scale       =       0.3333333333333333 [-]
	 SCS Opposite-Spin Scale   =       1.2000000000000000 [-]
	 SCS Same-Spin Energy      =      -0.0600740215456386 [Eh]
	 SCS Opposite-Spin Energy  =      -0.7900437670307812 [Eh]
	 SCS Correlation Energy    =      -0.8501177885764197 [Eh]
	 SCS Total Energy          =    -174.1990714463976815 [Eh]
	-----------------------------------------------------------

  Dipole Moment: [D]
     X:    -0.9316      Y:     0.8923      Z:    -0.0861     Total:     1.2928

*** Psi4 exiting successfully. Buy a developer a beer!
