                               Psi4 1.3.2 release

  ==> Input File <==

--------------------------------------------------------------------------
#psi4
#
memory 32 gb

molecule  {
0 1
  N        1.9573170     0.0262400    -0.0003030
  C       -0.5338880     0.5233470     0.0001550
  C        0.6025479    -0.5002477     0.0224917
  C       -1.9210010    -0.1151900     0.0002360
  H       -0.4070912     1.1597595     0.8853968
  H       -0.4229150     1.1699190    -0.8798440
  H        0.4930910    -1.1591820    -0.8784170
  H        0.4933810    -1.1593220     0.8780960
  H       -2.0610110    -0.7444140    -0.8841720
  H       -2.0608750    -0.7445920     0.8845450
  H       -2.7085880     0.6433700     0.0003330
  H        2.0796550     0.6282150     0.8131880
  H        2.0792360     0.6287680    -0.8134610
units angstrom
no_reorient  #important for SAPT in psi4, default
symmetry c1  #important for SAPT in psi4, default
}

set PROPERTIES_ORIGIN ["COM"]
properties('MP2/aug-cc-pvtz', properties = ['dipole'])
--------------------------------------------------------------------------

    Molecular point group: c1
  Charge       = 0
  Multiplicity = 1
  Basis Set: AUG-CC-PVTZ
    Blend: AUG-CC-PVTZ
  Basis Set: (AUG-CC-PVTZ AUX)
    Blend: AUG-CC-PVTZ-JKFIT

    Orbital Energies [Eh]
    ---------------------

    Doubly Occupied:

       1A    -15.539505     2A    -11.244673     3A    -11.219803
       4A    -11.215800     5A     -1.179230     6A     -1.036701
       7A     -0.896597     8A     -0.803463     9A     -0.674393
      10A     -0.607975    11A     -0.602898    12A     -0.561412
      13A     -0.524193    14A     -0.514025    15A     -0.486166
      16A     -0.468068    17A     -0.387045

  @DF-RHF Final Energy:  -173.35252479686073

   => Energetics <=

    Nuclear Repulsion Energy =            131.1706474968917746
    One-Electron Energy =                -493.1224505056399607
    Two-Electron Energy =                 188.5992782118874516
    Total Energy =                       -173.3525247968607346
  Basis Set: (AUG-CC-PVTZ AUX)
    Blend: AUG-CC-PVTZ-RI
    Molecular point group: c1

    Geometry (in Angstrom), charge = 0, multiplicity = 1:

       Center              X                  Y                   Z               Mass
    ------------   -----------------  -----------------  -----------------  -----------------
         N            1.912532730242     0.031518508934    -0.004976137686    14.003074004430
         C           -0.578672269758     0.528625508934    -0.004518137686    12.000000000000
         C            0.557763630242    -0.494969191066     0.017818562314    12.000000000000
         C           -1.965785269758    -0.109911491066    -0.004437137686    12.000000000000
         H           -0.451875469758     1.165038008934     0.880723662314     1.007825032230
         H           -0.467699269758     1.175197508934    -0.884517137686     1.007825032230
         H            0.448306730242    -1.153903491066    -0.883090137686     1.007825032230
         H            0.448596730242    -1.154043491066     0.873422862314     1.007825032230
         H           -2.105795269758    -0.739135491066    -0.888845137686     1.007825032230
         H           -2.105659269758    -0.739313491066     0.879871862314     1.007825032230
         H           -2.753372269758     0.648648508934    -0.004340137686     1.007825032230
         H            2.034870730242     0.633493508934     0.808514862314     1.007825032230
         H            2.034451730242     0.634046508934    -0.818134137686     1.007825032230

  Basis Set: AUG-CC-PVTZ
    Blend: AUG-CC-PVTZ
  Basis Set: (AUG-CC-PVTZ AUX)
    Blend: AUG-CC-PVTZ-JKFIT
	 Reference Energy          =    -173.3525247968607346 [Eh]
	 Singles Energy            =      -0.0000000000000000 [Eh]
	 Same-Spin Energy          =      -0.1805316705208314 [Eh]
	 Opposite-Spin Energy      =      -0.6592689629552875 [Eh]
	 Correlation Energy        =      -0.8398006334761188 [Eh]
	 Total Energy              =    -174.1923254303368651 [Eh]

	 ================> DF-SCS-MP2 Energies <==================
	-----------------------------------------------------------
	 SCS Same-Spin Scale       =       0.3333333333333333 [-]
	 SCS Opposite-Spin Scale   =       1.2000000000000000 [-]
	 SCS Same-Spin Energy      =      -0.0601772235069438 [Eh]
	 SCS Opposite-Spin Energy  =      -0.7911227555463449 [Eh]
	 SCS Correlation Energy    =      -0.8512999790532887 [Eh]
	 SCS Total Energy          =    -174.2038247759140290 [Eh]
	-----------------------------------------------------------

  Dipole Moment: [D]
     X:    -1.0099      Y:     1.0646      Z:     0.0194     Total:     1.4675

*** Psi4 exiting successfully. Buy a developer a beer!
