                               Psi4 1.3.2 release

  ==> Input File <==

--------------------------------------------------------------------------
#psi4
#
memory 32 gb

molecule  {
0 1
  N        1.9573170     0.0262400    -0.0003030
  C       -0.5338880     0.5233470     0.0001550
  C        0.5628405    -0.5407383    -0.0679670
  C       -1.9210010    -0.1151900     0.0002360
  H       -0.4695307     1.1982805     0.8633318
  H       -0.4229150     1.1699190    -0.8798440
  H        0.4930910    -1.1591820    -0.8784170
  H        0.4933810    -1.1593220     0.8780960
  H       -2.0610110    -0.7444140    -0.8841720
  H       -2.0608750    -0.7445920     0.8845450
  H       -2.7085880     0.6433700     0.0003330
  H        2.0796550     0.6282150     0.8131880
  H        2.0792360     0.6287680    -0.8134610
units angstrom
no_reorient  #important for SAPT in psi4, default
symmetry c1  #important for SAPT in psi4, default
}

set PROPERTIES_ORIGIN ["COM"]
properties('MP2/aug-cc-pvtz', properties = ['dipole'])
--------------------------------------------------------------------------

    Molecular point group: c1
  Charge       = 0
  Multiplicity = 1
  Basis Set: AUG-CC-PVTZ
    Blend: AUG-CC-PVTZ
  Basis Set: (AUG-CC-PVTZ AUX)
    Blend: AUG-CC-PVTZ-JKFIT

    Orbital Energies [Eh]
    ---------------------

    Doubly Occupied:

       1A    -15.537256     2A    -11.245231     3A    -11.221146
       4A    -11.214877     5A     -1.163694     6A     -1.037863
       7A     -0.899670     8A     -0.808856     9A     -0.670801
      10A     -0.606657    11A     -0.597820    12A     -0.562555
      13A     -0.524126    14A     -0.513021    15A     -0.490279
      16A     -0.468903    17A     -0.384644

  @DF-RHF Final Energy:  -173.34501664499794

   => Energetics <=

    Nuclear Repulsion Energy =            130.7746611562238286
    One-Electron Energy =                -492.3445574374397324
    Two-Electron Energy =                 188.2248796362179633
    Total Energy =                       -173.3450166449979406
  Basis Set: (AUG-CC-PVTZ AUX)
    Blend: AUG-CC-PVTZ-RI
    Molecular point group: c1

    Geometry (in Angstrom), charge = 0, multiplicity = 1:

       Center              X                  Y                   Z               Mass
    ------------   -----------------  -----------------  -----------------  -----------------
         N            1.921664014109     0.039086450181     0.013775791225    14.003074004430
         C           -0.569540985891     0.536193450181     0.014233791225    12.000000000000
         C            0.527187514109    -0.527891849819    -0.053888208775    12.000000000000
         C           -1.956653985891    -0.102343549819     0.014314791225    12.000000000000
         H           -0.505183685891     1.211126950181     0.877410591225     1.007825032230
         H           -0.458567985891     1.182765450181    -0.865765208775     1.007825032230
         H            0.457438014109    -1.146335549819    -0.864338208775     1.007825032230
         H            0.457728014109    -1.146475549819     0.892174791225     1.007825032230
         H           -2.096663985891    -0.731567549819    -0.870093208775     1.007825032230
         H           -2.096527985891    -0.731745549819     0.898623791225     1.007825032230
         H           -2.744240985891     0.656216450181     0.014411791225     1.007825032230
         H            2.044002014109     0.641061450181     0.827266791225     1.007825032230
         H            2.043583014109     0.641614450181    -0.799382208775     1.007825032230

  Basis Set: AUG-CC-PVTZ
    Blend: AUG-CC-PVTZ
  Basis Set: (AUG-CC-PVTZ AUX)
    Blend: AUG-CC-PVTZ-JKFIT
	 Reference Energy          =    -173.3450166449979406 [Eh]
	 Singles Energy            =      -0.0000000000000000 [Eh]
	 Same-Spin Energy          =      -0.1803566401852368 [Eh]
	 Opposite-Spin Energy      =      -0.6596474827976416 [Eh]
	 Correlation Energy        =      -0.8400041229828784 [Eh]
	 Total Energy              =    -174.1850207679808307 [Eh]

	 ================> DF-SCS-MP2 Energies <==================
	-----------------------------------------------------------
	 SCS Same-Spin Scale       =       0.3333333333333333 [-]
	 SCS Opposite-Spin Scale   =       1.2000000000000000 [-]
	 SCS Same-Spin Energy      =      -0.0601188800617456 [Eh]
	 SCS Opposite-Spin Energy  =      -0.7915769793571700 [Eh]
	 SCS Correlation Energy    =      -0.8516958594189156 [Eh]
	 SCS Total Energy          =    -174.1967125044168654 [Eh]
	-----------------------------------------------------------

  Dipole Moment: [D]
     X:    -1.1354      Y:     1.0333      Z:    -0.0484     Total:     1.5360

*** Psi4 exiting successfully. Buy a developer a beer!
