                               Psi4 1.3.2 release

  ==> Input File <==

--------------------------------------------------------------------------
#psi4
#
memory 32 gb

molecule  {
0 1
  N        1.9573170     0.0262400    -0.0003030
  C       -0.5338880     0.5233470     0.0001550
  C        0.5978835    -0.5055860     0.0111813
  C       -1.9210010    -0.1151900     0.0002360
  H       -0.4148686     1.1647482     0.8828725
  H       -0.4229150     1.1699190    -0.8798440
  H        0.4930910    -1.1591820    -0.8784170
  H        0.4933810    -1.1593220     0.8780960
  H       -2.0610110    -0.7444140    -0.8841720
  H       -2.0608750    -0.7445920     0.8845450
  H       -2.7085880     0.6433700     0.0003330
  H        2.0796550     0.6282150     0.8131880
  H        2.0792360     0.6287680    -0.8134610
units angstrom
no_reorient  #important for SAPT in psi4, default
symmetry c1  #important for SAPT in psi4, default
}

set PROPERTIES_ORIGIN ["COM"]
properties('MP2/aug-cc-pvtz', properties = ['dipole'])
--------------------------------------------------------------------------

    Molecular point group: c1
  Charge       = 0
  Multiplicity = 1
  Basis Set: AUG-CC-PVTZ
    Blend: AUG-CC-PVTZ
  Basis Set: (AUG-CC-PVTZ AUX)
    Blend: AUG-CC-PVTZ-JKFIT

    Orbital Energies [Eh]
    ---------------------

    Doubly Occupied:

       1A    -15.539154     2A    -11.244500     3A    -11.219843
       4A    -11.215655     5A     -1.177199     6A     -1.036765
       7A     -0.896755     8A     -0.803862     9A     -0.673992
      10A     -0.606750    11A     -0.603102    12A     -0.560542
      13A     -0.522999    14A     -0.515257    15A     -0.486172
      16A     -0.469735    17A     -0.386955

  @DF-RHF Final Energy:  -173.35325163108644

   => Energetics <=

    Nuclear Repulsion Energy =            131.1213473884156713
    One-Electron Energy =                -493.0307249791699746
    Two-Electron Energy =                 188.5561259596678383
    Total Energy =                       -173.3532516310864366
  Basis Set: (AUG-CC-PVTZ AUX)
    Blend: AUG-CC-PVTZ-RI
    Molecular point group: c1

    Geometry (in Angstrom), charge = 0, multiplicity = 1:

       Center              X                  Y                   Z               Mass
    ------------   -----------------  -----------------  -----------------  -----------------
         N            1.913612927947     0.032517804116    -0.002635513644    14.003074004430
         C           -0.577592072053     0.529624804116    -0.002177513644    12.000000000000
         C            0.554179427947    -0.499308195884     0.008848786356    12.000000000000
         C           -1.964705072053    -0.108912195884    -0.002096513644    12.000000000000
         H           -0.458572672053     1.171026004116     0.880539986356     1.007825032230
         H           -0.466619072053     1.176196804116    -0.882176513644     1.007825032230
         H            0.449386927947    -1.152904195884    -0.880749513644     1.007825032230
         H            0.449676927947    -1.153044195884     0.875763486356     1.007825032230
         H           -2.104715072053    -0.738136195884    -0.886504513644     1.007825032230
         H           -2.104579072053    -0.738314195884     0.882212486356     1.007825032230
         H           -2.752292072053     0.649647804116    -0.001999513644     1.007825032230
         H            2.035950927947     0.634492804116     0.810855486356     1.007825032230
         H            2.035531927947     0.635045804116    -0.815793513644     1.007825032230

  Basis Set: AUG-CC-PVTZ
    Blend: AUG-CC-PVTZ
  Basis Set: (AUG-CC-PVTZ AUX)
    Blend: AUG-CC-PVTZ-JKFIT
	 Reference Energy          =    -173.3532516310864366 [Eh]
	 Singles Energy            =      -0.0000000000000000 [Eh]
	 Same-Spin Energy          =      -0.1804734670860352 [Eh]
	 Opposite-Spin Energy      =      -0.6592231713508457 [Eh]
	 Correlation Energy        =      -0.8396966384368809 [Eh]
	 Total Energy              =    -174.1929482695233276 [Eh]

	 ================> DF-SCS-MP2 Energies <==================
	-----------------------------------------------------------
	 SCS Same-Spin Scale       =       0.3333333333333333 [-]
	 SCS Opposite-Spin Scale   =       1.2000000000000000 [-]
	 SCS Same-Spin Energy      =      -0.0601578223620117 [Eh]
	 SCS Opposite-Spin Energy  =      -0.7910678056210149 [Eh]
	 SCS Correlation Energy    =      -0.8512256279830266 [Eh]
	 SCS Total Energy          =    -174.2044772590694492 [Eh]
	-----------------------------------------------------------

  Dipole Moment: [D]
     X:    -1.0254      Y:     1.0583      Z:     0.0098     Total:     1.4736

*** Psi4 exiting successfully. Buy a developer a beer!
