                               Psi4 1.3.2 release

  ==> Input File <==

--------------------------------------------------------------------------
#psi4
#
memory 32 gb

molecule  {
0 1
  N        1.9573170     0.0262400    -0.0003030
  C       -0.5338880     0.5233470     0.0001550
  C        0.6457139    -0.4504450    -0.0001280
  C       -1.9525185    -0.0417190     0.0002503
  H       -0.4226550     1.1696880     0.8802810
  H       -0.4229150     1.1699190    -0.8798440
  H        0.4930910    -1.1591820    -0.8784170
  H        0.4933810    -1.1593220     0.8780960
  H       -2.0610110    -0.7444140    -0.8841720
  H       -2.0608750    -0.7445920     0.8845450
  H       -2.7085880     0.6433700     0.0003330
  H        2.0796550     0.6282150     0.8131880
  H        2.0792360     0.6287680    -0.8134610
units angstrom
no_reorient  #important for SAPT in psi4, default
symmetry c1  #important for SAPT in psi4, default
}

set PROPERTIES_ORIGIN ["COM"]
properties('MP2/aug-cc-pvtz', properties = ['dipole'])
--------------------------------------------------------------------------

    Molecular point group: c1
  Charge       = 0
  Multiplicity = 1
  Basis Set: AUG-CC-PVTZ
    Blend: AUG-CC-PVTZ
  Basis Set: (AUG-CC-PVTZ AUX)
    Blend: AUG-CC-PVTZ-JKFIT

    Orbital Energies [Eh]
    ---------------------

    Doubly Occupied:

       1A    -15.543456     2A    -11.249539     3A    -11.219483
       4A    -11.217657     5A     -1.200607     6A     -1.036021
       7A     -0.896805     8A     -0.799541     9A     -0.679503
      10A     -0.624188    11A     -0.597413    12A     -0.564259
      13A     -0.554382    14A     -0.493890    15A     -0.477016
      16A     -0.452067    17A     -0.390892

  @DF-RHF Final Energy:  -173.33782057359537

   => Energetics <=

    Nuclear Repulsion Energy =            131.4049141419574482
    One-Electron Energy =                -493.4920316225824308
    Two-Electron Energy =                 188.7492969070296454
    Total Energy =                       -173.3378205735953657
  Basis Set: (AUG-CC-PVTZ AUX)
    Blend: AUG-CC-PVTZ-RI
    Molecular point group: c1

    Geometry (in Angstrom), charge = 0, multiplicity = 1:

       Center              X                  Y                   Z               Mass
    ------------   -----------------  -----------------  -----------------  -----------------
         N            1.910432018175     0.006307701912    -0.000296871440    14.003074004430
         C           -0.580772981825     0.503414701912     0.000161128560    12.000000000000
         C            0.598828918175    -0.470377298088    -0.000121871440    12.000000000000
         C           -1.999403481825    -0.061651298088     0.000256428560    12.000000000000
         H           -0.469539981825     1.149755701912     0.880287128560     1.007825032230
         H           -0.469799981825     1.149986701912    -0.879837871440     1.007825032230
         H            0.446206018175    -1.179114298088    -0.878410871440     1.007825032230
         H            0.446496018175    -1.179254298088     0.878102128560     1.007825032230
         H           -2.107895981825    -0.764346298088    -0.884165871440     1.007825032230
         H           -2.107759981825    -0.764524298088     0.884551128560     1.007825032230
         H           -2.755472981825     0.623437701912     0.000339128560     1.007825032230
         H            2.032770018175     0.608282701912     0.813194128560     1.007825032230
         H            2.032351018175     0.608835701912    -0.813454871440     1.007825032230

  Basis Set: AUG-CC-PVTZ
    Blend: AUG-CC-PVTZ
  Basis Set: (AUG-CC-PVTZ AUX)
    Blend: AUG-CC-PVTZ-JKFIT
	 Reference Energy          =    -173.3378205735953657 [Eh]
	 Singles Energy            =      -0.0000000000000000 [Eh]
	 Same-Spin Energy          =      -0.1811568039214608 [Eh]
	 Opposite-Spin Energy      =      -0.6599329711520371 [Eh]
	 Correlation Energy        =      -0.8410897750734979 [Eh]
	 Total Energy              =    -174.1789103486688646 [Eh]

	 ================> DF-SCS-MP2 Energies <==================
	-----------------------------------------------------------
	 SCS Same-Spin Scale       =       0.3333333333333333 [-]
	 SCS Opposite-Spin Scale   =       1.2000000000000000 [-]
	 SCS Same-Spin Energy      =      -0.0603856013071536 [Eh]
	 SCS Opposite-Spin Energy  =      -0.7919195653824445 [Eh]
	 SCS Correlation Energy    =      -0.8523051666895981 [Eh]
	 SCS Total Energy          =    -174.1901257402849694 [Eh]
	-----------------------------------------------------------

  Dipole Moment: [D]
     X:    -0.8317      Y:     1.1660      Z:     0.0006     Total:     1.4322

*** Psi4 exiting successfully. Buy a developer a beer!
