                               Psi4 1.3.2 release

  ==> Input File <==

--------------------------------------------------------------------------
#psi4
#
memory 32 gb

molecule  {
0 1
  N        1.9615309     0.0153827    -0.0055994
  C       -0.5338880     0.5233470     0.0001550
  C        0.5931330    -0.5108460    -0.0001300
  C       -1.9210010    -0.1151900     0.0002360
  H       -0.4389251     1.1603890     0.8790588
  H       -0.4229150     1.1699190    -0.8798440
  H        0.4930910    -1.1591820    -0.8784170
  H        0.4933810    -1.1593220     0.8780960
  H       -2.0610110    -0.7444140    -0.8841720
  H       -2.0608750    -0.7445920     0.8845450
  H       -2.7085880     0.6433700     0.0003330
  H        2.0796550     0.6282150     0.8131880
  H        2.0792360     0.6287680    -0.8134610
units angstrom
no_reorient  #important for SAPT in psi4, default
symmetry c1  #important for SAPT in psi4, default
}

set PROPERTIES_ORIGIN ["COM"]
properties('MP2/aug-cc-pvtz', properties = ['dipole'])
--------------------------------------------------------------------------

    Molecular point group: c1
  Charge       = 0
  Multiplicity = 1
  Basis Set: AUG-CC-PVTZ
    Blend: AUG-CC-PVTZ
  Basis Set: (AUG-CC-PVTZ AUX)
    Blend: AUG-CC-PVTZ-JKFIT

    Orbital Energies [Eh]
    ---------------------

    Doubly Occupied:

       1A    -15.540690     2A    -11.244382     3A    -11.219291
       4A    -11.215467     5A     -1.174542     6A     -1.037326
       7A     -0.896499     8A     -0.804847     9A     -0.672117
      10A     -0.605937    11A     -0.602877    12A     -0.559272
      13A     -0.522353    14A     -0.515544    15A     -0.485869
      16A     -0.471667    17A     -0.388290

  @DF-RHF Final Energy:  -173.35296522602422

   => Energetics <=

    Nuclear Repulsion Energy =            131.0294584552913761
    One-Electron Energy =                -492.8509063861209825
    Two-Electron Energy =                 188.4684827048053819
    Total Energy =                       -173.3529652260242244
  Basis Set: (AUG-CC-PVTZ AUX)
    Blend: AUG-CC-PVTZ-RI
    Molecular point group: c1

    Geometry (in Angstrom), charge = 0, multiplicity = 1:

       Center              X                  Y                   Z               Mass
    ------------   -----------------  -----------------  -----------------  -----------------
         N            1.918203362089     0.025377041800    -0.004313624123    14.003074004430
         C           -0.577215537911     0.533341341800     0.001440775877    12.000000000000
         C            0.549805462089    -0.500851658200     0.001155775877    12.000000000000
         C           -1.964328537911    -0.105195658200     0.001521775877    12.000000000000
         H           -0.482252637911     1.170383341800     0.880344575877     1.007825032230
         H           -0.466242537911     1.179913341800    -0.878558224123     1.007825032230
         H            0.449763462089    -1.149187658200    -0.877131224123     1.007825032230
         H            0.450053462089    -1.149327658200     0.879381775877     1.007825032230
         H           -2.104338537911    -0.734419658200    -0.882886224123     1.007825032230
         H           -2.104202537911    -0.734597658200     0.885830775877     1.007825032230
         H           -2.751915537911     0.653364341800     0.001618775877     1.007825032230
         H            2.036327462089     0.638209341800     0.814473775877     1.007825032230
         H            2.035908462089     0.638762341800    -0.812175224123     1.007825032230

  Basis Set: AUG-CC-PVTZ
    Blend: AUG-CC-PVTZ
  Basis Set: (AUG-CC-PVTZ AUX)
    Blend: AUG-CC-PVTZ-JKFIT
	 Reference Energy          =    -173.3529652260242244 [Eh]
	 Singles Energy            =      -0.0000000000000000 [Eh]
	 Same-Spin Energy          =      -0.1804924225680291 [Eh]
	 Opposite-Spin Energy      =      -0.6594269644027781 [Eh]
	 Correlation Energy        =      -0.8399193869708073 [Eh]
	 Total Energy              =    -174.1928846129950443 [Eh]

	 ================> DF-SCS-MP2 Energies <==================
	-----------------------------------------------------------
	 SCS Same-Spin Scale       =       0.3333333333333333 [-]
	 SCS Opposite-Spin Scale   =       1.2000000000000000 [-]
	 SCS Same-Spin Energy      =      -0.0601641408560097 [Eh]
	 SCS Opposite-Spin Energy  =      -0.7913123572833337 [Eh]
	 SCS Correlation Energy    =      -0.8514764981393435 [Eh]
	 SCS Total Energy          =    -174.2044417241635585 [Eh]
	-----------------------------------------------------------

  Dipole Moment: [D]
     X:    -1.0583      Y:     1.0761      Z:     0.0132     Total:     1.5093

*** Psi4 exiting successfully. Buy a developer a beer!
