                               Psi4 1.3.2 release

  ==> Input File <==

--------------------------------------------------------------------------
#psi4
#
memory 32 gb

molecule  {
0 1
  N        1.9573170     0.0262400    -0.0003030
  C       -0.5338880     0.5233470     0.0001550
  C        0.5931330    -0.5108460    -0.0001300
  C       -1.9210010    -0.1151900     0.0002360
  H       -0.4226550     1.1696880     0.8802810
  H       -0.4229150     1.1699190    -0.8798440
  H        0.4930910    -1.1591820    -0.8784170
  H        0.4933810    -1.1593220     0.8780960
  H       -2.0610110    -0.7444140    -0.8841720
  H       -2.0608750    -0.7445920     0.8845450
  H       -2.7085880     0.6433700     0.0003330
  H        2.0556522     0.5101073     0.6535808
  H        2.0792360     0.6287680    -0.8134610
units angstrom
no_reorient  #important for SAPT in psi4, default
symmetry c1  #important for SAPT in psi4, default
}

set PROPERTIES_ORIGIN ["COM"]
properties('MP2/aug-cc-pvtz', properties = ['dipole'])
--------------------------------------------------------------------------

    Molecular point group: c1
  Charge       = 0
  Multiplicity = 1
  Basis Set: AUG-CC-PVTZ
    Blend: AUG-CC-PVTZ
  Basis Set: (AUG-CC-PVTZ AUX)
    Blend: AUG-CC-PVTZ-JKFIT

    Orbital Energies [Eh]
    ---------------------

    Doubly Occupied:

       1A    -15.513937     2A    -11.244109     3A    -11.220465
       4A    -11.215924     5A     -1.211080     6A     -1.043317
       7A     -0.907701     8A     -0.808554     9A     -0.698952
      10A     -0.618750    11A     -0.605448    12A     -0.561495
      13A     -0.525775    14A     -0.519920    15A     -0.487001
      16A     -0.472009    17A     -0.389775

  @DF-RHF Final Energy:  -173.31010971703961

   => Energetics <=

    Nuclear Repulsion Energy =            132.1817952629909882
    One-Electron Energy =                -494.8953884566761872
    Two-Electron Energy =                 189.4034834766455901
    Total Energy =                       -173.3101097170396088
  Basis Set: (AUG-CC-PVTZ AUX)
    Blend: AUG-CC-PVTZ-RI
    Molecular point group: c1

    Geometry (in Angstrom), charge = 0, multiplicity = 1:

       Center              X                  Y                   Z               Mass
    ------------   -----------------  -----------------  -----------------  -----------------
         N            1.915120269692     0.035517007559     0.002429422641    14.003074004430
         C           -0.576084730308     0.532624007559     0.002887422641    12.000000000000
         C            0.550936269692    -0.501568992441     0.002602422641    12.000000000000
         C           -1.963197730308    -0.105912992441     0.002968422641    12.000000000000
         H           -0.464851730308     1.178965007559     0.883013422641     1.007825032230
         H           -0.465111730308     1.179196007559    -0.877111577359     1.007825032230
         H            0.450894269692    -1.149904992441    -0.875684577359     1.007825032230
         H            0.451184269692    -1.150044992441     0.880828422641     1.007825032230
         H           -2.103207730308    -0.735136992441    -0.881439577359     1.007825032230
         H           -2.103071730308    -0.735314992441     0.887277422641     1.007825032230
         H           -2.750784730308     0.652647007559     0.003065422641     1.007825032230
         H            2.013455469692     0.519384307559     0.656313222641     1.007825032230
         H            2.037039269692     0.638045007559    -0.810728577359     1.007825032230

  Basis Set: AUG-CC-PVTZ
    Blend: AUG-CC-PVTZ
  Basis Set: (AUG-CC-PVTZ AUX)
    Blend: AUG-CC-PVTZ-JKFIT
	 Reference Energy          =    -173.3101097170396088 [Eh]
	 Singles Energy            =      -0.0000000000000000 [Eh]
	 Same-Spin Energy          =      -0.1796206710899773 [Eh]
	 Opposite-Spin Energy      =      -0.6566747109653879 [Eh]
	 Correlation Energy        =      -0.8362953820553651 [Eh]
	 Total Energy              =    -174.1464050990949772 [Eh]

	 ================> DF-SCS-MP2 Energies <==================
	-----------------------------------------------------------
	 SCS Same-Spin Scale       =       0.3333333333333333 [-]
	 SCS Opposite-Spin Scale   =       1.2000000000000000 [-]
	 SCS Same-Spin Energy      =      -0.0598735570299924 [Eh]
	 SCS Opposite-Spin Energy  =      -0.7880096531584654 [Eh]
	 SCS Correlation Energy    =      -0.8478832101884578 [Eh]
	 SCS Total Energy          =    -174.1579929272280651 [Eh]
	-----------------------------------------------------------

  Dipole Moment: [D]
     X:    -1.0614      Y:     1.0594      Z:    -0.0466     Total:     1.5004

*** Psi4 exiting successfully. Buy a developer a beer!
