                               Psi4 1.3.2 release

  ==> Input File <==

--------------------------------------------------------------------------
#psi4
#
memory 32 gb

molecule  {
0 1
  N        1.9573170     0.0262400    -0.0003030
  C       -0.5338880     0.5233470     0.0001550
  C        0.5931330    -0.5108460    -0.0001300
  C       -1.9210010    -0.1151900     0.0002360
  H       -0.4226550     1.1696880     0.8802810
  H       -0.4229150     1.1699190    -0.8798440
  H        0.4930910    -1.1591820    -0.8784170
  H        0.4933810    -1.1593220     0.8780960
  H       -2.0610110    -0.7444140    -0.8841720
  H       -2.0608750    -0.7445920     0.8845450
  H       -2.7085880     0.6433700     0.0003330
  H        2.0710360     0.5856624     0.8442221
  H        2.0706009     0.5862358    -0.8445196
units angstrom
no_reorient  #important for SAPT in psi4, default
symmetry c1  #important for SAPT in psi4, default
}

set PROPERTIES_ORIGIN ["COM"]
properties('MP2/aug-cc-pvtz', properties = ['dipole'])
--------------------------------------------------------------------------

    Molecular point group: c1
  Charge       = 0
  Multiplicity = 1
  Basis Set: AUG-CC-PVTZ
    Blend: AUG-CC-PVTZ
  Basis Set: (AUG-CC-PVTZ AUX)
    Blend: AUG-CC-PVTZ-JKFIT

    Orbital Energies [Eh]
    ---------------------

    Doubly Occupied:

       1A    -15.538270     2A    -11.243470     3A    -11.219387
       4A    -11.215212     5A     -1.174567     6A     -1.036151
       7A     -0.895284     8A     -0.802771     9A     -0.680461
      10A     -0.606106    11A     -0.602218    12A     -0.559267
      13A     -0.518857    14A     -0.517734    15A     -0.485897
      16A     -0.470805    17A     -0.384065

  @DF-RHF Final Energy:  -173.35249560511437

   => Energetics <=

    Nuclear Repulsion Energy =            131.0980328731884299
    One-Electron Energy =                -493.0000145522697039
    Two-Electron Energy =                 188.5494860739668752
    Total Energy =                       -173.3524956051143704
  Basis Set: (AUG-CC-PVTZ AUX)
    Blend: AUG-CC-PVTZ-RI
    Molecular point group: c1

    Geometry (in Angstrom), charge = 0, multiplicity = 1:

       Center              X                  Y                   Z               Mass
    ------------   -----------------  -----------------  -----------------  -----------------
         N            1.915005133314     0.034953619481    -0.000293142328    14.003074004430
         C           -0.576199866686     0.532060619481     0.000164857672    12.000000000000
         C            0.550821133314    -0.502132380519    -0.000120142328    12.000000000000
         C           -1.963312866686    -0.106476380519     0.000245857672    12.000000000000
         H           -0.464966866686     1.178401619481     0.880290857672     1.007825032230
         H           -0.465226866686     1.178632619481    -0.879834142328     1.007825032230
         H            0.450779133314    -1.150468380519    -0.878407142328     1.007825032230
         H            0.451069133314    -1.150608380519     0.878105857672     1.007825032230
         H           -2.103322866686    -0.735700380519    -0.884162142328     1.007825032230
         H           -2.103186866686    -0.735878380519     0.884554857672     1.007825032230
         H           -2.750899866686     0.652083619481     0.000342857672     1.007825032230
         H            2.028724133314     0.594376019481     0.844231957672     1.007825032230
         H            2.028289033314     0.594949419481    -0.844509742328     1.007825032230

  Basis Set: AUG-CC-PVTZ
    Blend: AUG-CC-PVTZ
  Basis Set: (AUG-CC-PVTZ AUX)
    Blend: AUG-CC-PVTZ-JKFIT
	 Reference Energy          =    -173.3524956051143704 [Eh]
	 Singles Energy            =      -0.0000000000000000 [Eh]
	 Same-Spin Energy          =      -0.1804808215481778 [Eh]
	 Opposite-Spin Energy      =      -0.6592441284018757 [Eh]
	 Correlation Energy        =      -0.8397249499500535 [Eh]
	 Total Energy              =    -174.1922205550644378 [Eh]

	 ================> DF-SCS-MP2 Energies <==================
	-----------------------------------------------------------
	 SCS Same-Spin Scale       =       0.3333333333333333 [-]
	 SCS Opposite-Spin Scale   =       1.2000000000000000 [-]
	 SCS Same-Spin Energy      =      -0.0601602738493926 [Eh]
	 SCS Opposite-Spin Energy  =      -0.7910929540822509 [Eh]
	 SCS Correlation Energy    =      -0.8512532279316435 [Eh]
	 SCS Total Energy          =    -174.2037488330460064 [Eh]
	-----------------------------------------------------------

  Dipole Moment: [D]
     X:    -1.0063      Y:     0.9939      Z:     0.0006     Total:     1.4143

*** Psi4 exiting successfully. Buy a developer a beer!
