                               Psi4 1.3.2 release

  ==> Input File <==

--------------------------------------------------------------------------
#psi4
#
memory 32 gb

molecule  {
0 1
  N        1.9573170     0.0262400    -0.0003030
  C       -0.5338880     0.5233470     0.0001550
  C        0.6116166    -0.4893376     0.0451066
  C       -1.9210010    -0.1151900     0.0002360
  H       -0.3915660     1.1496371     0.8902429
  H       -0.4229150     1.1699190    -0.8798440
  H        0.4930910    -1.1591820    -0.8784170
  H        0.4933810    -1.1593220     0.8780960
  H       -2.0610110    -0.7444140    -0.8841720
  H       -2.0608750    -0.7445920     0.8845450
  H       -2.7085880     0.6433700     0.0003330
  H        2.0796550     0.6282150     0.8131880
  H        2.0792360     0.6287680    -0.8134610
units angstrom
no_reorient  #important for SAPT in psi4, default
symmetry c1  #important for SAPT in psi4, default
}

set PROPERTIES_ORIGIN ["COM"]
properties('MP2/aug-cc-pvtz', properties = ['dipole'])
--------------------------------------------------------------------------

    Molecular point group: c1
  Charge       = 0
  Multiplicity = 1
  Basis Set: AUG-CC-PVTZ
    Blend: AUG-CC-PVTZ
  Basis Set: (AUG-CC-PVTZ AUX)
    Blend: AUG-CC-PVTZ-JKFIT

    Orbital Energies [Eh]
    ---------------------

    Doubly Occupied:

       1A    -15.540276     2A    -11.245240     3A    -11.219832
       4A    -11.216114     5A     -1.183356     6A     -1.036648
       7A     -0.896453     8A     -0.802887     9A     -0.675160
      10A     -0.610825    11A     -0.602285    12A     -0.563662
      13A     -0.526663    14A     -0.511566    15A     -0.486668
      16A     -0.463580    17A     -0.386948

  @DF-RHF Final Energy:  -173.34977785622547

   => Energetics <=

    Nuclear Repulsion Energy =            131.2682598778378349
    One-Electron Energy =                -493.2997475195105039
    Two-Electron Energy =                 188.6817097854472252
    Total Energy =                       -173.3497778562254723
  Basis Set: (AUG-CC-PVTZ AUX)
    Blend: AUG-CC-PVTZ-RI
    Molecular point group: c1

    Geometry (in Angstrom), charge = 0, multiplicity = 1:

       Center              X                  Y                   Z               Mass
    ------------   -----------------  -----------------  -----------------  -----------------
         N            1.910425675696     0.029474959909    -0.009652732508    14.003074004430
         C           -0.580779324304     0.526581959909    -0.009194732508    12.000000000000
         C            0.564725275696    -0.486102640091     0.035756867492    12.000000000000
         C           -1.967892324304    -0.111955040091    -0.009113732508    12.000000000000
         H           -0.438457324304     1.152872059909     0.880893167492     1.007825032230
         H           -0.469806324304     1.173153959909    -0.889193732508     1.007825032230
         H            0.446199675696    -1.155947040091    -0.887766732508     1.007825032230
         H            0.446489675696    -1.156087040091     0.868746267492     1.007825032230
         H           -2.107902324304    -0.741179040091    -0.893521732508     1.007825032230
         H           -2.107766324304    -0.741357040091     0.875195267492     1.007825032230
         H           -2.755479324304     0.646604959909    -0.009016732508     1.007825032230
         H            2.032763675696     0.631449959909     0.803838267492     1.007825032230
         H            2.032344675696     0.632002959909    -0.822810732508     1.007825032230

  Basis Set: AUG-CC-PVTZ
    Blend: AUG-CC-PVTZ
  Basis Set: (AUG-CC-PVTZ AUX)
    Blend: AUG-CC-PVTZ-JKFIT
	 Reference Energy          =    -173.3497778562254723 [Eh]
	 Singles Energy            =      -0.0000000000000000 [Eh]
	 Same-Spin Energy          =      -0.1806782158157584 [Eh]
	 Opposite-Spin Energy      =      -0.6594361939973602 [Eh]
	 Correlation Energy        =      -0.8401144098131186 [Eh]
	 Total Energy              =    -174.1898922660385836 [Eh]

	 ================> DF-SCS-MP2 Energies <==================
	-----------------------------------------------------------
	 SCS Same-Spin Scale       =       0.3333333333333333 [-]
	 SCS Opposite-Spin Scale   =       1.2000000000000000 [-]
	 SCS Same-Spin Energy      =      -0.0602260719385861 [Eh]
	 SCS Opposite-Spin Energy  =      -0.7913234327968323 [Eh]
	 SCS Correlation Energy    =      -0.8515495047354185 [Eh]
	 SCS Total Energy          =    -174.2013273609609030 [Eh]
	-----------------------------------------------------------

  Dipole Moment: [D]
     X:    -0.9788      Y:     1.0793      Z:     0.0394     Total:     1.4576

*** Psi4 exiting successfully. Buy a developer a beer!
