                               Psi4 1.3.2 release

  ==> Input File <==

--------------------------------------------------------------------------
#psi4
#
memory 32 gb

molecule  {
0 1
  N        1.9752300    -0.0216965    -0.0003106
  C       -0.5692943     0.4833845     0.0001570
  C        0.5931330    -0.5108460    -0.0001300
  C       -1.9210010    -0.1151900     0.0002360
  H       -0.4226550     1.1696880     0.8802810
  H       -0.4229150     1.1699190    -0.8798440
  H        0.4930910    -1.1591820    -0.8784170
  H        0.4933810    -1.1593220     0.8780960
  H       -2.0610110    -0.7444140    -0.8841720
  H       -2.0608750    -0.7445920     0.8845450
  H       -2.7085880     0.6433700     0.0003330
  H        2.0796550     0.6282150     0.8131880
  H        2.0792360     0.6287680    -0.8134610
units angstrom
no_reorient  #important for SAPT in psi4, default
symmetry c1  #important for SAPT in psi4, default
}

set PROPERTIES_ORIGIN ["COM"]
properties('MP2/aug-cc-pvtz', properties = ['dipole'])
--------------------------------------------------------------------------

    Molecular point group: c1
  Charge       = 0
  Multiplicity = 1
  Basis Set: AUG-CC-PVTZ
    Blend: AUG-CC-PVTZ
  Basis Set: (AUG-CC-PVTZ AUX)
    Blend: AUG-CC-PVTZ-JKFIT

    Orbital Energies [Eh]
    ---------------------

    Doubly Occupied:

       1A    -15.549368     2A    -11.244591     3A    -11.224483
       4A    -11.215425     5A     -1.172926     6A     -1.045914
       7A     -0.898195     8A     -0.798617     9A     -0.666034
      10A     -0.610157    11A     -0.598779    12A     -0.562769
      13A     -0.530411    14A     -0.511706    15A     -0.484779
      16A     -0.458814    17A     -0.395662

  @DF-RHF Final Energy:  -173.34574368504056

   => Energetics <=

    Nuclear Repulsion Energy =            131.0055608339042124
    One-Electron Energy =                -492.7653481040001680
    Two-Electron Energy =                 188.4140435850553956
    Total Energy =                       -173.3457436850405600
  Basis Set: (AUG-CC-PVTZ AUX)
    Blend: AUG-CC-PVTZ-RI
    Molecular point group: c1

    Geometry (in Angstrom), charge = 0, multiplicity = 1:

       Center              X                  Y                   Z               Mass
    ------------   -----------------  -----------------  -----------------  -----------------
         N            1.935569904807     0.005046485921    -0.000299765043    14.003074004430
         C           -0.608954395193     0.510127485921     0.000167834957    12.000000000000
         C            0.553472904807    -0.484103014079    -0.000119165043    12.000000000000
         C           -1.960661095193    -0.088447014079     0.000246834957    12.000000000000
         H           -0.462315095193     1.196430985921     0.880291834957     1.007825032230
         H           -0.462575095193     1.196661985921    -0.879833165043     1.007825032230
         H            0.453430904807    -1.132439014079    -0.878406165043     1.007825032230
         H            0.453720904807    -1.132579014079     0.878106834957     1.007825032230
         H           -2.100671095193    -0.717671014079    -0.884161165043     1.007825032230
         H           -2.100535095193    -0.717849014079     0.884555834957     1.007825032230
         H           -2.748248095193     0.670112985921     0.000343834957     1.007825032230
         H            2.039994904807     0.654957985921     0.813198834957     1.007825032230
         H            2.039575904807     0.655510985921    -0.813450165043     1.007825032230

  Basis Set: AUG-CC-PVTZ
    Blend: AUG-CC-PVTZ
  Basis Set: (AUG-CC-PVTZ AUX)
    Blend: AUG-CC-PVTZ-JKFIT
	 Reference Energy          =    -173.3457436850405600 [Eh]
	 Singles Energy            =      -0.0000000000000000 [Eh]
	 Same-Spin Energy          =      -0.1812125821651338 [Eh]
	 Opposite-Spin Energy      =      -0.6610052121417463 [Eh]
	 Correlation Energy        =      -0.8422177943068802 [Eh]
	 Total Energy              =    -174.1879614793474502 [Eh]

	 ================> DF-SCS-MP2 Energies <==================
	-----------------------------------------------------------
	 SCS Same-Spin Scale       =       0.3333333333333333 [-]
	 SCS Opposite-Spin Scale   =       1.2000000000000000 [-]
	 SCS Same-Spin Energy      =      -0.0604041940550446 [Eh]
	 SCS Opposite-Spin Energy  =      -0.7932062545700956 [Eh]
	 SCS Correlation Energy    =      -0.8536104486251402 [Eh]
	 SCS Total Energy          =    -174.1993541336657074 [Eh]
	-----------------------------------------------------------

  Dipole Moment: [D]
     X:    -1.1199      Y:     1.1093      Z:     0.0006     Total:     1.5763

*** Psi4 exiting successfully. Buy a developer a beer!
