                               Psi4 1.3.2 release

  ==> Input File <==

--------------------------------------------------------------------------
#psi4
#
memory 32 gb

molecule  {
0 1
  N        1.9573170     0.0262400    -0.0003030
  C       -0.5338880     0.5233470     0.0001550
  C        0.6039893    -0.5359968    -0.0433546
  C       -1.9210010    -0.1151900     0.0002360
  H       -0.4226550     1.1696880     0.8802810
  H       -0.4229150     1.1699190    -0.8798440
  H        0.4930910    -1.1591820    -0.8784170
  H        0.4933810    -1.1593220     0.8780960
  H       -2.0610110    -0.7444140    -0.8841720
  H       -2.0608750    -0.7445920     0.8845450
  H       -2.7085880     0.6433700     0.0003330
  H        2.1131382     0.6343514     0.8028336
  H        2.0792360     0.6287680    -0.8134610
units angstrom
no_reorient  #important for SAPT in psi4, default
symmetry c1  #important for SAPT in psi4, default
}

set PROPERTIES_ORIGIN ["COM"]
properties('MP2/aug-cc-pvtz', properties = ['dipole'])
--------------------------------------------------------------------------

    Molecular point group: c1
  Charge       = 0
  Multiplicity = 1
  Basis Set: AUG-CC-PVTZ
    Blend: AUG-CC-PVTZ
  Basis Set: (AUG-CC-PVTZ AUX)
    Blend: AUG-CC-PVTZ-JKFIT

    Orbital Energies [Eh]
    ---------------------

    Doubly Occupied:

       1A    -15.537910     2A    -11.244417     3A    -11.220143
       4A    -11.214686     5A     -1.173089     6A     -1.033866
       7A     -0.897063     8A     -0.806315     9A     -0.672383
      10A     -0.607334    11A     -0.599607    12A     -0.561412
      13A     -0.523595    14A     -0.515807    15A     -0.487720
      16A     -0.471538    17A     -0.381361

  @DF-RHF Final Energy:  -173.35056040570103

   => Energetics <=

    Nuclear Repulsion Energy =            130.8016037169846868
    One-Electron Energy =                -492.4078398308713531
    Two-Electron Energy =                 188.2556757081856347
    Total Energy =                       -173.3505604057010316
  Basis Set: (AUG-CC-PVTZ AUX)
    Blend: AUG-CC-PVTZ-RI
    Molecular point group: c1

    Geometry (in Angstrom), charge = 0, multiplicity = 1:

       Center              X                  Y                   Z               Mass
    ------------   -----------------  -----------------  -----------------  -----------------
         N            1.911934214489     0.038506390074     0.008663596957    14.003074004430
         C           -0.579270785511     0.535613390074     0.009121596957    12.000000000000
         C            0.558606514489    -0.523730409926    -0.034388003043    12.000000000000
         C           -1.966383785511    -0.102923609926     0.009202596957    12.000000000000
         H           -0.468037785511     1.181954390074     0.889247596957     1.007825032230
         H           -0.468297785511     1.182185390074    -0.870877403043     1.007825032230
         H            0.447708214489    -1.146915609926    -0.869450403043     1.007825032230
         H            0.447998214489    -1.147055609926     0.887062596957     1.007825032230
         H           -2.106393785511    -0.732147609926    -0.875205403043     1.007825032230
         H           -2.106257785511    -0.732325609926     0.893511596957     1.007825032230
         H           -2.753970785511     0.655636390074     0.009299596957     1.007825032230
         H            2.067755414489     0.646617790074     0.811800196957     1.007825032230
         H            2.033853214489     0.641034390074    -0.804494403043     1.007825032230

  Basis Set: AUG-CC-PVTZ
    Blend: AUG-CC-PVTZ
  Basis Set: (AUG-CC-PVTZ AUX)
    Blend: AUG-CC-PVTZ-JKFIT
	 Reference Energy          =    -173.3505604057010316 [Eh]
	 Singles Energy            =      -0.0000000000000000 [Eh]
	 Same-Spin Energy          =      -0.1802786894869411 [Eh]
	 Opposite-Spin Energy      =      -0.6590777929428030 [Eh]
	 Correlation Energy        =      -0.8393564824297440 [Eh]
	 Total Energy              =    -174.1899168881307673 [Eh]

	 ================> DF-SCS-MP2 Energies <==================
	-----------------------------------------------------------
	 SCS Same-Spin Scale       =       0.3333333333333333 [-]
	 SCS Opposite-Spin Scale   =       1.2000000000000000 [-]
	 SCS Same-Spin Energy      =      -0.0600928964956470 [Eh]
	 SCS Opposite-Spin Energy  =      -0.7908933515313635 [Eh]
	 SCS Correlation Energy    =      -0.8509862480270105 [Eh]
	 SCS Total Energy          =    -174.2015466537280304 [Eh]
	-----------------------------------------------------------

  Dipole Moment: [D]
     X:    -0.9958      Y:     1.0292      Z:    -0.0275     Total:     1.4323

*** Psi4 exiting successfully. Buy a developer a beer!
