                               Psi4 1.3.2 release

  ==> Input File <==

--------------------------------------------------------------------------
#psi4
#
memory 32 gb

molecule  {
0 1
  N        1.9477358     0.0499665    -0.0002991
  C       -0.5156672     0.5428587     0.0001539
  C        0.5931330    -0.5108460    -0.0001300
  C       -1.9210010    -0.1151900     0.0002360
  H       -0.4226550     1.1696880     0.8802810
  H       -0.4229150     1.1699190    -0.8798440
  H        0.4930910    -1.1591820    -0.8784170
  H        0.4933810    -1.1593220     0.8780960
  H       -2.0610110    -0.7444140    -0.8841720
  H       -2.0608750    -0.7445920     0.8845450
  H       -2.7085880     0.6433700     0.0003330
  H        2.0796550     0.6282150     0.8131880
  H        2.0792360     0.6287680    -0.8134610
units angstrom
no_reorient  #important for SAPT in psi4, default
symmetry c1  #important for SAPT in psi4, default
}

set PROPERTIES_ORIGIN ["COM"]
properties('MP2/aug-cc-pvtz', properties = ['dipole'])
--------------------------------------------------------------------------

    Molecular point group: c1
  Charge       = 0
  Multiplicity = 1
  Basis Set: AUG-CC-PVTZ
    Blend: AUG-CC-PVTZ
  Basis Set: (AUG-CC-PVTZ AUX)
    Blend: AUG-CC-PVTZ-JKFIT

    Orbital Energies [Eh]
    ---------------------

    Doubly Occupied:

       1A    -15.533868     2A    -11.244499     3A    -11.218005
       4A    -11.215422     5A     -1.176446     6A     -1.032812
       7A     -0.896328     8A     -0.807074     9A     -0.677905
      10A     -0.605666    11A     -0.603619    12A     -0.560239
      13A     -0.518142    14A     -0.517462    15A     -0.485599
      16A     -0.476546    17A     -0.382009

  @DF-RHF Final Energy:  -173.35371227505544

   => Energetics <=

    Nuclear Repulsion Energy =            131.1166077294294894
    One-Electron Energy =                -493.0373588879360796
    Two-Electron Energy =                 188.5670388834511755
    Total Energy =                       -173.3537122750554431
  Basis Set: (AUG-CC-PVTZ AUX)
    Blend: AUG-CC-PVTZ-RI
    Molecular point group: c1

    Geometry (in Angstrom), charge = 0, multiplicity = 1:

       Center              X                  Y                   Z               Mass
    ------------   -----------------  -----------------  -----------------  -----------------
         N            1.903699429730     0.047640737449    -0.000290361335    14.003074004430
         C           -0.559703570270     0.540532937449     0.000162638665    12.000000000000
         C            0.549096629730    -0.513171762551    -0.000121261335    12.000000000000
         C           -1.965037370270    -0.117515762551     0.000244738665    12.000000000000
         H           -0.466691370270     1.167362237449     0.880289738665     1.007825032230
         H           -0.466951370270     1.167593237449    -0.879835261335     1.007825032230
         H            0.449054629730    -1.161507762551    -0.878408261335     1.007825032230
         H            0.449344629730    -1.161647762551     0.878104738665     1.007825032230
         H           -2.105047370270    -0.746739762551    -0.884163261335     1.007825032230
         H           -2.104911370270    -0.746917762551     0.884553738665     1.007825032230
         H           -2.752624370270     0.641044237449     0.000341738665     1.007825032230
         H            2.035618629730     0.625889237449     0.813196738665     1.007825032230
         H            2.035199629730     0.626442237449    -0.813452261335     1.007825032230

  Basis Set: AUG-CC-PVTZ
    Blend: AUG-CC-PVTZ
  Basis Set: (AUG-CC-PVTZ AUX)
    Blend: AUG-CC-PVTZ-JKFIT
	 Reference Energy          =    -173.3537122750554431 [Eh]
	 Singles Energy            =      -0.0000000000000000 [Eh]
	 Same-Spin Energy          =      -0.1801626112135729 [Eh]
	 Opposite-Spin Energy      =      -0.6585831625545071 [Eh]
	 Correlation Energy        =      -0.8387457737680800 [Eh]
	 Total Energy              =    -174.1924580488235108 [Eh]

	 ================> DF-SCS-MP2 Energies <==================
	-----------------------------------------------------------
	 SCS Same-Spin Scale       =       0.3333333333333333 [-]
	 SCS Opposite-Spin Scale   =       1.2000000000000000 [-]
	 SCS Same-Spin Energy      =      -0.0600542037378576 [Eh]
	 SCS Opposite-Spin Energy  =      -0.7902997950654085 [Eh]
	 SCS Correlation Energy    =      -0.8503539988032661 [Eh]
	 SCS Total Energy          =    -174.2040662738587002 [Eh]
	-----------------------------------------------------------

  Dipole Moment: [D]
     X:    -0.9949      Y:     1.0170      Z:     0.0006     Total:     1.4227

*** Psi4 exiting successfully. Buy a developer a beer!
