                               Psi4 1.3.2 release

  ==> Input File <==

--------------------------------------------------------------------------
#psi4
#
memory 32 gb

molecule  {
0 1
  N        1.9573170     0.0262400    -0.0003030
  C       -0.5338880     0.5233470     0.0001550
  C        0.5374630    -0.5684124    -0.0001313
  C       -1.8856816    -0.1869108     0.0002215
  H       -0.4226550     1.1696880     0.8802810
  H       -0.4229150     1.1699190    -0.8798440
  H        0.4930910    -1.1591820    -0.8784170
  H        0.4933810    -1.1593220     0.8780960
  H       -2.0610110    -0.7444140    -0.8841720
  H       -2.0608750    -0.7445920     0.8845450
  H       -2.7085880     0.6433700     0.0003330
  H        2.0796550     0.6282150     0.8131880
  H        2.0792360     0.6287680    -0.8134610
units angstrom
no_reorient  #important for SAPT in psi4, default
symmetry c1  #important for SAPT in psi4, default
}

set PROPERTIES_ORIGIN ["COM"]
properties('MP2/aug-cc-pvtz', properties = ['dipole'])
--------------------------------------------------------------------------

    Molecular point group: c1
  Charge       = 0
  Multiplicity = 1
  Basis Set: AUG-CC-PVTZ
    Blend: AUG-CC-PVTZ
  Basis Set: (AUG-CC-PVTZ AUX)
    Blend: AUG-CC-PVTZ-JKFIT

    Orbital Energies [Eh]
    ---------------------

    Doubly Occupied:

       1A    -15.534068     2A    -11.242517     3A    -11.222434
       4A    -11.216309     5A     -1.154580     6A     -1.039496
       7A     -0.899248     8A     -0.811289     9A     -0.673187
      10A     -0.609437    11A     -0.590009    12A     -0.554886
      13A     -0.537562    14A     -0.496629    15A     -0.488451
      16A     -0.487414    17A     -0.378686

  @DF-RHF Final Energy:  -173.34049014360380

   => Energetics <=

    Nuclear Repulsion Energy =            130.8311289950802347
    One-Electron Energy =                -492.4708330972717931
    Two-Electron Energy =                 188.2992139585877567
    Total Energy =                       -173.3404901436038017
  Basis Set: (AUG-CC-PVTZ AUX)
    Blend: AUG-CC-PVTZ-RI
    Molecular point group: c1

    Geometry (in Angstrom), charge = 0, multiplicity = 1:

       Center              X                  Y                   Z               Mass
    ------------   -----------------  -----------------  -----------------  -----------------
         N            1.918844724481     0.059765012511    -0.000290350750    14.003074004430
         C           -0.572360275519     0.556872012511     0.000167649250    12.000000000000
         C            0.498990724481    -0.534887387489    -0.000118650750    12.000000000000
         C           -1.924153875519    -0.153385787489     0.000234149250    12.000000000000
         H           -0.461127275519     1.203213012511     0.880293649250     1.007825032230
         H           -0.461387275519     1.203444012511    -0.879831350750     1.007825032230
         H            0.454618724481    -1.125656987489    -0.878404350750     1.007825032230
         H            0.454908724481    -1.125796987489     0.878108649250     1.007825032230
         H           -2.099483275519    -0.710888987489    -0.884159350750     1.007825032230
         H           -2.099347275519    -0.711066987489     0.884557649250     1.007825032230
         H           -2.747060275519     0.676895012511     0.000345649250     1.007825032230
         H            2.041182724481     0.661740012511     0.813200649250     1.007825032230
         H            2.040763724481     0.662293012511    -0.813448350750     1.007825032230

  Basis Set: AUG-CC-PVTZ
    Blend: AUG-CC-PVTZ
  Basis Set: (AUG-CC-PVTZ AUX)
    Blend: AUG-CC-PVTZ-JKFIT
	 Reference Energy          =    -173.3404901436038017 [Eh]
	 Singles Energy            =      -0.0000000000000000 [Eh]
	 Same-Spin Energy          =      -0.1804125265749767 [Eh]
	 Opposite-Spin Energy      =      -0.6600920491810865 [Eh]
	 Correlation Energy        =      -0.8405045757560632 [Eh]
	 Total Energy              =    -174.1809947193598589 [Eh]

	 ================> DF-SCS-MP2 Energies <==================
	-----------------------------------------------------------
	 SCS Same-Spin Scale       =       0.3333333333333333 [-]
	 SCS Opposite-Spin Scale   =       1.2000000000000000 [-]
	 SCS Same-Spin Energy      =      -0.0601375088583256 [Eh]
	 SCS Opposite-Spin Energy  =      -0.7921104590173038 [Eh]
	 SCS Correlation Energy    =      -0.8522479678756294 [Eh]
	 SCS Total Energy          =    -174.1927381114794287 [Eh]
	-----------------------------------------------------------

  Dipole Moment: [D]
     X:    -1.2150      Y:     0.9525      Z:     0.0006     Total:     1.5438

*** Psi4 exiting successfully. Buy a developer a beer!
