                               Psi4 1.3.2 release

  ==> Input File <==

--------------------------------------------------------------------------
#psi4
#
memory 32 gb

molecule  {
0 1
  N        1.9573170     0.0262400    -0.0003030
  C       -0.5338880     0.5233470     0.0001550
  C        0.5931330    -0.5108460    -0.0001300
  C       -1.9210010    -0.1151900     0.0002360
  H       -0.4226550     1.1696880     0.8802810
  H       -0.4229150     1.1699190    -0.8798440
  H        0.4930910    -1.1591820    -0.8784170
  H        0.4933810    -1.1593220     0.8780960
  H       -2.0610110    -0.7444140    -0.8841720
  H       -2.0608750    -0.7445920     0.8845450
  H       -2.7085880     0.6433700     0.0003330
  H        2.0916564     0.6872688     0.8929916
  H        2.0792360     0.6287680    -0.8134610
units angstrom
no_reorient  #important for SAPT in psi4, default
symmetry c1  #important for SAPT in psi4, default
}

set PROPERTIES_ORIGIN ["COM"]
properties('MP2/aug-cc-pvtz', properties = ['dipole'])
--------------------------------------------------------------------------

    Molecular point group: c1
  Charge       = 0
  Multiplicity = 1
  Basis Set: AUG-CC-PVTZ
    Blend: AUG-CC-PVTZ
  Basis Set: (AUG-CC-PVTZ AUX)
    Blend: AUG-CC-PVTZ-JKFIT

    Orbital Energies [Eh]
    ---------------------

    Doubly Occupied:

       1A    -15.549824     2A    -11.244975     3A    -11.219826
       4A    -11.215455     5A     -1.165434     6A     -1.034611
       7A     -0.893534     8A     -0.803018     9A     -0.665018
      10A     -0.605292    11A     -0.594285    12A     -0.559304
      13A     -0.521357    14A     -0.511616    15A     -0.486364
      16A     -0.470219    17A     -0.385911

  @DF-RHF Final Energy:  -173.34391607613753

   => Energetics <=

    Nuclear Repulsion Energy =            130.6384871422635570
    One-Electron Energy =                -492.1127223530785955
    Two-Electron Energy =                 188.1303191346775066
    Total Energy =                       -173.3439160761375319
  Basis Set: (AUG-CC-PVTZ AUX)
    Blend: AUG-CC-PVTZ-RI
    Molecular point group: c1

    Geometry (in Angstrom), charge = 0, multiplicity = 1:

       Center              X                  Y                   Z               Mass
    ------------   -----------------  -----------------  -----------------  -----------------
         N            1.914506019065     0.032494538997    -0.001655051787    14.003074004430
         C           -0.576698980935     0.529601538997    -0.001197051787    12.000000000000
         C            0.550322019065    -0.504591461003    -0.001482051787    12.000000000000
         C           -1.963811980935    -0.108935461003    -0.001116051787    12.000000000000
         H           -0.465465980935     1.175942538997     0.878928948213     1.007825032230
         H           -0.465725980935     1.176173538997    -0.881196051787     1.007825032230
         H            0.450280019065    -1.152927461003    -0.879769051787     1.007825032230
         H            0.450570019065    -1.153067461003     0.876743948213     1.007825032230
         H           -2.103821980935    -0.738159461003    -0.885524051787     1.007825032230
         H           -2.103685980935    -0.738337461003     0.883192948213     1.007825032230
         H           -2.751398980935     0.649624538997    -0.001019051787     1.007825032230
         H            2.048845419065     0.693523338997     0.891639548213     1.007825032230
         H            2.036425019065     0.635022538997    -0.814813051787     1.007825032230

  Basis Set: AUG-CC-PVTZ
    Blend: AUG-CC-PVTZ
  Basis Set: (AUG-CC-PVTZ AUX)
    Blend: AUG-CC-PVTZ-JKFIT
	 Reference Energy          =    -173.3439160761375319 [Eh]
	 Singles Energy            =      -0.0000000000000000 [Eh]
	 Same-Spin Energy          =      -0.1808525728800197 [Eh]
	 Opposite-Spin Energy      =      -0.6609339225293990 [Eh]
	 Correlation Energy        =      -0.8417864954094187 [Eh]
	 Total Energy              =    -174.1857025715469547 [Eh]

	 ================> DF-SCS-MP2 Energies <==================
	-----------------------------------------------------------
	 SCS Same-Spin Scale       =       0.3333333333333333 [-]
	 SCS Opposite-Spin Scale   =       1.2000000000000000 [-]
	 SCS Same-Spin Energy      =      -0.0602841909600066 [Eh]
	 SCS Opposite-Spin Energy  =      -0.7931207070352787 [Eh]
	 SCS Correlation Energy    =      -0.8534048979952853 [Eh]
	 SCS Total Energy          =    -174.1973209741328219 [Eh]
	-----------------------------------------------------------

  Dipole Moment: [D]
     X:    -1.0451      Y:     1.0392      Z:     0.0081     Total:     1.4738

*** Psi4 exiting successfully. Buy a developer a beer!
