                               Psi4 1.3.2 release

  ==> Input File <==

--------------------------------------------------------------------------
#psi4
#
memory 32 gb

molecule  {
0 1
  N        1.9573170     0.0262400    -0.0003030
  C       -0.5338880     0.5233470     0.0001550
  C        0.5931330    -0.5108460    -0.0001300
  C       -1.9210010    -0.1151900     0.0002360
  H       -0.4226550     1.1696880     0.8802810
  H       -0.4229150     1.1699190    -0.8798440
  H        0.4930910    -1.1591820    -0.8784170
  H        0.4933810    -1.1593220     0.8780960
  H       -2.0610110    -0.7444140    -0.8841720
  H       -2.0608750    -0.7445920     0.8845450
  H       -2.7085880     0.6433700     0.0003330
  H        2.0824546     0.6420382     0.8023434
  H        2.0820412     0.6425840    -0.8026085
units angstrom
no_reorient  #important for SAPT in psi4, default
symmetry c1  #important for SAPT in psi4, default
}

set PROPERTIES_ORIGIN ["COM"]
properties('MP2/aug-cc-pvtz', properties = ['dipole'])
--------------------------------------------------------------------------

    Molecular point group: c1
  Charge       = 0
  Multiplicity = 1
  Basis Set: AUG-CC-PVTZ
    Blend: AUG-CC-PVTZ
  Basis Set: (AUG-CC-PVTZ AUX)
    Blend: AUG-CC-PVTZ-JKFIT

    Orbital Energies [Eh]
    ---------------------

    Doubly Occupied:

       1A    -15.538993     2A    -11.244716     3A    -11.220096
       4A    -11.215620     5A     -1.175463     6A     -1.037101
       7A     -0.897565     8A     -0.804865     9A     -0.671401
      10A     -0.607082    11A     -0.601881    12A     -0.560111
      13A     -0.522916    14A     -0.515803    15A     -0.486575
      16A     -0.470915    17A     -0.387670

  @DF-RHF Final Energy:  -173.35341953405026

   => Energetics <=

    Nuclear Repulsion Energy =            131.0640206649084405
    One-Electron Energy =                -492.9173378869505768
    Two-Electron Energy =                 188.4998976879919041
    Total Energy =                       -173.3534195340502606
  Basis Set: (AUG-CC-PVTZ AUX)
    Blend: AUG-CC-PVTZ-RI
    Molecular point group: c1

    Geometry (in Angstrom), charge = 0, multiplicity = 1:

       Center              X                  Y                   Z               Mass
    ------------   -----------------  -----------------  -----------------  -----------------
         N            1.914615148432     0.033030488630    -0.000293695089    14.003074004430
         C           -0.576589851568     0.530137488630     0.000164304911    12.000000000000
         C            0.550431148432    -0.504055511370    -0.000120695089    12.000000000000
         C           -1.963702851568    -0.108399511370     0.000245304911    12.000000000000
         H           -0.465356851568     1.176478488630     0.880290304911     1.007825032230
         H           -0.465616851568     1.176709488630    -0.879834695089     1.007825032230
         H            0.450389148432    -1.152391511370    -0.878407695089     1.007825032230
         H            0.450679148432    -1.152531511370     0.878105304911     1.007825032230
         H           -2.103712851568    -0.737623511370    -0.884162695089     1.007825032230
         H           -2.103576851568    -0.737801511370     0.884554304911     1.007825032230
         H           -2.751289851568     0.650160488630     0.000342304911     1.007825032230
         H            2.039752748432     0.648828688630     0.802352704911     1.007825032230
         H            2.039339348432     0.649374488630    -0.802599195089     1.007825032230

  Basis Set: AUG-CC-PVTZ
    Blend: AUG-CC-PVTZ
  Basis Set: (AUG-CC-PVTZ AUX)
    Blend: AUG-CC-PVTZ-JKFIT
	 Reference Energy          =    -173.3534195340502606 [Eh]
	 Singles Energy            =      -0.0000000000000000 [Eh]
	 Same-Spin Energy          =      -0.1804281671503508 [Eh]
	 Opposite-Spin Energy      =      -0.6592220002849006 [Eh]
	 Correlation Energy        =      -0.8396501674352514 [Eh]
	 Total Energy              =    -174.1930697014855127 [Eh]

	 ================> DF-SCS-MP2 Energies <==================
	-----------------------------------------------------------
	 SCS Same-Spin Scale       =       0.3333333333333333 [-]
	 SCS Opposite-Spin Scale   =       1.2000000000000000 [-]
	 SCS Same-Spin Energy      =      -0.0601427223834503 [Eh]
	 SCS Opposite-Spin Energy  =      -0.7910664003418807 [Eh]
	 SCS Correlation Energy    =      -0.8512091227253310 [Eh]
	 SCS Total Energy          =    -174.2046286567755828 [Eh]
	-----------------------------------------------------------

  Dipole Moment: [D]
     X:    -1.0525      Y:     1.0714      Z:     0.0006     Total:     1.5018

*** Psi4 exiting successfully. Buy a developer a beer!
