                               Psi4 1.3.2 release

  ==> Input File <==

--------------------------------------------------------------------------
#psi4
#
memory 32 gb

molecule  {
0 1
  N        1.9573170     0.0262400    -0.0003030
  C       -0.5338880     0.5233470     0.0001550
  C        0.5906781    -0.5044548     0.0106782
  C       -1.9210010    -0.1151900     0.0002360
  H       -0.4226550     1.1696880     0.8802810
  H       -0.4229150     1.1699190    -0.8798440
  H        0.4930910    -1.1591820    -0.8784170
  H        0.4933810    -1.1593220     0.8780960
  H       -2.0610110    -0.7444140    -0.8841720
  H       -2.0608750    -0.7445920     0.8845450
  H       -2.7085880     0.6433700     0.0003330
  H        2.0712593     0.6265660     0.8156222
  H        2.0792360     0.6287680    -0.8134610
units angstrom
no_reorient  #important for SAPT in psi4, default
symmetry c1  #important for SAPT in psi4, default
}

set PROPERTIES_ORIGIN ["COM"]
properties('MP2/aug-cc-pvtz', properties = ['dipole'])
--------------------------------------------------------------------------

    Molecular point group: c1
  Charge       = 0
  Multiplicity = 1
  Basis Set: AUG-CC-PVTZ
    Blend: AUG-CC-PVTZ
  Basis Set: (AUG-CC-PVTZ AUX)
    Blend: AUG-CC-PVTZ-JKFIT

    Orbital Energies [Eh]
    ---------------------

    Doubly Occupied:

       1A    -15.539112     2A    -11.244553     3A    -11.219920
       4A    -11.215735     5A     -1.175797     6A     -1.037630
       7A     -0.897114     8A     -0.803959     9A     -0.673823
      10A     -0.606294    11A     -0.603241    12A     -0.560362
      13A     -0.522159    14A     -0.515571    15A     -0.486425
      16A     -0.469662    17A     -0.388053

  @DF-RHF Final Energy:  -173.35317975034013

   => Energetics <=

    Nuclear Repulsion Energy =            131.1378997806647817
    One-Electron Energy =                -493.0633398262823448
    Two-Electron Energy =                 188.5722602952774309
    Total Energy =                       -173.3531797503401322
  Basis Set: (AUG-CC-PVTZ AUX)
    Blend: AUG-CC-PVTZ-RI
    Molecular point group: c1

    Geometry (in Angstrom), charge = 0, multiplicity = 1:

       Center              X                  Y                   Z               Mass
    ------------   -----------------  -----------------  -----------------  -----------------
         N            1.915352684804     0.032231873017    -0.002530631913    14.003074004430
         C           -0.575852315196     0.529338873017    -0.002072631913    12.000000000000
         C            0.548713784804    -0.498462926983     0.008450568087    12.000000000000
         C           -1.962965315196    -0.109198126983    -0.001991631913    12.000000000000
         H           -0.464619315196     1.175679873017     0.878053368087     1.007825032230
         H           -0.464879315196     1.175910873017    -0.882071631913     1.007825032230
         H            0.451126684804    -1.153190126983    -0.880644631913     1.007825032230
         H            0.451416684804    -1.153330126983     0.875868368087     1.007825032230
         H           -2.102975315196    -0.738422126983    -0.886399631913     1.007825032230
         H           -2.102839315196    -0.738600126983     0.882317368087     1.007825032230
         H           -2.750552315196     0.649361873017    -0.001894631913     1.007825032230
         H            2.029294984804     0.632557873017     0.813394568087     1.007825032230
         H            2.037271684804     0.634759873017    -0.815688631913     1.007825032230

  Basis Set: AUG-CC-PVTZ
    Blend: AUG-CC-PVTZ
  Basis Set: (AUG-CC-PVTZ AUX)
    Blend: AUG-CC-PVTZ-JKFIT
	 Reference Energy          =    -173.3531797503401322 [Eh]
	 Singles Energy            =      -0.0000000000000000 [Eh]
	 Same-Spin Energy          =      -0.1804859430134501 [Eh]
	 Opposite-Spin Energy      =      -0.6592948099547433 [Eh]
	 Correlation Energy        =      -0.8397807529681934 [Eh]
	 Total Energy              =    -174.1929605033083135 [Eh]

	 ================> DF-SCS-MP2 Energies <==================
	-----------------------------------------------------------
	 SCS Same-Spin Scale       =       0.3333333333333333 [-]
	 SCS Opposite-Spin Scale   =       1.2000000000000000 [-]
	 SCS Same-Spin Energy      =      -0.0601619810044834 [Eh]
	 SCS Opposite-Spin Energy  =      -0.7911537719456919 [Eh]
	 SCS Correlation Energy    =      -0.8513157529501753 [Eh]
	 SCS Total Energy          =    -174.2044955032903033 [Eh]
	-----------------------------------------------------------

  Dipole Moment: [D]
     X:    -1.0513      Y:     1.0599      Z:     0.0082     Total:     1.4929

*** Psi4 exiting successfully. Buy a developer a beer!
