                               Psi4 1.4a3.dev225

  ==> Input File <==

--------------------------------------------------------------------------
#psi4
#
memory 32 gb

molecule  {
0 1
  N        1.9567340     0.0254830    -0.0000010
  C       -0.5337590     0.5239430     0.0000000
  C        0.5924050    -0.5103730    -0.0000030
  C       -1.9201290    -0.1150620     0.0000010
  H       -0.4211530     1.1712430     0.8793960
  H       -0.4211550     1.1712460    -0.8793930
  H        0.4914030    -1.1596150    -0.8777340
  H        0.4914020    -1.1596250     0.8777200
  H       -2.0588170    -0.7452150    -0.8839620
  H       -2.0588250    -0.7451950     0.8839770
  H       -2.7099090     0.6412230    -0.0000110
  H        2.0770055     0.6164123     0.7971648
  H        2.0794030     0.6282730    -0.8130910
units angstrom
no_reorient  #important for SAPT in psi4, default
symmetry c1  #important for SAPT in psi4, default
}

set PROPERTIES_ORIGIN ["COM"]
properties('MP2/aug-cc-pvtz', properties = ['dipole'])
--------------------------------------------------------------------------

    Molecular point group: c1
  Charge       = 0
  Multiplicity = 1
  Basis Set: AUG-CC-PVTZ
    Blend: AUG-CC-PVTZ
  Basis Set: (AUG-CC-PVTZ AUX)
    Blend: AUG-CC-PVTZ-JKFIT

    Orbital Energies [Eh]
    ---------------------

    Doubly Occupied:

       1A    -15.536571     2A    -11.244294     3A    -11.219925
       4A    -11.215545     5A     -1.177776     6A     -1.037529
       7A     -0.897824     8A     -0.804772     9A     -0.675522
      10A     -0.606856    11A     -0.603900    12A     -0.560151
      13A     -0.522362    14A     -0.516774    15A     -0.486709
      16A     -0.470760    17A     -0.387104

  @DF-RHF Final Energy:  -173.35383381714536

   => Energetics <=

    Nuclear Repulsion Energy =            131.1912593623686689
    One-Electron Energy =                -493.1614405019587366
    Two-Electron Energy =                 188.6163473224447102
    Total Energy =                       -173.3538338171453574
  Basis Set: (AUG-CC-PVTZ AUX)
    Blend: AUG-CC-PVTZ-RI
    Molecular point group: c1

    Geometry (in Angstrom), charge = 0, multiplicity = 1:

       Center              X                  Y                   Z               Mass
    ------------   -----------------  -----------------  -----------------  -----------------
         N            1.914209904485     0.032915091535     0.000271472108    14.003074004430
         C           -0.576283095515     0.531375091535     0.000272472108    12.000000000000
         C            0.549880904485    -0.502940908465     0.000269472108    12.000000000000
         C           -1.962653095515    -0.107629908465     0.000273472108    12.000000000000
         H           -0.463677095515     1.178675091535     0.879668472108     1.007825032230
         H           -0.463679095515     1.178678091535    -0.879120527892     1.007825032230
         H            0.448878904485    -1.152182908465    -0.877461527892     1.007825032230
         H            0.448877904485    -1.152192908465     0.877992472108     1.007825032230
         H           -2.101341095515    -0.737782908465    -0.883689527892     1.007825032230
         H           -2.101349095515    -0.737762908465     0.884249472108     1.007825032230
         H           -2.752433095515     0.648655091535     0.000261472108     1.007825032230
         H            2.034481404485     0.623844391535     0.797437272108     1.007825032230
         H            2.036878904485     0.635705091535    -0.812818527892     1.007825032230

  Basis Set: AUG-CC-PVTZ
    Blend: AUG-CC-PVTZ
  Basis Set: (AUG-CC-PVTZ AUX)
    Blend: AUG-CC-PVTZ-JKFIT
	 Reference Energy          =    -173.3538338171453574 [Eh]
	 Singles Energy            =      -0.0000000000000000 [Eh]
	 Same-Spin Energy          =      -0.1803523071801443 [Eh]
	 Opposite-Spin Energy      =      -0.6588955294737823 [Eh]
	 Correlation Energy        =      -0.8392478366539265 [Eh]
	 Total Energy              =    -174.1930816537992825 [Eh]

	 ================> DF-SCS-MP2 Energies <==================
	-----------------------------------------------------------
	 SCS Same-Spin Scale       =       0.3333333333333333 [-]
	 SCS Opposite-Spin Scale   =       1.2000000000000000 [-]
	 SCS Same-Spin Energy      =      -0.0601174357267148 [Eh]
	 SCS Opposite-Spin Energy  =      -0.7906746353685387 [Eh]
	 SCS Correlation Energy    =      -0.8507920710952535 [Eh]
	 SCS Total Energy          =    -174.2046258882405994 [Eh]
	-----------------------------------------------------------

  Dipole Moment: [D]
     X:    -1.0404      Y:     1.0554      Z:    -0.0028     Total:     1.4820

*** Psi4 exiting successfully. Buy a developer a beer!
