                               Psi4 1.3.2 release

  ==> Input File <==

--------------------------------------------------------------------------
#psi4
#
memory 32 gb

molecule  {
0 1
  N       -1.4165960    -0.6509490     0.0049700
  N        2.1271010     0.0145420    -0.1027660
  C        0.7124930     0.0023240    -0.0026130
  C       -0.1164160    -1.1090330     0.0084540
  C       -0.1198780     1.1527520    -0.0095160
  C       -1.4333080     0.7182450     0.0046470
  H        0.1118628    -2.1665371    -0.2453232
  H        0.2096300     2.1837040    -0.0328240
  H       -2.2355060    -1.2420580     0.0220170
  H       -2.3628750     1.2701830     0.0090050
  H        2.5185220    -0.8881070     0.1549510
  H        2.5267920     0.7112850     0.5209140
units angstrom
no_reorient  #important for SAPT in psi4, default
symmetry c1  #important for SAPT in psi4, default
}

set PROPERTIES_ORIGIN ["COM"]
properties('MP2/aug-cc-pvtz', properties = ['dipole'])
--------------------------------------------------------------------------

    Molecular point group: c1
  Charge       = 0
  Multiplicity = 1
  Basis Set: AUG-CC-PVTZ
    Blend: AUG-CC-PVTZ
  Basis Set: (AUG-CC-PVTZ AUX)
    Blend: AUG-CC-PVTZ-JKFIT

    Orbital Energies [Eh]
    ---------------------

    Doubly Occupied:

       1A    -15.601345     2A    -15.553124     3A    -11.257636
       4A    -11.249840     5A    -11.240268     6A    -11.205969
       7A     -1.286125     8A     -1.187040     9A     -1.020465
      10A     -0.963040    11A     -0.793458    12A     -0.751973
      13A     -0.728539    14A     -0.650936    15A     -0.604597
      16A     -0.579142    17A     -0.569179    18A     -0.555520
      19A     -0.516388    20A     -0.467184    21A     -0.323354
      22A     -0.280146

  @DF-RHF Final Energy:  -263.92940813758133

   => Energetics <=

    Nuclear Repulsion Energy =            222.2358206068639959
    One-Electron Energy =                -797.5599243196809311
    Two-Electron Energy =                 311.3946955752356303
    Total Energy =                       -263.9294081375813334
  Basis Set: (AUG-CC-PVTZ AUX)
    Blend: AUG-CC-PVTZ-RI
    Molecular point group: c1

    Geometry (in Angstrom), charge = 0, multiplicity = 1:

       Center              X                  Y                   Z               Mass
    ------------   -----------------  -----------------  -----------------  -----------------
         N           -1.407314020836    -0.652499731875     0.016251547472    14.003074004430
         N            2.136382979164     0.012991268125    -0.091484452528    14.003074004430
         C            0.721774979164     0.000773268125     0.008668547472    12.000000000000
         C           -0.107134020836    -1.110583731875     0.019735547472    12.000000000000
         C           -0.110596020836     1.151201268125     0.001765547472    12.000000000000
         C           -1.424026020836     0.716694268125     0.015928547472    12.000000000000
         H            0.121144779164    -2.168087831875    -0.234041652528     1.007825032230
         H            0.218911979164     2.182153268125    -0.021542452528     1.007825032230
         H           -2.226224020836    -1.243608731875     0.033298547472     1.007825032230
         H           -2.353593020836     1.268632268125     0.020286547472     1.007825032230
         H            2.527803979164    -0.889657731875     0.166232547472     1.007825032230
         H            2.536073979164     0.709734268125     0.532195547472     1.007825032230

  Basis Set: AUG-CC-PVTZ
    Blend: AUG-CC-PVTZ
  Basis Set: (AUG-CC-PVTZ AUX)
    Blend: AUG-CC-PVTZ-JKFIT
	 Reference Energy          =    -263.9294081375813334 [Eh]
	 Singles Energy            =      -0.0000000000000000 [Eh]
	 Same-Spin Energy          =      -0.2893038111141281 [Eh]
	 Opposite-Spin Energy      =      -0.8981491618900938 [Eh]
	 Correlation Energy        =      -1.1874529730042218 [Eh]
	 Total Energy              =    -265.1168611105855462 [Eh]

	 ================> DF-SCS-MP2 Energies <==================
	-----------------------------------------------------------
	 SCS Same-Spin Scale       =       0.3333333333333333 [-]
	 SCS Opposite-Spin Scale   =       1.2000000000000000 [-]
	 SCS Same-Spin Energy      =      -0.0964346037047094 [Eh]
	 SCS Opposite-Spin Energy  =      -1.0777789942681124 [Eh]
	 SCS Correlation Energy    =      -1.1742135979728219 [Eh]
	 SCS Total Energy          =    -265.1036217355541567 [Eh]
	-----------------------------------------------------------

  Dipole Moment: [D]
     X:    -1.0649      Y:    -1.1824      Z:     0.9428     Total:     1.8496

*** Psi4 exiting successfully. Buy a developer a beer!
