                               Psi4 1.3.2 release

  ==> Input File <==

--------------------------------------------------------------------------
#psi4
#
memory 32 gb

molecule  {
0 1
  N       -1.4165960    -0.6509490     0.0049700
  N        2.1271010     0.0145420    -0.1027660
  C        0.7124930     0.0023240    -0.0026130
  C       -0.1164160    -1.1090330     0.0084540
  C       -0.1198780     1.1527520    -0.0095160
  C       -1.4333080     0.7182450     0.0046470
  H        0.1125540    -2.1658880     0.0046750
  H        0.2096300     2.1837040    -0.0328240
  H       -2.2355060    -1.2420580     0.0220170
  H       -2.3628750     1.2701830     0.0090050
  H        2.5185220    -0.8881070     0.1549510
  H        2.5267920     0.7112850     0.5209140
units angstrom
no_reorient  #important for SAPT in psi4, default
symmetry c1  #important for SAPT in psi4, default
}

set PROPERTIES_ORIGIN ["COM"]
properties('MP2/aug-cc-pvtz', properties = ['dipole'])
--------------------------------------------------------------------------

    Molecular point group: c1
  Charge       = 0
  Multiplicity = 1
  Basis Set: AUG-CC-PVTZ
    Blend: AUG-CC-PVTZ
  Basis Set: (AUG-CC-PVTZ AUX)
    Blend: AUG-CC-PVTZ-JKFIT

    Orbital Energies [Eh]
    ---------------------

    Doubly Occupied:

       1A    -15.601434     2A    -15.552812     3A    -11.256289
       4A    -11.248543     5A    -11.238585     6A    -11.205338
       7A     -1.285866     8A     -1.186636     9A     -1.019915
      10A     -0.963934    11A     -0.793370    12A     -0.752985
      13A     -0.731497    14A     -0.651485    15A     -0.604279
      16A     -0.579927    17A     -0.568117    18A     -0.559067
      19A     -0.518533    20A     -0.466414    21A     -0.322961
      22A     -0.279434

  @DF-RHF Final Energy:  -263.93249838251700

   => Energetics <=

    Nuclear Repulsion Energy =            222.3461805538849489
    One-Electron Energy =                -797.7825165714297100
    Two-Electron Energy =                 311.5038376350278213
    Total Energy =                       -263.9324983825169966
  Basis Set: (AUG-CC-PVTZ AUX)
    Blend: AUG-CC-PVTZ-RI
    Molecular point group: c1

    Geometry (in Angstrom), charge = 0, multiplicity = 1:

       Center              X                  Y                   Z               Mass
    ------------   -----------------  -----------------  -----------------  -----------------
         N           -1.407322510566    -0.652507704507     0.013180920652    14.003074004430
         N            2.136374489434     0.012983295493    -0.094555079348    14.003074004430
         C            0.721766489434     0.000765295493     0.005597920652    12.000000000000
         C           -0.107142510566    -1.110591704507     0.016664920652    12.000000000000
         C           -0.110604510566     1.151193295493    -0.001305079348    12.000000000000
         C           -1.424034510566     0.716686295493     0.012857920652    12.000000000000
         H            0.121827489434    -2.167446704507     0.012885920652     1.007825032230
         H            0.218903489434     2.182145295493    -0.024613079348     1.007825032230
         H           -2.226232510566    -1.243616704507     0.030227920652     1.007825032230
         H           -2.353601510566     1.268624295493     0.017215920652     1.007825032230
         H            2.527795489434    -0.889665704507     0.163161920652     1.007825032230
         H            2.536065489434     0.709726295493     0.529124920652     1.007825032230

  Basis Set: AUG-CC-PVTZ
    Blend: AUG-CC-PVTZ
  Basis Set: (AUG-CC-PVTZ AUX)
    Blend: AUG-CC-PVTZ-JKFIT
	 Reference Energy          =    -263.9324983825169966 [Eh]
	 Singles Energy            =      -0.0000000000000000 [Eh]
	 Same-Spin Energy          =      -0.2891443899427811 [Eh]
	 Opposite-Spin Energy      =      -0.8977394395770011 [Eh]
	 Correlation Energy        =      -1.1868838295197821 [Eh]
	 Total Energy              =    -265.1193822120367827 [Eh]

	 ================> DF-SCS-MP2 Energies <==================
	-----------------------------------------------------------
	 SCS Same-Spin Scale       =       0.3333333333333333 [-]
	 SCS Opposite-Spin Scale   =       1.2000000000000000 [-]
	 SCS Same-Spin Energy      =      -0.0963814633142604 [Eh]
	 SCS Opposite-Spin Energy  =      -1.0772873274924013 [Eh]
	 SCS Correlation Energy    =      -1.1736687908066616 [Eh]
	 SCS Total Energy          =    -265.1061671733236835 [Eh]
	-----------------------------------------------------------

  Dipole Moment: [D]
     X:    -1.0577      Y:    -1.2550      Z:     1.1784     Total:     2.0205

*** Psi4 exiting successfully. Buy a developer a beer!
