                               Psi4 1.3.2 release

  ==> Input File <==

--------------------------------------------------------------------------
#psi4
#
memory 32 gb

molecule  {
0 1
  N       -1.4165960    -0.6509490     0.0049700
  N        2.1271010     0.0145420    -0.1027660
  C        0.7124930     0.0023240    -0.0026130
  C       -0.1164160    -1.1090330     0.0084540
  C       -0.1221536     1.1523517    -0.0594626
  C       -1.4333080     0.7182450     0.0046470
  H        0.1125540    -2.1658880     0.0046750
  H        0.2096300     2.1837040    -0.0328240
  H       -2.2355060    -1.2420580     0.0220170
  H       -2.3628750     1.2701830     0.0090050
  H        2.5185220    -0.8881070     0.1549510
  H        2.5267920     0.7112850     0.5209140
units angstrom
no_reorient  #important for SAPT in psi4, default
symmetry c1  #important for SAPT in psi4, default
}

set PROPERTIES_ORIGIN ["COM"]
properties('MP2/aug-cc-pvtz', properties = ['dipole'])
--------------------------------------------------------------------------

    Molecular point group: c1
  Charge       = 0
  Multiplicity = 1
  Basis Set: AUG-CC-PVTZ
    Blend: AUG-CC-PVTZ
  Basis Set: (AUG-CC-PVTZ AUX)
    Blend: AUG-CC-PVTZ-JKFIT

    Orbital Energies [Eh]
    ---------------------

    Doubly Occupied:

       1A    -15.601323     2A    -15.552757     3A    -11.256215
       4A    -11.248520     5A    -11.238842     6A    -11.205484
       7A     -1.285886     8A     -1.186507     9A     -1.019732
      10A     -0.964059    11A     -0.793007    12A     -0.752975
      13A     -0.731466    14A     -0.651443    15A     -0.603260
      16A     -0.579921    17A     -0.570414    18A     -0.557190
      19A     -0.518355    20A     -0.465789    21A     -0.323000
      22A     -0.279654

  @DF-RHF Final Energy:  -263.93185631551421

   => Energetics <=

    Nuclear Repulsion Energy =            222.3258635871086994
    One-Electron Energy =                -797.7438352756738595
    Two-Electron Energy =                 311.4861153730508931
    Total Energy =                       -263.9318563155142101
  Basis Set: (AUG-CC-PVTZ AUX)
    Blend: AUG-CC-PVTZ-RI
    Molecular point group: c1

    Geometry (in Angstrom), charge = 0, multiplicity = 1:

       Center              X                  Y                   Z               Mass
    ------------   -----------------  -----------------  -----------------  -----------------
         N           -1.406989711433    -0.652449161928     0.020485449221    14.003074004430
         N            2.136707288567     0.013041838072    -0.087250550779    14.003074004430
         C            0.722099288567     0.000823838072     0.012902449221    12.000000000000
         C           -0.106809711433    -1.110533161928     0.023969449221    12.000000000000
         C           -0.112547311433     1.150851538072    -0.043947150779    12.000000000000
         C           -1.423701711433     0.716744838072     0.020162449221    12.000000000000
         H            0.122160288567    -2.167388161928     0.020190449221     1.007825032230
         H            0.219236288567     2.182203838072    -0.017308550779     1.007825032230
         H           -2.225899711433    -1.243558161928     0.037532449221     1.007825032230
         H           -2.353268711433     1.268682838072     0.024520449221     1.007825032230
         H            2.528128288567    -0.889607161928     0.170466449221     1.007825032230
         H            2.536398288567     0.709784838072     0.536429449221     1.007825032230

  Basis Set: AUG-CC-PVTZ
    Blend: AUG-CC-PVTZ
  Basis Set: (AUG-CC-PVTZ AUX)
    Blend: AUG-CC-PVTZ-JKFIT
	 Reference Energy          =    -263.9318563155142101 [Eh]
	 Singles Energy            =      -0.0000000000000000 [Eh]
	 Same-Spin Energy          =      -0.2891472551154280 [Eh]
	 Opposite-Spin Energy      =      -0.8978002477720595 [Eh]
	 Correlation Energy        =      -1.1869475028874876 [Eh]
	 Total Energy              =    -265.1188038184017159 [Eh]

	 ================> DF-SCS-MP2 Energies <==================
	-----------------------------------------------------------
	 SCS Same-Spin Scale       =       0.3333333333333333 [-]
	 SCS Opposite-Spin Scale   =       1.2000000000000000 [-]
	 SCS Same-Spin Energy      =      -0.0963824183718093 [Eh]
	 SCS Opposite-Spin Energy  =      -1.0773602973264713 [Eh]
	 SCS Correlation Energy    =      -1.1737427156982807 [Eh]
	 SCS Total Energy          =    -265.1055990312124777 [Eh]
	-----------------------------------------------------------

  Dipole Moment: [D]
     X:    -1.0603      Y:    -1.2582      Z:     1.2334     Total:     2.0564

*** Psi4 exiting successfully. Buy a developer a beer!
