                               Psi4 1.3.2 release

  ==> Input File <==

--------------------------------------------------------------------------
#psi4
#
memory 32 gb

molecule  {
0 1
  N       -1.4165960    -0.6509490     0.0049700
  N        2.1271010     0.0145420    -0.1027660
  C        0.7124930     0.0023240    -0.0026130
  C       -0.1164160    -1.1090330     0.0084540
  C       -0.1198780     1.1527520    -0.0095160
  C       -1.4333080     0.7182450     0.0046470
  H        0.1121393    -2.1662774    -0.1453239
  H        0.2096300     2.1837040    -0.0328240
  H       -2.2355060    -1.2420580     0.0220170
  H       -2.3628750     1.2701830     0.0090050
  H        2.5185220    -0.8881070     0.1549510
  H        2.5267920     0.7112850     0.5209140
units angstrom
no_reorient  #important for SAPT in psi4, default
symmetry c1  #important for SAPT in psi4, default
}

set PROPERTIES_ORIGIN ["COM"]
properties('MP2/aug-cc-pvtz', properties = ['dipole'])
--------------------------------------------------------------------------

    Molecular point group: c1
  Charge       = 0
  Multiplicity = 1
  Basis Set: AUG-CC-PVTZ
    Blend: AUG-CC-PVTZ
  Basis Set: (AUG-CC-PVTZ AUX)
    Blend: AUG-CC-PVTZ-JKFIT

    Orbital Energies [Eh]
    ---------------------

    Doubly Occupied:

       1A    -15.601382     2A    -15.552855     3A    -11.256820
       4A    -11.249056     5A    -11.239179     6A    -11.205601
       7A     -1.285961     8A     -1.186749     9A     -1.020125
      10A     -0.963589    11A     -0.793391    12A     -0.752497
      13A     -0.730415    14A     -0.651189    15A     -0.604310
      16A     -0.579351    17A     -0.569386    18A     -0.557329
      19A     -0.517625    20A     -0.466786    21A     -0.323113
      22A     -0.279726

  @DF-RHF Final Energy:  -263.93149040335663

   => Energetics <=

    Nuclear Repulsion Energy =            222.3050388378559319
    One-Electron Energy =                -797.7001897449339367
    Two-Electron Energy =                 311.4636605037213712
    Total Energy =                       -263.9314904033566336
  Basis Set: (AUG-CC-PVTZ AUX)
    Blend: AUG-CC-PVTZ-RI
    Molecular point group: c1

    Geometry (in Angstrom), charge = 0, multiplicity = 1:

       Center              X                  Y                   Z               Mass
    ------------   -----------------  -----------------  -----------------  -----------------
         N           -1.407317416974    -0.652502921665     0.015023296498    14.003074004430
         N            2.136379583026     0.012988078335    -0.092712703502    14.003074004430
         C            0.721771583026     0.000770078335     0.007440296498    12.000000000000
         C           -0.107137416974    -1.110586921665     0.018507296498    12.000000000000
         C           -0.110599416974     1.151198078335     0.000537296498    12.000000000000
         C           -1.424029416974     0.716691078335     0.014700296498    12.000000000000
         H            0.121417883026    -2.167831321665    -0.135270603502     1.007825032230
         H            0.218908583026     2.182150078335    -0.022770703502     1.007825032230
         H           -2.226227416974    -1.243611921665     0.032070296498     1.007825032230
         H           -2.353596416974     1.268629078335     0.019058296498     1.007825032230
         H            2.527800583026    -0.889660921665     0.165004296498     1.007825032230
         H            2.536070583026     0.709731078335     0.530967296498     1.007825032230

  Basis Set: AUG-CC-PVTZ
    Blend: AUG-CC-PVTZ
  Basis Set: (AUG-CC-PVTZ AUX)
    Blend: AUG-CC-PVTZ-JKFIT
	 Reference Energy          =    -263.9314904033566336 [Eh]
	 Singles Energy            =      -0.0000000000000000 [Eh]
	 Same-Spin Energy          =      -0.2891960136906607 [Eh]
	 Opposite-Spin Energy      =      -0.8978693824609278 [Eh]
	 Correlation Energy        =      -1.1870653961515885 [Eh]
	 Total Energy              =    -265.1185557995082149 [Eh]

	 ================> DF-SCS-MP2 Energies <==================
	-----------------------------------------------------------
	 SCS Same-Spin Scale       =       0.3333333333333333 [-]
	 SCS Opposite-Spin Scale   =       1.2000000000000000 [-]
	 SCS Same-Spin Energy      =      -0.0963986712302202 [Eh]
	 SCS Opposite-Spin Energy  =      -1.0774432589531133 [Eh]
	 SCS Correlation Energy    =      -1.1738419301833336 [Eh]
	 SCS Total Energy          =    -265.1053323335399909 [Eh]
	-----------------------------------------------------------

  Dipole Moment: [D]
     X:    -1.0612      Y:    -1.2282      Z:     1.0348     Total:     1.9250

*** Psi4 exiting successfully. Buy a developer a beer!
