                               Psi4 1.3.2 release

  ==> Input File <==

--------------------------------------------------------------------------
#psi4
#
memory 32 gb

molecule  {
0 1
  N       -1.4165960    -0.6509490     0.0049700
  N        2.1271010     0.0145420    -0.1027660
  C        0.7124930     0.0023240    -0.0026130
  C       -0.1164160    -1.1090330     0.0084540
  C       -0.1198780     1.1527520    -0.0095160
  C       -1.4333080     0.7182450     0.0046470
  H        0.1117245    -2.1666669    -0.2953228
  H        0.2096300     2.1837040    -0.0328240
  H       -2.2355060    -1.2420580     0.0220170
  H       -2.3628750     1.2701830     0.0090050
  H        2.5185220    -0.8881070     0.1549510
  H        2.5267920     0.7112850     0.5209140
units angstrom
no_reorient  #important for SAPT in psi4, default
symmetry c1  #important for SAPT in psi4, default
}

set PROPERTIES_ORIGIN ["COM"]
properties('MP2/aug-cc-pvtz', properties = ['dipole'])
--------------------------------------------------------------------------

    Molecular point group: c1
  Charge       = 0
  Multiplicity = 1
  Basis Set: AUG-CC-PVTZ
    Blend: AUG-CC-PVTZ
  Basis Set: (AUG-CC-PVTZ AUX)
    Blend: AUG-CC-PVTZ-JKFIT

    Orbital Energies [Eh]
    ---------------------

    Doubly Occupied:

       1A    -15.601334     2A    -15.553324     3A    -11.258171
       4A    -11.250355     5A    -11.241012     6A    -11.206207
       7A     -1.286239     8A     -1.187245     9A     -1.020694
      10A     -0.962701    11A     -0.793517    12A     -0.751732
      13A     -0.727292    14A     -0.650800    15A     -0.604807
      16A     -0.579060    17A     -0.568949    18A     -0.554354
      19A     -0.515486    20A     -0.467424    21A     -0.323515
      22A     -0.280421

  @DF-RHF Final Energy:  -263.92780681371596

   => Energetics <=

    Nuclear Repulsion Energy =            222.1899144615393027
    One-Electron Energy =                -797.4661618069570750
    Two-Electron Energy =                 311.3484405317018400
    Total Energy =                       -263.9278068137159607
  Basis Set: (AUG-CC-PVTZ AUX)
    Blend: AUG-CC-PVTZ-RI
    Molecular point group: c1

    Geometry (in Angstrom), charge = 0, multiplicity = 1:

       Center              X                  Y                   Z               Mass
    ------------   -----------------  -----------------  -----------------  -----------------
         N           -1.407312322153    -0.652498137594     0.016865672345    14.003074004430
         N            2.136384677847     0.012992862406    -0.090870327655    14.003074004430
         C            0.721776677847     0.000774862406     0.009282672345    12.000000000000
         C           -0.107132322153    -1.110582137594     0.020349672345    12.000000000000
         C           -0.110594322153     1.151202862406     0.002379672345    12.000000000000
         C           -1.424024322153     0.716695862406     0.016542672345    12.000000000000
         H            0.121008177847    -2.168216037594    -0.283427127655     1.007825032230
         H            0.218913677847     2.182154862406    -0.020928327655     1.007825032230
         H           -2.226222322153    -1.243607137594     0.033912672345     1.007825032230
         H           -2.353591322153     1.268633862406     0.020900672345     1.007825032230
         H            2.527805677847    -0.889656137594     0.166846672345     1.007825032230
         H            2.536075677847     0.709735862406     0.532809672345     1.007825032230

  Basis Set: AUG-CC-PVTZ
    Blend: AUG-CC-PVTZ
  Basis Set: (AUG-CC-PVTZ AUX)
    Blend: AUG-CC-PVTZ-JKFIT
	 Reference Energy          =    -263.9278068137159607 [Eh]
	 Singles Energy            =      -0.0000000000000000 [Eh]
	 Same-Spin Energy          =      -0.2893774950307163 [Eh]
	 Opposite-Spin Energy      =      -0.8983497690733966 [Eh]
	 Correlation Energy        =      -1.1877272641041130 [Eh]
	 Total Energy              =    -265.1155340778200866 [Eh]

	 ================> DF-SCS-MP2 Energies <==================
	-----------------------------------------------------------
	 SCS Same-Spin Scale       =       0.3333333333333333 [-]
	 SCS Opposite-Spin Scale   =       1.2000000000000000 [-]
	 SCS Same-Spin Energy      =      -0.0964591650102388 [Eh]
	 SCS Opposite-Spin Energy  =      -1.0780197228880759 [Eh]
	 SCS Correlation Energy    =      -1.1744788878983146 [Eh]
	 SCS Total Energy          =    -265.1022857016142780 [Eh]
	-----------------------------------------------------------

  Dipole Moment: [D]
     X:    -1.0674      Y:    -1.1520      Z:     0.8986     Total:     1.8094

*** Psi4 exiting successfully. Buy a developer a beer!
