                               Psi4 1.3.2 release

  ==> Input File <==

--------------------------------------------------------------------------
#psi4
#
memory 32 gb

molecule  {
0 1
  N       -1.4165960    -0.6509490     0.0049700
  N        2.1271010     0.0145420    -0.1027660
  C        0.7124930     0.0023240    -0.0026130
  C       -0.1164160    -1.1090330     0.0084540
  C       -0.1267047     1.1515511    -0.1593558
  C       -1.4333080     0.7182450     0.0046470
  H        0.1125540    -2.1658880     0.0046750
  H        0.2096300     2.1837040    -0.0328240
  H       -2.2355060    -1.2420580     0.0220170
  H       -2.3628750     1.2701830     0.0090050
  H        2.5185220    -0.8881070     0.1549510
  H        2.5267920     0.7112850     0.5209140
units angstrom
no_reorient  #important for SAPT in psi4, default
symmetry c1  #important for SAPT in psi4, default
}

set PROPERTIES_ORIGIN ["COM"]
properties('MP2/aug-cc-pvtz', properties = ['dipole'])
--------------------------------------------------------------------------

    Molecular point group: c1
  Charge       = 0
  Multiplicity = 1
  Basis Set: AUG-CC-PVTZ
    Blend: AUG-CC-PVTZ
  Basis Set: (AUG-CC-PVTZ AUX)
    Blend: AUG-CC-PVTZ-JKFIT

    Orbital Energies [Eh]
    ---------------------

    Doubly Occupied:

       1A    -15.601951     2A    -15.552783     3A    -11.257877
       4A    -11.249415     5A    -11.239535     6A    -11.207044
       7A     -1.286238     8A     -1.186367     9A     -1.018408
      10A     -0.964482    11A     -0.791690    12A     -0.752534
      13A     -0.731467    14A     -0.651474    15A     -0.601270
      16A     -0.580153    17A     -0.574118    18A     -0.551443
      19A     -0.516341    20A     -0.464010    21A     -0.323303
      22A     -0.280110

  @DF-RHF Final Energy:  -263.92658256767396

   => Energetics <=

    Nuclear Repulsion Energy =            222.1213850888705394
    One-Electron Energy =                -797.3319052466395078
    Two-Electron Energy =                 311.2839375900950358
    Total Energy =                       -263.9265825676739610
  Basis Set: (AUG-CC-PVTZ AUX)
    Blend: AUG-CC-PVTZ-RI
    Molecular point group: c1

    Geometry (in Angstrom), charge = 0, multiplicity = 1:

       Center              X                  Y                   Z               Mass
    ------------   -----------------  -----------------  -----------------  -----------------
         N           -1.406324127790    -0.652332076770     0.035094506360    14.003074004430
         N            2.137372872210     0.013158923230    -0.072641493640    14.003074004430
         C            0.722764872210     0.000940923230     0.027511506360    12.000000000000
         C           -0.106144127790    -1.110416076770     0.038578506360    12.000000000000
         C           -0.116432827790     1.150168023230    -0.129231293640    12.000000000000
         C           -1.423036127790     0.716861923230     0.034771506360    12.000000000000
         H            0.122825872210    -2.167271076770     0.034799506360     1.007825032230
         H            0.219901872210     2.182320923230    -0.002699493640     1.007825032230
         H           -2.225234127790    -1.243441076770     0.052141506360     1.007825032230
         H           -2.352603127790     1.268799923230     0.039129506360     1.007825032230
         H            2.528793872210    -0.889490076770     0.185075506360     1.007825032230
         H            2.537063872210     0.709901923230     0.551038506360     1.007825032230

  Basis Set: AUG-CC-PVTZ
    Blend: AUG-CC-PVTZ
  Basis Set: (AUG-CC-PVTZ AUX)
    Blend: AUG-CC-PVTZ-JKFIT
	 Reference Energy          =    -263.9265825676739610 [Eh]
	 Singles Energy            =      -0.0000000000000000 [Eh]
	 Same-Spin Energy          =      -0.2893451657963912 [Eh]
	 Opposite-Spin Energy      =      -0.8984902366016205 [Eh]
	 Correlation Energy        =      -1.1878354023980118 [Eh]
	 Total Energy              =    -265.1144179700719974 [Eh]

	 ================> DF-SCS-MP2 Energies <==================
	-----------------------------------------------------------
	 SCS Same-Spin Scale       =       0.3333333333333333 [-]
	 SCS Opposite-Spin Scale   =       1.2000000000000000 [-]
	 SCS Same-Spin Energy      =      -0.0964483885987971 [Eh]
	 SCS Opposite-Spin Energy  =      -1.0781882839219445 [Eh]
	 SCS Correlation Energy    =      -1.1746366725207416 [Eh]
	 SCS Total Energy          =    -265.1012192401947232 [Eh]
	-----------------------------------------------------------

  Dipole Moment: [D]
     X:    -1.0732      Y:    -1.3050      Z:     1.3435     Total:     2.1587

*** Psi4 exiting successfully. Buy a developer a beer!
