                               Psi4 1.3.2 release

  ==> Input File <==

--------------------------------------------------------------------------
#psi4
#
memory 32 gb

molecule  {
0 1
  N       -1.4165960    -0.6509490     0.0049700
  N        2.1271010     0.0145420    -0.1027660
  C        0.7124930     0.0023240    -0.0026130
  C       -0.1164160    -1.1090330     0.0084540
  C       -0.1198780     1.1527520    -0.0095160
  C       -1.4333080     0.7182450     0.0046470
  H        0.1125540    -2.1658880     0.0046750
  H        0.2083296     2.1813271    -0.1827995
  H       -2.2355060    -1.2420580     0.0220170
  H       -2.3628750     1.2701830     0.0090050
  H        2.5185220    -0.8881070     0.1549510
  H        2.5267920     0.7112850     0.5209140
units angstrom
no_reorient  #important for SAPT in psi4, default
symmetry c1  #important for SAPT in psi4, default
}

set PROPERTIES_ORIGIN ["COM"]
properties('MP2/aug-cc-pvtz', properties = ['dipole'])
--------------------------------------------------------------------------

    Molecular point group: c1
  Charge       = 0
  Multiplicity = 1
  Basis Set: AUG-CC-PVTZ
    Blend: AUG-CC-PVTZ
  Basis Set: (AUG-CC-PVTZ AUX)
    Blend: AUG-CC-PVTZ-JKFIT

    Orbital Energies [Eh]
    ---------------------

    Doubly Occupied:

       1A    -15.601855     2A    -15.552803     3A    -11.256750
       4A    -11.248753     5A    -11.238675     6A    -11.206065
       7A     -1.286172     8A     -1.186651     9A     -1.019822
      10A     -0.964070    11A     -0.792763    12A     -0.752365
      13A     -0.731487    14A     -0.651540    15A     -0.605010
      16A     -0.579823    17A     -0.565718    18A     -0.558738
      19A     -0.518164    20A     -0.466691    21A     -0.322821
      22A     -0.279608

  @DF-RHF Final Energy:  -263.93125911899187

   => Energetics <=

    Nuclear Repulsion Energy =            222.3060965140065264
    One-Electron Energy =                -797.7020261957519551
    Two-Electron Energy =                 311.4646705627535539
    Total Energy =                       -263.9312591189918749
  Basis Set: (AUG-CC-PVTZ AUX)
    Blend: AUG-CC-PVTZ-RI
    Molecular point group: c1

    Geometry (in Angstrom), charge = 0, multiplicity = 1:

       Center              X                  Y                   Z               Mass
    ------------   -----------------  -----------------  -----------------  -----------------
         N           -1.407306538279    -0.652478510006     0.015023009086    14.003074004430
         N            2.136390461721     0.013012489994    -0.092712990914    14.003074004430
         C            0.721782461721     0.000794489994     0.007440009086    12.000000000000
         C           -0.107126538279    -1.110562510006     0.018507009086    12.000000000000
         C           -0.110588538279     1.151222489994     0.000537009086    12.000000000000
         C           -1.424018538279     0.716715489994     0.014700009086    12.000000000000
         H            0.121843461721    -2.167417510006     0.014728009086     1.007825032230
         H            0.217619061721     2.179797589994    -0.172746490914     1.007825032230
         H           -2.226216538279    -1.243587510006     0.032070009086     1.007825032230
         H           -2.353585538279     1.268653489994     0.019058009086     1.007825032230
         H            2.527811461721    -0.889636510006     0.165004009086     1.007825032230
         H            2.536081461721     0.709755489994     0.530967009086     1.007825032230

  Basis Set: AUG-CC-PVTZ
    Blend: AUG-CC-PVTZ
  Basis Set: (AUG-CC-PVTZ AUX)
    Blend: AUG-CC-PVTZ-JKFIT
	 Reference Energy          =    -263.9312591189918749 [Eh]
	 Singles Energy            =      -0.0000000000000000 [Eh]
	 Same-Spin Energy          =      -0.2892192364794557 [Eh]
	 Opposite-Spin Energy      =      -0.8978867183738606 [Eh]
	 Correlation Energy        =      -1.1871059548533163 [Eh]
	 Total Energy              =    -265.1183650738452116 [Eh]

	 ================> DF-SCS-MP2 Energies <==================
	-----------------------------------------------------------
	 SCS Same-Spin Scale       =       0.3333333333333333 [-]
	 SCS Opposite-Spin Scale   =       1.2000000000000000 [-]
	 SCS Same-Spin Energy      =      -0.0964064121598186 [Eh]
	 SCS Opposite-Spin Energy  =      -1.0774640620486327 [Eh]
	 SCS Correlation Energy    =      -1.1738704742084511 [Eh]
	 SCS Total Energy          =    -265.1051295932003313 [Eh]
	-----------------------------------------------------------

  Dipole Moment: [D]
     X:    -1.0673      Y:    -1.2818      Z:     1.0537     Total:     1.9729

*** Psi4 exiting successfully. Buy a developer a beer!
