                               Psi4 1.3.2 release

  ==> Input File <==

--------------------------------------------------------------------------
#psi4
#
memory 32 gb

molecule  {
0 1
  N       -1.4165960    -0.6509490     0.0049700
  N        2.1271010     0.0145420    -0.1027660
  C        0.7124930     0.0023240    -0.0026130
  C       -0.1164160    -1.1090330     0.0084540
  C       -0.1312558     1.1507504    -0.2592489
  C       -1.4333080     0.7182450     0.0046470
  H        0.1125540    -2.1658880     0.0046750
  H        0.2096300     2.1837040    -0.0328240
  H       -2.2355060    -1.2420580     0.0220170
  H       -2.3628750     1.2701830     0.0090050
  H        2.5185220    -0.8881070     0.1549510
  H        2.5267920     0.7112850     0.5209140
units angstrom
no_reorient  #important for SAPT in psi4, default
symmetry c1  #important for SAPT in psi4, default
}

set PROPERTIES_ORIGIN ["COM"]
properties('MP2/aug-cc-pvtz', properties = ['dipole'])
--------------------------------------------------------------------------

    Molecular point group: c1
  Charge       = 0
  Multiplicity = 1
  Basis Set: AUG-CC-PVTZ
    Blend: AUG-CC-PVTZ
  Basis Set: (AUG-CC-PVTZ AUX)
    Blend: AUG-CC-PVTZ-JKFIT

    Orbital Energies [Eh]
    ---------------------

    Doubly Occupied:

       1A    -15.603737     2A    -15.552991     3A    -11.261861
       4A    -11.251460     5A    -11.240495     6A    -11.210249
       7A     -1.287042     8A     -1.186384     9A     -1.015801
      10A     -0.965156    11A     -0.789733    12A     -0.751733
      13A     -0.731596    14A     -0.651676    15A     -0.599672
      16A     -0.581254    17A     -0.575899    18A     -0.543373
      19A     -0.511966    20A     -0.461402    21A     -0.324012
      22A     -0.280605

  @DF-RHF Final Energy:  -263.91581590786194

   => Energetics <=

    Nuclear Repulsion Energy =            221.7061169360711403
    One-Electron Energy =                -796.4876778059309572
    Two-Electron Energy =                 310.8657449619979047
    Total Energy =                       -263.9158159078619406
  Basis Set: (AUG-CC-PVTZ AUX)
    Blend: AUG-CC-PVTZ-RI
    Molecular point group: c1

    Geometry (in Angstrom), charge = 0, multiplicity = 1:

       Center              X                  Y                   Z               Mass
    ------------   -----------------  -----------------  -----------------  -----------------
         N           -1.405658544147    -0.652214976987     0.049703548873    14.003074004430
         N            2.138038455853     0.013276023013    -0.058032451127    14.003074004430
         C            0.723430455853     0.001058023013     0.042120548873    12.000000000000
         C           -0.105478544147    -1.110298976987     0.053187548873    12.000000000000
         C           -0.120318344147     1.149484423013    -0.214515351127    12.000000000000
         C           -1.422370544147     0.716979023013     0.049380548873    12.000000000000
         H            0.123491455853    -2.167153976987     0.049408548873     1.007825032230
         H            0.220567455853     2.182438023013     0.011909548873     1.007825032230
         H           -2.224568544147    -1.243323976987     0.066750548873     1.007825032230
         H           -2.351937544147     1.268917023013     0.053738548873     1.007825032230
         H            2.529459455853    -0.889372976987     0.199684548873     1.007825032230
         H            2.537729455853     0.710019023013     0.565647548873     1.007825032230

  Basis Set: AUG-CC-PVTZ
    Blend: AUG-CC-PVTZ
  Basis Set: (AUG-CC-PVTZ AUX)
    Blend: AUG-CC-PVTZ-JKFIT
	 Reference Energy          =    -263.9158159078619406 [Eh]
	 Singles Energy            =      -0.0000000000000000 [Eh]
	 Same-Spin Energy          =      -0.2897921119999609 [Eh]
	 Opposite-Spin Energy      =      -0.9000208077503800 [Eh]
	 Correlation Energy        =      -1.1898129197503409 [Eh]
	 Total Energy              =    -265.1056288276122928 [Eh]

	 ================> DF-SCS-MP2 Energies <==================
	-----------------------------------------------------------
	 SCS Same-Spin Scale       =       0.3333333333333333 [-]
	 SCS Opposite-Spin Scale   =       1.2000000000000000 [-]
	 SCS Same-Spin Energy      =      -0.0965973706666536 [Eh]
	 SCS Opposite-Spin Energy  =      -1.0800249693004560 [Eh]
	 SCS Correlation Energy    =      -1.1766223399671096 [Eh]
	 SCS Total Energy          =    -265.0924382478290227 [Eh]
	-----------------------------------------------------------

  Dipole Moment: [D]
     X:    -1.0955      Y:    -1.4031      Z:     1.4555     Total:     2.2994

*** Psi4 exiting successfully. Buy a developer a beer!
