                               Psi4 1.3.2 release

  ==> Input File <==

--------------------------------------------------------------------------
#psi4
#
memory 32 gb

molecule  {
0 1
  N       -1.4165960    -0.6509490     0.0049700
  N        2.1271010     0.0145420    -0.1027660
  C        0.7124930     0.0023240    -0.0026130
  C       -0.1164160    -1.1090330     0.0084540
  C       -0.1289803     1.1511508    -0.2093023
  C       -1.4333080     0.7182450     0.0046470
  H        0.1125540    -2.1658880     0.0046750
  H        0.2096300     2.1837040    -0.0328240
  H       -2.2355060    -1.2420580     0.0220170
  H       -2.3628750     1.2701830     0.0090050
  H        2.5185220    -0.8881070     0.1549510
  H        2.5267920     0.7112850     0.5209140
units angstrom
no_reorient  #important for SAPT in psi4, default
symmetry c1  #important for SAPT in psi4, default
}

set PROPERTIES_ORIGIN ["COM"]
properties('MP2/aug-cc-pvtz', properties = ['dipole'])
--------------------------------------------------------------------------

    Molecular point group: c1
  Charge       = 0
  Multiplicity = 1
  Basis Set: AUG-CC-PVTZ
    Blend: AUG-CC-PVTZ
  Basis Set: (AUG-CC-PVTZ AUX)
    Blend: AUG-CC-PVTZ-JKFIT

    Orbital Energies [Eh]
    ---------------------

    Doubly Occupied:

       1A    -15.602698     2A    -15.552864     3A    -11.259590
       4A    -11.250306     5A    -11.239980     6A    -11.208447
       7A     -1.286581     8A     -1.186357     9A     -1.017265
      10A     -0.964786    11A     -0.790776    12A     -0.752158
      13A     -0.731513    14A     -0.651553    15A     -0.600400
      16A     -0.580531    17A     -0.575295    18A     -0.547689
      19A     -0.514464    20A     -0.462823    21A     -0.323596
      22A     -0.280351

  @DF-RHF Final Energy:  -263.92190214298955

   => Energetics <=

    Nuclear Repulsion Energy =            221.9392687778465643
    One-Electron Energy =                -796.9623006831793646
    Two-Electron Energy =                 311.1011297623432483
    Total Energy =                       -263.9219021429895520
  Basis Set: (AUG-CC-PVTZ AUX)
    Blend: AUG-CC-PVTZ-RI
    Molecular point group: c1

    Geometry (in Angstrom), charge = 0, multiplicity = 1:

       Center              X                  Y                   Z               Mass
    ------------   -----------------  -----------------  -----------------  -----------------
         N           -1.405991328656    -0.652273534191     0.042399020304    14.003074004430
         N            2.137705671344     0.013217465809    -0.065336979696    14.003074004430
         C            0.723097671344     0.000999465809     0.034816020304    12.000000000000
         C           -0.105811328656    -1.110357534191     0.045883020304    12.000000000000
         C           -0.118375628656     1.149826265809    -0.171873279696    12.000000000000
         C           -1.422703328656     0.716920465809     0.042076020304    12.000000000000
         H            0.123158671344    -2.167212534191     0.042104020304     1.007825032230
         H            0.220234671344     2.182379465809     0.004605020304     1.007825032230
         H           -2.224901328656    -1.243382534191     0.059446020304     1.007825032230
         H           -2.352270328656     1.268858465809     0.046434020304     1.007825032230
         H            2.529126671344    -0.889431534191     0.192380020304     1.007825032230
         H            2.537396671344     0.709960465809     0.558343020304     1.007825032230

  Basis Set: AUG-CC-PVTZ
    Blend: AUG-CC-PVTZ
  Basis Set: (AUG-CC-PVTZ AUX)
    Blend: AUG-CC-PVTZ-JKFIT
	 Reference Energy          =    -263.9219021429895520 [Eh]
	 Singles Energy            =      -0.0000000000000000 [Eh]
	 Same-Spin Energy          =      -0.2895386006525066 [Eh]
	 Opposite-Spin Energy      =      -0.8991506140628072 [Eh]
	 Correlation Energy        =      -1.1886892147153136 [Eh]
	 Total Energy              =    -265.1105913577048909 [Eh]

	 ================> DF-SCS-MP2 Energies <==================
	-----------------------------------------------------------
	 SCS Same-Spin Scale       =       0.3333333333333333 [-]
	 SCS Opposite-Spin Scale   =       1.2000000000000000 [-]
	 SCS Same-Spin Energy      =      -0.0965128668841689 [Eh]
	 SCS Opposite-Spin Energy  =      -1.0789807368753686 [Eh]
	 SCS Correlation Energy    =      -1.1754936037595374 [Eh]
	 SCS Total Energy          =    -265.0973957467491005 [Eh]
	-----------------------------------------------------------

  Dipole Moment: [D]
     X:    -1.0833      Y:    -1.3479      Z:     1.3992     Total:     2.2245

*** Psi4 exiting successfully. Buy a developer a beer!
