                               Psi4 1.3.2 release

  ==> Input File <==

--------------------------------------------------------------------------
#psi4
#
memory 32 gb

molecule  {
0 1
  N       -1.4165960    -0.6509490     0.0049700
  N        2.1271010     0.0145420    -0.1027660
  C        0.7124930     0.0023240    -0.0026130
  C       -0.1164160    -1.1090330     0.0084540
  C       -0.1198780     1.1527520    -0.0095160
  C       -1.4333080     0.7182450     0.0046470
  H        0.1120010    -2.1664072    -0.1953236
  H        0.2096300     2.1837040    -0.0328240
  H       -2.2355060    -1.2420580     0.0220170
  H       -2.3628750     1.2701830     0.0090050
  H        2.5185220    -0.8881070     0.1549510
  H        2.5267920     0.7112850     0.5209140
units angstrom
no_reorient  #important for SAPT in psi4, default
symmetry c1  #important for SAPT in psi4, default
}

set PROPERTIES_ORIGIN ["COM"]
properties('MP2/aug-cc-pvtz', properties = ['dipole'])
--------------------------------------------------------------------------

    Molecular point group: c1
  Charge       = 0
  Multiplicity = 1
  Basis Set: AUG-CC-PVTZ
    Blend: AUG-CC-PVTZ
  Basis Set: (AUG-CC-PVTZ AUX)
    Blend: AUG-CC-PVTZ-JKFIT

    Orbital Energies [Eh]
    ---------------------

    Doubly Occupied:

       1A    -15.601362     2A    -15.552966     3A    -11.257184
       4A    -11.249406     5A    -11.239656     6A    -11.205766
       7A     -1.286032     8A     -1.186874     9A     -1.020275
      10A     -0.963340    11A     -0.793417    12A     -0.752237
      13A     -0.729587    14A     -0.651066    15A     -0.604429
      16A     -0.579233    17A     -0.569349    18A     -0.556507
      19A     -0.517087    20A     -0.466971    21A     -0.323220
      22A     -0.279914

  @DF-RHF Final Energy:  -263.93061883426293

   => Energetics <=

    Nuclear Repulsion Energy =            222.2743632734868982
    One-Electron Energy =                -797.6382050105829649
    Two-Electron Energy =                 311.4332229028331653
    Total Energy =                       -263.9306188342629298
  Basis Set: (AUG-CC-PVTZ AUX)
    Blend: AUG-CC-PVTZ-RI
    Molecular point group: c1

    Geometry (in Angstrom), charge = 0, multiplicity = 1:

       Center              X                  Y                   Z               Mass
    ------------   -----------------  -----------------  -----------------  -----------------
         N           -1.407315718291    -0.652501327384     0.015637422599    14.003074004430
         N            2.136381281709     0.012989672616    -0.092098577401    14.003074004430
         C            0.721773281709     0.000771672616     0.008054422599    12.000000000000
         C           -0.107135718291    -1.110585327384     0.019121422599    12.000000000000
         C           -0.110597718291     1.151199672616     0.001151422599    12.000000000000
         C           -1.424027718291     0.716692672616     0.015314422599    12.000000000000
         H            0.121281281709    -2.167959527384    -0.184656177401     1.007825032230
         H            0.218910281709     2.182151672616    -0.022156577401     1.007825032230
         H           -2.226225718291    -1.243610327384     0.032684422599     1.007825032230
         H           -2.353594718291     1.268630672616     0.019672422599     1.007825032230
         H            2.527802281709    -0.889659327384     0.165618422599     1.007825032230
         H            2.536072281709     0.709732672616     0.531581422599     1.007825032230

  Basis Set: AUG-CC-PVTZ
    Blend: AUG-CC-PVTZ
  Basis Set: (AUG-CC-PVTZ AUX)
    Blend: AUG-CC-PVTZ-JKFIT
	 Reference Energy          =    -263.9306188342629298 [Eh]
	 Singles Energy            =      -0.0000000000000000 [Eh]
	 Same-Spin Energy          =      -0.2892430005182321 [Eh]
	 Opposite-Spin Energy      =      -0.8979890779036437 [Eh]
	 Correlation Energy        =      -1.1872320784218757 [Eh]
	 Total Energy              =    -265.1178509126847871 [Eh]

	 ================> DF-SCS-MP2 Energies <==================
	-----------------------------------------------------------
	 SCS Same-Spin Scale       =       0.3333333333333333 [-]
	 SCS Opposite-Spin Scale   =       1.2000000000000000 [-]
	 SCS Same-Spin Energy      =      -0.0964143335060774 [Eh]
	 SCS Opposite-Spin Energy  =      -1.0775868934843724 [Eh]
	 SCS Correlation Energy    =      -1.1740012269904498 [Eh]
	 SCS Total Energy          =    -265.1046200612533994 [Eh]
	-----------------------------------------------------------

  Dipole Moment: [D]
     X:    -1.0629      Y:    -1.2079      Z:     0.9883     Total:     1.8883

*** Psi4 exiting successfully. Buy a developer a beer!
