                               Psi4 1.3.2 release

  ==> Input File <==

--------------------------------------------------------------------------
#psi4
#
memory 32 gb

molecule  {
0 1
  N       -1.4165960    -0.6509490     0.0049700
  N        2.1271010     0.0145420    -0.1027660
  C        0.7124930     0.0023240    -0.0026130
  C       -0.1164160    -1.1090330     0.0084540
  C       -0.1198780     1.1527520    -0.0095160
  C       -1.4333080     0.7182450     0.0046470
  H        0.1125540    -2.1658880     0.0046750
  H        0.2087630     2.1821194    -0.1328077
  H       -2.2355060    -1.2420580     0.0220170
  H       -2.3628750     1.2701830     0.0090050
  H        2.5185220    -0.8881070     0.1549510
  H        2.5267920     0.7112850     0.5209140
units angstrom
no_reorient  #important for SAPT in psi4, default
symmetry c1  #important for SAPT in psi4, default
}

set PROPERTIES_ORIGIN ["COM"]
properties('MP2/aug-cc-pvtz', properties = ['dipole'])
--------------------------------------------------------------------------

    Molecular point group: c1
  Charge       = 0
  Multiplicity = 1
  Basis Set: AUG-CC-PVTZ
    Blend: AUG-CC-PVTZ
  Basis Set: (AUG-CC-PVTZ AUX)
    Blend: AUG-CC-PVTZ-JKFIT

    Orbital Energies [Eh]
    ---------------------

    Doubly Occupied:

       1A    -15.601651     2A    -15.552795     3A    -11.256514
       4A    -11.248649     5A    -11.238622     6A    -11.205637
       7A     -1.286017     8A     -1.186634     9A     -1.019869
      10A     -0.963998    11A     -0.793078    12A     -0.752668
      13A     -0.731502    14A     -0.651518    15A     -0.604810
      16A     -0.579829    17A     -0.566163    18A     -0.559541
      19A     -0.518398    20A     -0.466591    21A     -0.322870
      22A     -0.279522

  @DF-RHF Final Energy:  -263.93195718044285

   => Energetics <=

    Nuclear Repulsion Energy =            222.3279883133782562
    One-Electron Energy =                -797.7461363126454899
    Two-Electron Energy =                 311.4861908188244115
    Total Energy =                       -263.9319571804428506
  Basis Set: (AUG-CC-PVTZ AUX)
    Blend: AUG-CC-PVTZ-RI
    Molecular point group: c1

    Geometry (in Angstrom), charge = 0, multiplicity = 1:

       Center              X                  Y                   Z               Mass
    ------------   -----------------  -----------------  -----------------  -----------------
         N           -1.407311861556    -0.652488241506     0.014408980017    14.003074004430
         N            2.136385138444     0.013002758494    -0.093327019983    14.003074004430
         C            0.721777138444     0.000784758494     0.006825980017    12.000000000000
         C           -0.107131861556    -1.110572241506     0.017892980017    12.000000000000
         C           -0.110593861556     1.151212758494    -0.000077019983    12.000000000000
         C           -1.424023861556     0.716705758494     0.014085980017    12.000000000000
         H            0.121838138444    -2.167427241506     0.014113980017     1.007825032230
         H            0.218047138444     2.180580158494    -0.123368719983     1.007825032230
         H           -2.226221861556    -1.243597241506     0.031455980017     1.007825032230
         H           -2.353590861556     1.268643758494     0.018443980017     1.007825032230
         H            2.527806138444    -0.889646241506     0.164389980017     1.007825032230
         H            2.536076138444     0.709745758494     0.530352980017     1.007825032230

  Basis Set: AUG-CC-PVTZ
    Blend: AUG-CC-PVTZ
  Basis Set: (AUG-CC-PVTZ AUX)
    Blend: AUG-CC-PVTZ-JKFIT
	 Reference Energy          =    -263.9319571804428506 [Eh]
	 Singles Energy            =      -0.0000000000000000 [Eh]
	 Same-Spin Energy          =      -0.2891805485554444 [Eh]
	 Opposite-Spin Energy      =      -0.8978052910930983 [Eh]
	 Correlation Energy        =      -1.1869858396485427 [Eh]
	 Total Energy              =    -265.1189430200913648 [Eh]

	 ================> DF-SCS-MP2 Energies <==================
	-----------------------------------------------------------
	 SCS Same-Spin Scale       =       0.3333333333333333 [-]
	 SCS Opposite-Spin Scale   =       1.2000000000000000 [-]
	 SCS Same-Spin Energy      =      -0.0963935161851481 [Eh]
	 SCS Opposite-Spin Energy  =      -1.0773663493117178 [Eh]
	 SCS Correlation Energy    =      -1.1737598654968660 [Eh]
	 SCS Total Energy          =    -265.1057170459397412 [Eh]
	-----------------------------------------------------------

  Dipole Moment: [D]
     X:    -1.0628      Y:    -1.2684      Z:     1.0949     Total:     1.9842

*** Psi4 exiting successfully. Buy a developer a beer!
