                               Psi4 1.3.2 release

  ==> Input File <==

--------------------------------------------------------------------------
#psi4
#
memory 32 gb

molecule  {
0 1
  N       -1.4165960    -0.6509490     0.0049700
  N        2.1271010     0.0145420    -0.1027660
  C        0.7124930     0.0023240    -0.0026130
  C       -0.1164160    -1.1090330     0.0084540
  C       -0.1244291     1.1519514    -0.1094092
  C       -1.4333080     0.7182450     0.0046470
  H        0.1125540    -2.1658880     0.0046750
  H        0.2096300     2.1837040    -0.0328240
  H       -2.2355060    -1.2420580     0.0220170
  H       -2.3628750     1.2701830     0.0090050
  H        2.5185220    -0.8881070     0.1549510
  H        2.5267920     0.7112850     0.5209140
units angstrom
no_reorient  #important for SAPT in psi4, default
symmetry c1  #important for SAPT in psi4, default
}

set PROPERTIES_ORIGIN ["COM"]
properties('MP2/aug-cc-pvtz', properties = ['dipole'])
--------------------------------------------------------------------------

    Molecular point group: c1
  Charge       = 0
  Multiplicity = 1
  Basis Set: AUG-CC-PVTZ
    Blend: AUG-CC-PVTZ
  Basis Set: (AUG-CC-PVTZ AUX)
    Blend: AUG-CC-PVTZ-JKFIT

    Orbital Energies [Eh]
    ---------------------

    Doubly Occupied:

       1A    -15.601494     2A    -15.552747     3A    -11.256747
       4A    -11.248814     5A    -11.239158     6A    -11.206054
       7A     -1.286008     8A     -1.186417     9A     -1.019230
      10A     -0.964241    11A     -0.792442    12A     -0.752817
      13A     -0.731454    14A     -0.651438    15A     -0.602240
      16A     -0.579984    17A     -0.572460    18A     -0.554616
      19A     -0.517630    20A     -0.464992    21A     -0.323110
      22A     -0.279879

  @DF-RHF Final Energy:  -263.92989092257073

   => Energetics <=

    Nuclear Repulsion Energy =            222.2506802461062136
    One-Electron Energy =                -797.5931974808351015
    Two-Electron Energy =                 311.4126263121581815
    Total Energy =                       -263.9298909225707348
  Basis Set: (AUG-CC-PVTZ AUX)
    Blend: AUG-CC-PVTZ-RI
    Molecular point group: c1

    Geometry (in Angstrom), charge = 0, multiplicity = 1:

       Center              X                  Y                   Z               Mass
    ------------   -----------------  -----------------  -----------------  -----------------
         N           -1.406656926924    -0.652390619349     0.027789977790    14.003074004430
         N            2.137040073076     0.013100380651    -0.079946022210    14.003074004430
         C            0.722432073076     0.000882380651     0.020206977790    12.000000000000
         C           -0.106476926924    -1.110474619349     0.031273977790    12.000000000000
         C           -0.114490026924     1.150509780651    -0.086589222210    12.000000000000
         C           -1.423368926924     0.716803380651     0.027466977790    12.000000000000
         H            0.122493073076    -2.167329619349     0.027494977790     1.007825032230
         H            0.219569073076     2.182262380651    -0.010004022210     1.007825032230
         H           -2.225566926924    -1.243499619349     0.044836977790     1.007825032230
         H           -2.352935926924     1.268741380651     0.031824977790     1.007825032230
         H            2.528461073076    -0.889548619349     0.177770977790     1.007825032230
         H            2.536731073076     0.709843380651     0.543733977790     1.007825032230

  Basis Set: AUG-CC-PVTZ
    Blend: AUG-CC-PVTZ
  Basis Set: (AUG-CC-PVTZ AUX)
    Blend: AUG-CC-PVTZ-JKFIT
	 Reference Energy          =    -263.9298909225707348 [Eh]
	 Singles Energy            =      -0.0000000000000000 [Eh]
	 Same-Spin Energy          =      -0.2892142803457121 [Eh]
	 Opposite-Spin Energy      =      -0.8980430552683635 [Eh]
	 Correlation Energy        =      -1.1872573356140756 [Eh]
	 Total Energy              =    -265.1171482581847840 [Eh]

	 ================> DF-SCS-MP2 Energies <==================
	-----------------------------------------------------------
	 SCS Same-Spin Scale       =       0.3333333333333333 [-]
	 SCS Opposite-Spin Scale   =       1.2000000000000000 [-]
	 SCS Same-Spin Energy      =      -0.0964047601152374 [Eh]
	 SCS Opposite-Spin Energy  =      -1.0776516663220361 [Eh]
	 SCS Correlation Energy    =      -1.1740564264372735 [Eh]
	 SCS Total Energy          =    -265.1039473490080240 [Eh]
	-----------------------------------------------------------

  Dipole Moment: [D]
     X:    -1.0654      Y:    -1.2750      Z:     1.2883     Total:     2.1025

*** Psi4 exiting successfully. Buy a developer a beer!
