                               Psi4 1.3.2 release

  ==> Input File <==

--------------------------------------------------------------------------
#psi4
#
memory 32 gb

molecule  {
0 1
  N       -1.4165960    -0.6509490     0.0049700
  N        2.1271010     0.0145420    -0.1027660
  C        0.7124930     0.0023240    -0.0026130
  C       -0.1164160    -1.1090330     0.0084540
  C       -0.1198780     1.1527520    -0.0095160
  C       -1.4333080     0.7182450     0.0046470
  H        0.1125540    -2.1658880     0.0046750
  H        0.2074626     2.1797426    -0.2827832
  H       -2.2355060    -1.2420580     0.0220170
  H       -2.3628750     1.2701830     0.0090050
  H        2.5185220    -0.8881070     0.1549510
  H        2.5267920     0.7112850     0.5209140
units angstrom
no_reorient  #important for SAPT in psi4, default
symmetry c1  #important for SAPT in psi4, default
}

set PROPERTIES_ORIGIN ["COM"]
properties('MP2/aug-cc-pvtz', properties = ['dipole'])
--------------------------------------------------------------------------

    Molecular point group: c1
  Charge       = 0
  Multiplicity = 1
  Basis Set: AUG-CC-PVTZ
    Blend: AUG-CC-PVTZ
  Basis Set: (AUG-CC-PVTZ AUX)
    Blend: AUG-CC-PVTZ-JKFIT

    Orbital Energies [Eh]
    ---------------------

    Doubly Occupied:

       1A    -15.602445     2A    -15.552849     3A    -11.257461
       4A    -11.249062     5A    -11.238854     6A    -11.207457
       7A     -1.286635     8A     -1.186720     9A     -1.019692
      10A     -0.964297    11A     -0.791886    12A     -0.751516
      13A     -0.731404    14A     -0.651597    15A     -0.605277
      16A     -0.579924    17A     -0.566014    18A     -0.555055
      19A     -0.517243    20A     -0.466916    21A     -0.322722
      22A     -0.279862

  @DF-RHF Final Energy:  -263.92883201732610

   => Energetics <=

    Nuclear Repulsion Energy =            222.2382697599285848
    One-Electron Energy =                -797.5644302129201151
    Two-Electron Energy =                 311.3973284356654290
    Total Energy =                       -263.9288320173261013
  Basis Set: (AUG-CC-PVTZ AUX)
    Blend: AUG-CC-PVTZ-RI
    Molecular point group: c1

    Geometry (in Angstrom), charge = 0, multiplicity = 1:

       Center              X                  Y                   Z               Mass
    ------------   -----------------  -----------------  -----------------  -----------------
         N           -1.407295889268    -0.652459048233     0.016251068451    14.003074004430
         N            2.136401110732     0.013031951767    -0.091484931549    14.003074004430
         C            0.721793110732     0.000813951767     0.008668068451    12.000000000000
         C           -0.107115889268    -1.110543048233     0.019735068451    12.000000000000
         C           -0.110577889268     1.151241951767     0.001765068451    12.000000000000
         C           -1.424007889268     0.716734951767     0.015928068451    12.000000000000
         H            0.121854110732    -2.167398048233     0.015956068451     1.007825032230
         H            0.216762710732     2.178232551767    -0.271502131549     1.007825032230
         H           -2.226205889268    -1.243568048233     0.033298068451     1.007825032230
         H           -2.353574889268     1.268672951767     0.020286068451     1.007825032230
         H            2.527822110732    -0.889617048233     0.166232068451     1.007825032230
         H            2.536092110732     0.709774951767     0.532195068451     1.007825032230

  Basis Set: AUG-CC-PVTZ
    Blend: AUG-CC-PVTZ
  Basis Set: (AUG-CC-PVTZ AUX)
    Blend: AUG-CC-PVTZ-JKFIT
	 Reference Energy          =    -263.9288320173261013 [Eh]
	 Singles Energy            =      -0.0000000000000000 [Eh]
	 Same-Spin Energy          =      -0.2893355999024432 [Eh]
	 Opposite-Spin Energy      =      -0.8981562057267736 [Eh]
	 Correlation Energy        =      -1.1874918056292167 [Eh]
	 Total Energy              =    -265.1163238229553372 [Eh]

	 ================> DF-SCS-MP2 Energies <==================
	-----------------------------------------------------------
	 SCS Same-Spin Scale       =       0.3333333333333333 [-]
	 SCS Opposite-Spin Scale   =       1.2000000000000000 [-]
	 SCS Same-Spin Energy      =      -0.0964451999674811 [Eh]
	 SCS Opposite-Spin Energy  =      -1.0777874468721282 [Eh]
	 SCS Correlation Energy    =      -1.1742326468396094 [Eh]
	 SCS Total Energy          =    -265.1030646641656858 [Eh]
	-----------------------------------------------------------

  Dipole Moment: [D]
     X:    -1.0801      Y:    -1.3214      Z:     0.9732     Total:     1.9647

*** Psi4 exiting successfully. Buy a developer a beer!
