                               Psi4 1.3.2 release

  ==> Input File <==

--------------------------------------------------------------------------
#psi4
#
memory 32 gb

molecule  {
0 1
  N       -1.4165960    -0.6509490     0.0049700
  N        2.1271010     0.0145420    -0.1027660
  C        0.7124930     0.0023240    -0.0026130
  C       -0.1164160    -1.1090330     0.0084540
  C       -0.1198780     1.1527520    -0.0095160
  C       -1.4333080     0.7182450     0.0046470
  H        0.1124158    -2.1660178    -0.0453246
  H        0.2096300     2.1837040    -0.0328240
  H       -2.2355060    -1.2420580     0.0220170
  H       -2.3628750     1.2701830     0.0090050
  H        2.5185220    -0.8881070     0.1549510
  H        2.5267920     0.7112850     0.5209140
units angstrom
no_reorient  #important for SAPT in psi4, default
symmetry c1  #important for SAPT in psi4, default
}

set PROPERTIES_ORIGIN ["COM"]
properties('MP2/aug-cc-pvtz', properties = ['dipole'])
--------------------------------------------------------------------------

    Molecular point group: c1
  Charge       = 0
  Multiplicity = 1
  Basis Set: AUG-CC-PVTZ
    Blend: AUG-CC-PVTZ
  Basis Set: (AUG-CC-PVTZ AUX)
    Blend: AUG-CC-PVTZ-JKFIT

    Orbital Energies [Eh]
    ---------------------

    Doubly Occupied:

       1A    -15.601420     2A    -15.552776     3A    -11.256370
       4A    -11.248623     5A    -11.238642     6A    -11.205387
       7A     -1.285878     8A     -1.186629     9A     -1.019944
      10A     -0.963893    11A     -0.793371    12A     -0.752894
      13A     -0.731372    14A     -0.651400    15A     -0.604232
      16A     -0.579703    17A     -0.568811    18A     -0.558581
      19A     -0.518329    20A     -0.466506    21A     -0.322984
      22A     -0.279486

  @DF-RHF Final Energy:  -263.93239771743868

   => Energetics <=

    Nuclear Repulsion Energy =            222.3412092118784358
    One-Electron Energy =                -797.7727574391190046
    Two-Electron Energy =                 311.4991505098018933
    Total Energy =                       -263.9323977174386755
  Basis Set: (AUG-CC-PVTZ AUX)
    Blend: AUG-CC-PVTZ-RI
    Molecular point group: c1

    Geometry (in Angstrom), charge = 0, multiplicity = 1:

       Center              X                  Y                   Z               Mass
    ------------   -----------------  -----------------  -----------------  -----------------
         N           -1.407320813112    -0.652506110227     0.013795045525    14.003074004430
         N            2.136376186888     0.012984889773    -0.093940954475    14.003074004430
         C            0.721768186888     0.000766889773     0.006212045525    12.000000000000
         C           -0.107140813112    -1.110590110227     0.017279045525    12.000000000000
         C           -0.110602813112     1.151194889773    -0.000690954475    12.000000000000
         C           -1.424032813112     0.716687889773     0.013472045525    12.000000000000
         H            0.121690986888    -2.167574910227    -0.036499554475     1.007825032230
         H            0.218905186888     2.182146889773    -0.023998954475     1.007825032230
         H           -2.226230813112    -1.243615110227     0.030842045525     1.007825032230
         H           -2.353599813112     1.268625889773     0.017830045525     1.007825032230
         H            2.527797186888    -0.889664110227     0.163776045525     1.007825032230
         H            2.536067186888     0.709727889773     0.529739045525     1.007825032230

  Basis Set: AUG-CC-PVTZ
    Blend: AUG-CC-PVTZ
  Basis Set: (AUG-CC-PVTZ AUX)
    Blend: AUG-CC-PVTZ-JKFIT
	 Reference Energy          =    -263.9323977174386755 [Eh]
	 Singles Energy            =      -0.0000000000000000 [Eh]
	 Same-Spin Energy          =      -0.2891462946870498 [Eh]
	 Opposite-Spin Energy      =      -0.8977464445191978 [Eh]
	 Correlation Energy        =      -1.1868927392062476 [Eh]
	 Total Energy              =    -265.1192904566449329 [Eh]

	 ================> DF-SCS-MP2 Energies <==================
	-----------------------------------------------------------
	 SCS Same-Spin Scale       =       0.3333333333333333 [-]
	 SCS Opposite-Spin Scale   =       1.2000000000000000 [-]
	 SCS Same-Spin Energy      =      -0.0963820982290166 [Eh]
	 SCS Opposite-Spin Energy  =      -1.0772957334230373 [Eh]
	 SCS Correlation Energy    =      -1.1736778316520540 [Eh]
	 SCS Total Energy          =    -265.1060755490907468 [Eh]
	-----------------------------------------------------------

  Dipole Moment: [D]
     X:    -1.0586      Y:    -1.2519      Z:     1.1302     Total:     1.9913

*** Psi4 exiting successfully. Buy a developer a beer!
