                               Psi4 1.3.2 release

  ==> Input File <==

--------------------------------------------------------------------------
#psi4
#
memory 32 gb

molecule  {
0 1
  N       -1.4165960    -0.6509490     0.0049700
  N        2.1271010     0.0145420    -0.1027660
  C        0.7124930     0.0023240    -0.0026130
  C       -0.1164160    -1.1090330     0.0084540
  C       -0.1198780     1.1527520    -0.0095160
  C       -1.4333080     0.7182450     0.0046470
  H        0.1122775    -2.1661476    -0.0953243
  H        0.2096300     2.1837040    -0.0328240
  H       -2.2355060    -1.2420580     0.0220170
  H       -2.3628750     1.2701830     0.0090050
  H        2.5185220    -0.8881070     0.1549510
  H        2.5267920     0.7112850     0.5209140
units angstrom
no_reorient  #important for SAPT in psi4, default
symmetry c1  #important for SAPT in psi4, default
}

set PROPERTIES_ORIGIN ["COM"]
properties('MP2/aug-cc-pvtz', properties = ['dipole'])
--------------------------------------------------------------------------

    Molecular point group: c1
  Charge       = 0
  Multiplicity = 1
  Basis Set: AUG-CC-PVTZ
    Blend: AUG-CC-PVTZ
  Basis Set: (AUG-CC-PVTZ AUX)
    Blend: AUG-CC-PVTZ-JKFIT

    Orbital Energies [Eh]
    ---------------------

    Doubly Occupied:

       1A    -15.601402     2A    -15.552791     3A    -11.256548
       4A    -11.248794     5A    -11.238840     6A    -11.205475
       7A     -1.285910     8A     -1.186667     9A     -1.020014
      10A     -0.963776    11A     -0.793377    12A     -0.752725
      13A     -0.731011    14A     -0.651300    15A     -0.604242
      16A     -0.579507    17A     -0.569224    18A     -0.558011
      19A     -0.518031    20A     -0.466630    21A     -0.323034
      22A     -0.279583

  @DF-RHF Final Energy:  -263.93207041507571

   => Energetics <=

    Nuclear Repulsion Energy =            222.3274273877567282
    One-Electron Energy =                -797.7452087814657489
    Two-Electron Energy =                 311.4857109786332785
    Total Energy =                       -263.9320704150757138
  Basis Set: (AUG-CC-PVTZ AUX)
    Blend: AUG-CC-PVTZ-RI
    Molecular point group: c1

    Geometry (in Angstrom), charge = 0, multiplicity = 1:

       Center              X                  Y                   Z               Mass
    ------------   -----------------  -----------------  -----------------  -----------------
         N           -1.407319114429    -0.652504515946     0.014409171626    14.003074004430
         N            2.136377885571     0.012986484054    -0.093326828374    14.003074004430
         C            0.721769885571     0.000768484054     0.006826171626    12.000000000000
         C           -0.107139114429    -1.110588515946     0.017893171626    12.000000000000
         C           -0.110601114429     1.151196484054    -0.000076828374    12.000000000000
         C           -1.424031114429     0.716689484054     0.014086171626    12.000000000000
         H            0.121554385571    -2.167703115946    -0.085885128374     1.007825032230
         H            0.218906885571     2.182148484054    -0.023384828374     1.007825032230
         H           -2.226229114429    -1.243613515946     0.031456171626     1.007825032230
         H           -2.353598114429     1.268627484054     0.018444171626     1.007825032230
         H            2.527798885571    -0.889662515946     0.164390171626     1.007825032230
         H            2.536068885571     0.709729484054     0.530353171626     1.007825032230

  Basis Set: AUG-CC-PVTZ
    Blend: AUG-CC-PVTZ
  Basis Set: (AUG-CC-PVTZ AUX)
    Blend: AUG-CC-PVTZ-JKFIT
	 Reference Energy          =    -263.9320704150757138 [Eh]
	 Singles Energy            =      -0.0000000000000000 [Eh]
	 Same-Spin Energy          =      -0.2891636024860847 [Eh]
	 Opposite-Spin Energy      =      -0.8977890934974553 [Eh]
	 Correlation Energy        =      -1.1869526959835399 [Eh]
	 Total Energy              =    -265.1190231110592777 [Eh]

	 ================> DF-SCS-MP2 Energies <==================
	-----------------------------------------------------------
	 SCS Same-Spin Scale       =       0.3333333333333333 [-]
	 SCS Opposite-Spin Scale   =       1.2000000000000000 [-]
	 SCS Same-Spin Energy      =      -0.0963878674953616 [Eh]
	 SCS Opposite-Spin Energy  =      -1.0773469121969463 [Eh]
	 SCS Correlation Energy    =      -1.1737347796923079 [Eh]
	 SCS Total Energy          =    -265.1058051947680383 [Eh]
	-----------------------------------------------------------

  Dipole Moment: [D]
     X:    -1.0598      Y:    -1.2429      Z:     1.0822     Total:     1.9594

*** Psi4 exiting successfully. Buy a developer a beer!
