                               Psi4 1.3.2 release

  ==> Input File <==

--------------------------------------------------------------------------
#psi4
#
memory 32 gb

molecule  {
0 1
  N       -1.4165960    -0.6509490     0.0049700
  N        2.1271010     0.0145420    -0.1027660
  C        0.7124930     0.0023240    -0.0026130
  C       -0.1164160    -1.1090330     0.0084540
  C       -0.1198780     1.1527520    -0.0095160
  C       -1.4333080     0.7182450     0.0046470
  H        0.1125540    -2.1658880     0.0046750
  H        0.2070291     2.1789503    -0.3327751
  H       -2.2355060    -1.2420580     0.0220170
  H       -2.3628750     1.2701830     0.0090050
  H        2.5185220    -0.8881070     0.1549510
  H        2.5267920     0.7112850     0.5209140
units angstrom
no_reorient  #important for SAPT in psi4, default
symmetry c1  #important for SAPT in psi4, default
}

set PROPERTIES_ORIGIN ["COM"]
properties('MP2/aug-cc-pvtz', properties = ['dipole'])
--------------------------------------------------------------------------

    Molecular point group: c1
  Charge       = 0
  Multiplicity = 1
  Basis Set: AUG-CC-PVTZ
    Blend: AUG-CC-PVTZ
  Basis Set: (AUG-CC-PVTZ AUX)
    Blend: AUG-CC-PVTZ-JKFIT

    Orbital Energies [Eh]
    ---------------------

    Doubly Occupied:

       1A    -15.602826     2A    -15.552886     3A    -11.257930
       4A    -11.249268     5A    -11.238980     6A    -11.208406
       7A     -1.286939     8A     -1.186772     9A     -1.019618
      10A     -0.964453    11A     -0.791375    12A     -0.751002
      13A     -0.731330    14A     -0.651631    15A     -0.605352
      16A     -0.580033    17A     -0.566430    18A     -0.552597
      19A     -0.516469    20A     -0.467042    21A     -0.322678
      22A     -0.280030

  @DF-RHF Final Energy:  -263.92701104688808

   => Energetics <=

    Nuclear Repulsion Energy =            222.1932421404807485
    One-Electron Energy =                -797.4724136663016907
    Two-Electron Energy =                 311.3521604789328876
    Total Energy =                       -263.9270110468880830
  Basis Set: (AUG-CC-PVTZ AUX)
    Blend: AUG-CC-PVTZ-RI
    Molecular point group: c1

    Geometry (in Angstrom), charge = 0, multiplicity = 1:

       Center              X                  Y                   Z               Mass
    ------------   -----------------  -----------------  -----------------  -----------------
         N           -1.407290564763    -0.652449316732     0.016865098747    14.003074004430
         N            2.136406435237     0.013041683268    -0.090870901253    14.003074004430
         C            0.721798435237     0.000823683268     0.009282098747    12.000000000000
         C           -0.107110564763    -1.110533316732     0.020349098747    12.000000000000
         C           -0.110572564763     1.151251683268     0.002379098747    12.000000000000
         C           -1.424002564763     0.716744683268     0.016542098747    12.000000000000
         H            0.121859435237    -2.167388316732     0.016570098747     1.007825032230
         H            0.216334535237     2.177449983268    -0.320880001253     1.007825032230
         H           -2.226200564763    -1.243558316732     0.033912098747     1.007825032230
         H           -2.353569564763     1.268682683268     0.020900098747     1.007825032230
         H            2.527827435237    -0.889607316732     0.166846098747     1.007825032230
         H            2.536097435237     0.709784683268     0.532809098747     1.007825032230

  Basis Set: AUG-CC-PVTZ
    Blend: AUG-CC-PVTZ
  Basis Set: (AUG-CC-PVTZ AUX)
    Blend: AUG-CC-PVTZ-JKFIT
	 Reference Energy          =    -263.9270110468880830 [Eh]
	 Singles Energy            =      -0.0000000000000000 [Eh]
	 Same-Spin Energy          =      -0.2894118955935034 [Eh]
	 Opposite-Spin Energy      =      -0.8983479033302957 [Eh]
	 Correlation Energy        =      -1.1877597989237991 [Eh]
	 Total Energy              =    -265.1147708458119041 [Eh]

	 ================> DF-SCS-MP2 Energies <==================
	-----------------------------------------------------------
	 SCS Same-Spin Scale       =       0.3333333333333333 [-]
	 SCS Opposite-Spin Scale   =       1.2000000000000000 [-]
	 SCS Same-Spin Energy      =      -0.0964706318645011 [Eh]
	 SCS Opposite-Spin Energy  =      -1.0780174839963548 [Eh]
	 SCS Correlation Energy    =      -1.1744881158608560 [Eh]
	 SCS Total Energy          =    -265.1014991627489508 [Eh]
	-----------------------------------------------------------

  Dipole Moment: [D]
     X:    -1.0883      Y:    -1.3470      Z:     0.9344     Total:     1.9677

*** Psi4 exiting successfully. Buy a developer a beer!
