                               Psi4 1.3.2 release

  ==> Input File <==

--------------------------------------------------------------------------
#psi4
#
memory 32 gb

molecule  {
0 1
  N       -1.4165960    -0.6509490     0.0049700
  N        2.1271010     0.0145420    -0.1027660
  C        0.7124930     0.0023240    -0.0026130
  C       -0.1164160    -1.1090330     0.0084540
  C       -0.1335314     1.1503501    -0.3091955
  C       -1.4333080     0.7182450     0.0046470
  H        0.1125540    -2.1658880     0.0046750
  H        0.2096300     2.1837040    -0.0328240
  H       -2.2355060    -1.2420580     0.0220170
  H       -2.3628750     1.2701830     0.0090050
  H        2.5185220    -0.8881070     0.1549510
  H        2.5267920     0.7112850     0.5209140
units angstrom
no_reorient  #important for SAPT in psi4, default
symmetry c1  #important for SAPT in psi4, default
}

set PROPERTIES_ORIGIN ["COM"]
properties('MP2/aug-cc-pvtz', properties = ['dipole'])
--------------------------------------------------------------------------

    Molecular point group: c1
  Charge       = 0
  Multiplicity = 1
  Basis Set: AUG-CC-PVTZ
    Blend: AUG-CC-PVTZ
  Basis Set: (AUG-CC-PVTZ AUX)
    Blend: AUG-CC-PVTZ-JKFIT

    Orbital Energies [Eh]
    ---------------------

    Doubly Occupied:

       1A    -15.605071     2A    -15.553163     3A    -11.264654
       4A    -11.252849     5A    -11.241085     6A    -11.212435
       7A     -1.287628     8A     -1.186449     9A     -1.014018
      10A     -0.965592    11A     -0.788597    12A     -0.751302
      13A     -0.731723    14A     -0.651846    15A     -0.599112
      16A     -0.582340    17A     -0.575968    18A     -0.538547
      19A     -0.508811    20A     -0.459705    21A     -0.324580
      22A     -0.280880

  @DF-RHF Final Energy:  -263.90829141662391

   => Energetics <=

    Nuclear Repulsion Energy =            221.4241504031083423
    One-Electron Energy =                -795.9121766450507494
    Two-Electron Energy =                 310.5797348253184964
    Total Energy =                       -263.9082914166239107
  Basis Set: (AUG-CC-PVTZ AUX)
    Blend: AUG-CC-PVTZ-RI
    Molecular point group: c1

    Geometry (in Angstrom), charge = 0, multiplicity = 1:

       Center              X                  Y                   Z               Mass
    ------------   -----------------  -----------------  -----------------  -----------------
         N           -1.405325745014    -0.652156434408     0.057008077442    14.003074004430
         N            2.138371254986     0.013334565592    -0.050727922558    14.003074004430
         C            0.723763254986     0.001116565592     0.049425077442    12.000000000000
         C           -0.105145745014    -1.110240434408     0.060492077442    12.000000000000
         C           -0.122261145014     1.149142665592    -0.257157422558    12.000000000000
         C           -1.422037745014     0.717037565592     0.056685077442    12.000000000000
         H            0.123824254986    -2.167095434408     0.056713077442     1.007825032230
         H            0.220900254986     2.182496565592     0.019214077442     1.007825032230
         H           -2.224235745014    -1.243265434408     0.074055077442     1.007825032230
         H           -2.351604745014     1.268975565592     0.061043077442     1.007825032230
         H            2.529792254986    -0.889314434408     0.206989077442     1.007825032230
         H            2.538062254986     0.710077565592     0.572952077442     1.007825032230

  Basis Set: AUG-CC-PVTZ
    Blend: AUG-CC-PVTZ
  Basis Set: (AUG-CC-PVTZ AUX)
    Blend: AUG-CC-PVTZ-JKFIT
	 Reference Energy          =    -263.9082914166239107 [Eh]
	 Singles Energy            =      -0.0000000000000000 [Eh]
	 Same-Spin Energy          =      -0.2901015516678183 [Eh]
	 Opposite-Spin Energy      =      -0.9010872970652207 [Eh]
	 Correlation Energy        =      -1.1911888487330391 [Eh]
	 Total Energy              =    -265.0994802653569309 [Eh]

	 ================> DF-SCS-MP2 Energies <==================
	-----------------------------------------------------------
	 SCS Same-Spin Scale       =       0.3333333333333333 [-]
	 SCS Opposite-Spin Scale   =       1.2000000000000000 [-]
	 SCS Same-Spin Energy      =      -0.0967005172226061 [Eh]
	 SCS Opposite-Spin Energy  =      -1.0813047564782647 [Eh]
	 SCS Correlation Energy    =      -1.1780052737008708 [Eh]
	 SCS Total Energy          =    -265.0862966903247866 [Eh]
	-----------------------------------------------------------

  Dipole Moment: [D]
     X:    -1.1094      Y:    -1.4699      Z:     1.5124     Total:     2.3829

*** Psi4 exiting successfully. Buy a developer a beer!
