                               Psi4 1.3.2 release

  ==> Input File <==

--------------------------------------------------------------------------
#psi4
#
memory 32 gb

molecule  {
0 1
  N       -1.4165960    -0.6509490     0.0049700
  N        2.1271010     0.0145420    -0.1027660
  C        0.7124930     0.0023240    -0.0026130
  C       -0.1164160    -1.1090330     0.0084540
  C       -0.1198780     1.1527520    -0.0095160
  C       -1.4333080     0.7182450     0.0046470
  H        0.1125540    -2.1658880     0.0046750
  H        0.2078961     2.1805348    -0.2327914
  H       -2.2355060    -1.2420580     0.0220170
  H       -2.3628750     1.2701830     0.0090050
  H        2.5185220    -0.8881070     0.1549510
  H        2.5267920     0.7112850     0.5209140
units angstrom
no_reorient  #important for SAPT in psi4, default
symmetry c1  #important for SAPT in psi4, default
}

set PROPERTIES_ORIGIN ["COM"]
properties('MP2/aug-cc-pvtz', properties = ['dipole'])
--------------------------------------------------------------------------

    Molecular point group: c1
  Charge       = 0
  Multiplicity = 1
  Basis Set: AUG-CC-PVTZ
    Blend: AUG-CC-PVTZ
  Basis Set: (AUG-CC-PVTZ AUX)
    Blend: AUG-CC-PVTZ-JKFIT

    Orbital Energies [Eh]
    ---------------------

    Doubly Occupied:

       1A    -15.602121     2A    -15.552821     3A    -11.257066
       4A    -11.248891     5A    -11.238752     6A    -11.206674
       7A     -1.286378     8A     -1.186679     9A     -1.019761
      10A     -0.964170    11A     -0.792357    12A     -0.751977
      13A     -0.731455    14A     -0.651566    15A     -0.605165
      16A     -0.579854    17A     -0.565728    18A     -0.557171
      19A     -0.517790    20A     -0.466799    21A     -0.322771
      22A     -0.279721

  @DF-RHF Final Energy:  -263.93023211744082

   => Energetics <=

    Nuclear Repulsion Energy =            222.2760529180749813
    One-Electron Energy =                -797.6412367098057530
    Two-Electron Energy =                 311.4349516742898913
    Total Energy =                       -263.9302321174408235
  Basis Set: (AUG-CC-PVTZ AUX)
    Blend: AUG-CC-PVTZ-RI
    Molecular point group: c1

    Geometry (in Angstrom), charge = 0, multiplicity = 1:

       Center              X                  Y                   Z               Mass
    ------------   -----------------  -----------------  -----------------  -----------------
         N           -1.407301213774    -0.652468778505     0.015637039382    14.003074004430
         N            2.136395786226     0.013022221495    -0.092098960618    14.003074004430
         C            0.721787786226     0.000804221495     0.008054039382    12.000000000000
         C           -0.107121213774    -1.110552778505     0.019121039382    12.000000000000
         C           -0.110583213774     1.151232221495     0.001151039382    12.000000000000
         C           -1.424013213774     0.716725221495     0.015314039382    12.000000000000
         H            0.121848786226    -2.167407778505     0.015342039382     1.007825032230
         H            0.217190886226     2.179015021495    -0.222124360618     1.007825032230
         H           -2.226211213774    -1.243577778505     0.032684039382     1.007825032230
         H           -2.353580213774     1.268663221495     0.019672039382     1.007825032230
         H            2.527816786226    -0.889626778505     0.165618039382     1.007825032230
         H            2.536086786226     0.709765221495     0.531581039382     1.007825032230

  Basis Set: AUG-CC-PVTZ
    Blend: AUG-CC-PVTZ
  Basis Set: (AUG-CC-PVTZ AUX)
    Blend: AUG-CC-PVTZ-JKFIT
	 Reference Energy          =    -263.9302321174408235 [Eh]
	 Singles Energy            =      -0.0000000000000000 [Eh]
	 Same-Spin Energy          =      -0.2892711241736535 [Eh]
	 Opposite-Spin Energy      =      -0.8980030156364098 [Eh]
	 Correlation Energy        =      -1.1872741398100635 [Eh]
	 Total Energy              =    -265.1175062572509091 [Eh]

	 ================> DF-SCS-MP2 Energies <==================
	-----------------------------------------------------------
	 SCS Same-Spin Scale       =       0.3333333333333333 [-]
	 SCS Opposite-Spin Scale   =       1.2000000000000000 [-]
	 SCS Same-Spin Energy      =      -0.0964237080578845 [Eh]
	 SCS Opposite-Spin Energy  =      -1.0776036187636917 [Eh]
	 SCS Correlation Energy    =      -1.1740273268215762 [Eh]
	 SCS Total Energy          =    -265.1042594442624249 [Eh]
	-----------------------------------------------------------

  Dipole Moment: [D]
     X:    -1.0731      Y:    -1.2996      Z:     1.0131     Total:     1.9664

*** Psi4 exiting successfully. Buy a developer a beer!
