                               Psi4 1.3.2 release

  ==> Input File <==

--------------------------------------------------------------------------
#psi4
#
memory 32 gb

molecule  {
0 1
  N       -1.4165960    -0.6509490     0.0049700
  N        2.1271010     0.0145420    -0.1027660
  C        0.7124930     0.0023240    -0.0026130
  C       -0.1164160    -1.1090330     0.0084540
  C       -0.1198780     1.1527520    -0.0095160
  C       -1.4333080     0.7182450     0.0046470
  H        0.1125540    -2.1658880     0.0046750
  H        0.2091965     2.1829117    -0.0828158
  H       -2.2355060    -1.2420580     0.0220170
  H       -2.3628750     1.2701830     0.0090050
  H        2.5185220    -0.8881070     0.1549510
  H        2.5267920     0.7112850     0.5209140
units angstrom
no_reorient  #important for SAPT in psi4, default
symmetry c1  #important for SAPT in psi4, default
}

set PROPERTIES_ORIGIN ["COM"]
properties('MP2/aug-cc-pvtz', properties = ['dipole'])
--------------------------------------------------------------------------

    Molecular point group: c1
  Charge       = 0
  Multiplicity = 1
  Basis Set: AUG-CC-PVTZ
    Blend: AUG-CC-PVTZ
  Basis Set: (AUG-CC-PVTZ AUX)
    Blend: AUG-CC-PVTZ-JKFIT

    Orbital Energies [Eh]
    ---------------------

    Doubly Occupied:

       1A    -15.601510     2A    -15.552798     3A    -11.256360
       4A    -11.248579     5A    -11.238592     6A    -11.205394
       7A     -1.285914     8A     -1.186629     9A     -1.019901
      10A     -0.963953    11A     -0.793285    12A     -0.752877
      13A     -0.731505    14A     -0.651500    15A     -0.604565
      16A     -0.579866    17A     -0.567042    18A     -0.559576
      19A     -0.518517    20A     -0.466498    21A     -0.322917
      22A     -0.279464

  @DF-RHF Final Energy:  -263.93236228370506

   => Energetics <=

    Nuclear Repulsion Energy =            222.3414156065942109
    One-Electron Energy =                -797.7730705104165736
    Two-Electron Energy =                 311.4992926201173304
    Total Energy =                       -263.9323622837050607
  Basis Set: (AUG-CC-PVTZ AUX)
    Blend: AUG-CC-PVTZ-RI
    Molecular point group: c1

    Geometry (in Angstrom), charge = 0, multiplicity = 1:

       Center              X                  Y                   Z               Mass
    ------------   -----------------  -----------------  -----------------  -----------------
         N           -1.407317186061    -0.652497973007     0.013794949721    14.003074004430
         N            2.136379813939     0.012993026993    -0.093941050279    14.003074004430
         C            0.721771813939     0.000775026993     0.006211949721    12.000000000000
         C           -0.107137186061    -1.110581973007     0.017278949721    12.000000000000
         C           -0.110599186061     1.151203026993    -0.000691050279    12.000000000000
         C           -1.424029186061     0.716696026993     0.013471949721    12.000000000000
         H            0.121832813939    -2.167436973007     0.013499949721     1.007825032230
         H            0.218475313939     2.181362726993    -0.073990850279     1.007825032230
         H           -2.226227186061    -1.243606973007     0.030841949721     1.007825032230
         H           -2.353596186061     1.268634026993     0.017829949721     1.007825032230
         H            2.527800813939    -0.889655973007     0.163775949721     1.007825032230
         H            2.536070813939     0.709736026993     0.529738949721     1.007825032230

  Basis Set: AUG-CC-PVTZ
    Blend: AUG-CC-PVTZ
  Basis Set: (AUG-CC-PVTZ AUX)
    Blend: AUG-CC-PVTZ-JKFIT
	 Reference Energy          =    -263.9323622837050607 [Eh]
	 Singles Energy            =      -0.0000000000000000 [Eh]
	 Same-Spin Energy          =      -0.2891555069937887 [Eh]
	 Opposite-Spin Energy      =      -0.8977567065512850 [Eh]
	 Correlation Energy        =      -1.1869122135450738 [Eh]
	 Total Energy              =    -265.1192744972501600 [Eh]

	 ================> DF-SCS-MP2 Energies <==================
	-----------------------------------------------------------
	 SCS Same-Spin Scale       =       0.3333333333333333 [-]
	 SCS Opposite-Spin Scale   =       1.2000000000000000 [-]
	 SCS Same-Spin Energy      =      -0.0963851689979296 [Eh]
	 SCS Opposite-Spin Energy  =      -1.0773080478615420 [Eh]
	 SCS Correlation Energy    =      -1.1736932168594716 [Eh]
	 SCS Total Energy          =    -265.1060555005645369 [Eh]
	-----------------------------------------------------------

  Dipole Moment: [D]
     X:    -1.0595      Y:    -1.2594      Z:     1.1366     Total:     2.0001

*** Psi4 exiting successfully. Buy a developer a beer!
