                               Psi4 1.3.2 release

  ==> Input File <==

--------------------------------------------------------------------------
#psi4
#
memory 32 gb

molecule  {
0 1
  S        1.1830230     0.0407500    -0.0002230
  N       -1.2657710    -0.7786410     0.0002510
  C       -0.0644320     1.2156230    -0.0000300
  C       -1.2905570     0.5944340     0.0002340
  C       -0.0184830    -1.1998720     0.0000480
  H        0.1541650     2.2748950    -0.0001110
  H       -2.2450570     1.1086030     0.0003980
  H        0.2637792    -2.2461266     0.1000230
units angstrom
no_reorient  #important for SAPT in psi4, default
symmetry c1  #important for SAPT in psi4, default
}

set PROPERTIES_ORIGIN ["COM"]
properties('MP2/aug-cc-pvtz', properties = ['dipole'])
--------------------------------------------------------------------------

    Molecular point group: c1
  Charge       = 0
  Multiplicity = 1
  Basis Set: AUG-CC-PVTZ
    Blend: AUG-CC-PVTZ
  Basis Set: (AUG-CC-PVTZ AUX)
    Blend: AUG-CC-PVTZ-JKFIT

    Orbital Energies [Eh]
    ---------------------

    Doubly Occupied:

       1A    -92.003460     2A    -15.579100     3A    -11.314851
       4A    -11.275398     5A    -11.271287     6A     -9.004246
       7A     -6.685127     8A     -6.684613     9A     -6.683913
      10A     -1.280649    11A     -1.070797    12A     -1.003515
      13A     -0.804181    14A     -0.776455    15A     -0.697912
      16A     -0.596089    17A     -0.570311    18A     -0.561071
      19A     -0.510200    20A     -0.437916    21A     -0.394048
      22A     -0.343271

  @DF-RHF Final Energy:  -567.38229417382149

   => Energetics <=

    Nuclear Repulsion Energy =            204.7990141225113803
    One-Electron Energy =               -1185.2657997954784150
    Two-Electron Energy =                 413.0844914991454857
    Total Energy =                       -567.3822941738214922
  Basis Set: (AUG-CC-PVTZ AUX)
    Blend: AUG-CC-PVTZ-RI
    Molecular point group: c1

    Geometry (in Angstrom), charge = 0, multiplicity = 1:

       Center              X                  Y                   Z               Mass
    ------------   -----------------  -----------------  -----------------  -----------------
         S            1.162129289620     0.054068031210    -0.001405418354    31.972071174400
         N           -1.286664710380    -0.765322968790    -0.000931418354    14.003074004430
         C           -0.085325710380     1.228941031210    -0.001212418354    12.000000000000
         C           -1.311450710380     0.607752031210    -0.000948418354    12.000000000000
         C           -0.039376710380    -1.186553968790    -0.001134418354    12.000000000000
         H            0.133271289620     2.288213031210    -0.001293418354     1.007825032230
         H           -2.265950710380     1.121921031210    -0.000784418354     1.007825032230
         H            0.242885489620    -2.232808568790     0.098840581646     1.007825032230

  Basis Set: AUG-CC-PVTZ
    Blend: AUG-CC-PVTZ
  Basis Set: (AUG-CC-PVTZ AUX)
    Blend: AUG-CC-PVTZ-JKFIT
	 Reference Energy          =    -567.3822941738214922 [Eh]
	 Singles Energy            =      -0.0000000000000000 [Eh]
	 Same-Spin Energy          =      -0.2458390657212746 [Eh]
	 Opposite-Spin Energy      =      -0.7302684001941144 [Eh]
	 Correlation Energy        =      -0.9761074659153890 [Eh]
	 Total Energy              =    -568.3584016397368259 [Eh]

	 ================> DF-SCS-MP2 Energies <==================
	-----------------------------------------------------------
	 SCS Same-Spin Scale       =       0.3333333333333333 [-]
	 SCS Opposite-Spin Scale   =       1.2000000000000000 [-]
	 SCS Same-Spin Energy      =      -0.0819463552404249 [Eh]
	 SCS Opposite-Spin Energy  =      -0.8763220802329373 [Eh]
	 SCS Correlation Energy    =      -0.9582684354733622 [Eh]
	 SCS Total Energy          =    -568.3405626092948069 [Eh]
	-----------------------------------------------------------

  Dipole Moment: [D]
     X:     1.3651      Y:     1.1850      Z:     0.0736     Total:     1.8092

*** Psi4 exiting successfully. Buy a developer a beer!
