                               Psi4 1.3.2 release

  ==> Input File <==

--------------------------------------------------------------------------
#psi4
#
memory 32 gb

molecule  {
0 1
  S        1.1830230     0.0407500    -0.0002230
  N       -1.2657710    -0.7786410     0.0002510
  C       -0.0644320     1.2156230    -0.0000300
  C       -1.2905570     0.5944340     0.0002340
  C       -0.0184830    -1.1998720     0.0000480
  H        0.1541166     2.2748853    -0.2501110
  H       -2.2450570     1.1086030     0.0003980
  H        0.2637610    -2.2461300     0.0000230
units angstrom
no_reorient  #important for SAPT in psi4, default
symmetry c1  #important for SAPT in psi4, default
}

set PROPERTIES_ORIGIN ["COM"]
properties('MP2/aug-cc-pvtz', properties = ['dipole'])
--------------------------------------------------------------------------

    Molecular point group: c1
  Charge       = 0
  Multiplicity = 1
  Basis Set: AUG-CC-PVTZ
    Blend: AUG-CC-PVTZ
  Basis Set: (AUG-CC-PVTZ AUX)
    Blend: AUG-CC-PVTZ-JKFIT

    Orbital Energies [Eh]
    ---------------------

    Doubly Occupied:

       1A    -92.003350     2A    -15.579335     3A    -11.315233
       4A    -11.276367     5A    -11.273021     6A     -9.004164
       7A     -6.685044     8A     -6.684514     9A     -6.683820
      10A     -1.281100    11A     -1.070268    12A     -1.003675
      13A     -0.802436    14A     -0.776183    15A     -0.694947
      16A     -0.596653    17A     -0.572118    18A     -0.555472
      19A     -0.510222    20A     -0.438166    21A     -0.394026
      22A     -0.343428

  @DF-RHF Final Energy:  -567.37934986081336

   => Energetics <=

    Nuclear Repulsion Energy =            204.7085919245232049
    One-Electron Energy =               -1185.0888053283219961
    Two-Electron Energy =                 413.0008635429853712
    Total Energy =                       -567.3793498608133632
  Basis Set: (AUG-CC-PVTZ AUX)
    Blend: AUG-CC-PVTZ-RI
    Molecular point group: c1

    Geometry (in Angstrom), charge = 0, multiplicity = 1:

       Center              X                  Y                   Z               Mass
    ------------   -----------------  -----------------  -----------------  -----------------
         S            1.162130079293     0.054068186536     0.002744516788    31.972071174400
         N           -1.286663920707    -0.765322813464     0.003218516788    14.003074004430
         C           -0.085324920707     1.228941186536     0.002937516788    12.000000000000
         C           -1.311449920707     0.607752186536     0.003201516788    12.000000000000
         C           -0.039375920707    -1.186553813464     0.003015516788    12.000000000000
         H            0.133223679293     2.288203486536    -0.247143483212     1.007825032230
         H           -2.265949920707     1.121921186536     0.003365516788     1.007825032230
         H            0.242868079293    -2.232811813464     0.002990516788     1.007825032230

  Basis Set: AUG-CC-PVTZ
    Blend: AUG-CC-PVTZ
  Basis Set: (AUG-CC-PVTZ AUX)
    Blend: AUG-CC-PVTZ-JKFIT
	 Reference Energy          =    -567.3793498608133632 [Eh]
	 Singles Energy            =      -0.0000000000000000 [Eh]
	 Same-Spin Energy          =      -0.2459805412123366 [Eh]
	 Opposite-Spin Energy      =      -0.7305765514526742 [Eh]
	 Correlation Energy        =      -0.9765570926650108 [Eh]
	 Total Energy              =    -568.3559069534783248 [Eh]

	 ================> DF-SCS-MP2 Energies <==================
	-----------------------------------------------------------
	 SCS Same-Spin Scale       =       0.3333333333333333 [-]
	 SCS Opposite-Spin Scale   =       1.2000000000000000 [-]
	 SCS Same-Spin Energy      =      -0.0819935137374455 [Eh]
	 SCS Opposite-Spin Energy  =      -0.8766918617432090 [Eh]
	 SCS Correlation Energy    =      -0.9586853754806546 [Eh]
	 SCS Total Energy          =    -568.3380352362939902 [Eh]
	-----------------------------------------------------------

  Dipole Moment: [D]
     X:     1.3533      Y:     1.1377      Z:    -0.2051     Total:     1.7799

*** Psi4 exiting successfully. Buy a developer a beer!
