                               Psi4 1.3.2 release

  ==> Input File <==

--------------------------------------------------------------------------
#psi4
#
memory 32 gb

molecule  {
0 1
  S        1.1830230     0.0407500    -0.0002230
  N       -1.2657710    -0.7786410     0.0002510
  C       -0.0644320     1.2156230    -0.0000300
  C       -1.2905570     0.5944340     0.0002340
  C       -0.0184830    -1.1998720     0.0000480
  H        0.1541457     2.2748911    -0.1001110
  H       -2.2450570     1.1086030     0.0003980
  H        0.2637610    -2.2461300     0.0000230
units angstrom
no_reorient  #important for SAPT in psi4, default
symmetry c1  #important for SAPT in psi4, default
}

set PROPERTIES_ORIGIN ["COM"]
properties('MP2/aug-cc-pvtz', properties = ['dipole'])
--------------------------------------------------------------------------

    Molecular point group: c1
  Charge       = 0
  Multiplicity = 1
  Basis Set: AUG-CC-PVTZ
    Blend: AUG-CC-PVTZ
  Basis Set: (AUG-CC-PVTZ AUX)
    Blend: AUG-CC-PVTZ-JKFIT

    Orbital Energies [Eh]
    ---------------------

    Doubly Occupied:

       1A    -92.003434     2A    -15.579055     3A    -11.314629
       4A    -11.275500     5A    -11.271482     6A     -9.004222
       7A     -6.685104     8A     -6.684589     9A     -6.683889
      10A     -1.280679    11A     -1.070668    12A     -1.003679
      13A     -0.804152    14A     -0.776835    15A     -0.697524
      16A     -0.596311    17A     -0.570263    18A     -0.560990
      19A     -0.510174    20A     -0.437936    21A     -0.394031
      22A     -0.343316

  @DF-RHF Final Energy:  -567.38235737344189

   => Energetics <=

    Nuclear Repulsion Energy =            204.7992893626386035
    One-Electron Energy =               -1185.2663682422894453
    Two-Electron Energy =                 413.0847215062090072
    Total Energy =                       -567.3823573734418915
  Basis Set: (AUG-CC-PVTZ AUX)
    Blend: AUG-CC-PVTZ-RI
    Molecular point group: c1

    Geometry (in Angstrom), charge = 0, multiplicity = 1:

       Center              X                  Y                   Z               Mass
    ------------   -----------------  -----------------  -----------------  -----------------
         S            1.162129734256     0.054068117766     0.000965973155    31.972071174400
         N           -1.286664265744    -0.765322882234     0.001439973155    14.003074004430
         C           -0.085325265744     1.228941117766     0.001158973155    12.000000000000
         C           -1.311450265744     0.607752117766     0.001422973155    12.000000000000
         C           -0.039376265744    -1.186553882234     0.001236973155    12.000000000000
         H            0.133252434256     2.288209217766    -0.098922026845     1.007825032230
         H           -2.265950265744     1.121921117766     0.001586973155     1.007825032230
         H            0.242867734256    -2.232811882234     0.001211973155     1.007825032230

  Basis Set: AUG-CC-PVTZ
    Blend: AUG-CC-PVTZ
  Basis Set: (AUG-CC-PVTZ AUX)
    Blend: AUG-CC-PVTZ-JKFIT
	 Reference Energy          =    -567.3823573734418915 [Eh]
	 Singles Energy            =      -0.0000000000000000 [Eh]
	 Same-Spin Energy          =      -0.2458208839378259 [Eh]
	 Opposite-Spin Energy      =      -0.7302447697705435 [Eh]
	 Correlation Energy        =      -0.9760656537083694 [Eh]
	 Total Energy              =    -568.3584230271502520 [Eh]

	 ================> DF-SCS-MP2 Energies <==================
	-----------------------------------------------------------
	 SCS Same-Spin Scale       =       0.3333333333333333 [-]
	 SCS Opposite-Spin Scale   =       1.2000000000000000 [-]
	 SCS Same-Spin Energy      =      -0.0819402946459420 [Eh]
	 SCS Opposite-Spin Energy  =      -0.8762937237246522 [Eh]
	 SCS Correlation Energy    =      -0.9582340183705942 [Eh]
	 SCS Total Energy          =    -568.3405913918124952 [Eh]
	-----------------------------------------------------------

  Dipole Moment: [D]
     X:     1.3658      Y:     1.1713      Z:    -0.0830     Total:     1.8012

*** Psi4 exiting successfully. Buy a developer a beer!
