                               Psi4 1.3.2 release

  ==> Input File <==

--------------------------------------------------------------------------
#psi4
#
memory 32 gb

molecule  {
0 1
  S        1.1830230     0.0407500    -0.0002230
  N       -1.2657710    -0.7786410     0.0002510
  C       -0.0644320     1.2156230    -0.0000300
  C       -1.2905570     0.5944340     0.0002340
  C       -0.0184830    -1.1998720     0.0000480
  H        0.1541070     2.2748833    -0.3001110
  H       -2.2450570     1.1086030     0.0003980
  H        0.2637610    -2.2461300     0.0000230
units angstrom
no_reorient  #important for SAPT in psi4, default
symmetry c1  #important for SAPT in psi4, default
}

set PROPERTIES_ORIGIN ["COM"]
properties('MP2/aug-cc-pvtz', properties = ['dipole'])
--------------------------------------------------------------------------

    Molecular point group: c1
  Charge       = 0
  Multiplicity = 1
  Basis Set: AUG-CC-PVTZ
    Blend: AUG-CC-PVTZ
  Basis Set: (AUG-CC-PVTZ AUX)
    Blend: AUG-CC-PVTZ-JKFIT

    Orbital Energies [Eh]
    ---------------------

    Doubly Occupied:

       1A    -92.003318     2A    -15.579481     3A    -11.315541
       4A    -11.276814     5A    -11.273801     6A     -9.004144
       7A     -6.685024     8A     -6.684487     9A     -6.683794
      10A     -1.281317    11A     -1.070079    12A     -1.003682
      13A     -0.801688    14A     -0.775845    15A     -0.693652
      16A     -0.596826    17A     -0.572619    18A     -0.553035
      19A     -0.510247    20A     -0.438285    21A     -0.394027
      22A     -0.343489

  @DF-RHF Final Energy:  -567.37758346781231

   => Energetics <=

    Nuclear Repulsion Energy =            204.6628043350826260
    One-Electron Energy =               -1184.9983848982424206
    Two-Electron Energy =                 412.9579970953474231
    Total Energy =                       -567.3775834678123147
  Basis Set: (AUG-CC-PVTZ AUX)
    Blend: AUG-CC-PVTZ-RI
    Molecular point group: c1

    Geometry (in Angstrom), charge = 0, multiplicity = 1:

       Center              X                  Y                   Z               Mass
    ------------   -----------------  -----------------  -----------------  -----------------
         S            1.162130193120     0.054068210250     0.003337364665    31.972071174400
         N           -1.286663806880    -0.765322789750     0.003811364665    14.003074004430
         C           -0.085324806880     1.228941210250     0.003530364665    12.000000000000
         C           -1.311449806880     0.607752210250     0.003794364665    12.000000000000
         C           -0.039375806880    -1.186553789750     0.003608364665    12.000000000000
         H            0.133214193120     2.288201510250    -0.296550635335     1.007825032230
         H           -2.265949806880     1.121921210250     0.003958364665     1.007825032230
         H            0.242868193120    -2.232811789750     0.003583364665     1.007825032230

  Basis Set: AUG-CC-PVTZ
    Blend: AUG-CC-PVTZ
  Basis Set: (AUG-CC-PVTZ AUX)
    Blend: AUG-CC-PVTZ-JKFIT
	 Reference Energy          =    -567.3775834678123147 [Eh]
	 Singles Energy            =      -0.0000000000000000 [Eh]
	 Same-Spin Energy          =      -0.2460623464883782 [Eh]
	 Opposite-Spin Energy      =      -0.7307586144875720 [Eh]
	 Correlation Energy        =      -0.9768209609759502 [Eh]
	 Total Energy              =    -568.3544044287882571 [Eh]

	 ================> DF-SCS-MP2 Energies <==================
	-----------------------------------------------------------
	 SCS Same-Spin Scale       =       0.3333333333333333 [-]
	 SCS Opposite-Spin Scale   =       1.2000000000000000 [-]
	 SCS Same-Spin Energy      =      -0.0820207821627927 [Eh]
	 SCS Opposite-Spin Energy  =      -0.8769103373850863 [Eh]
	 SCS Correlation Energy    =      -0.9589311195478790 [Eh]
	 SCS Total Energy          =    -568.3365145873601705 [Eh]
	-----------------------------------------------------------

  Dipole Moment: [D]
     X:     1.3472      Y:     1.1206      Z:    -0.2448     Total:     1.7694

*** Psi4 exiting successfully. Buy a developer a beer!
