                               Psi4 1.3.2 release

  ==> Input File <==

--------------------------------------------------------------------------
#psi4
#
memory 32 gb

molecule  {
0 1
  S        1.1830230     0.0407500    -0.0002230
  N       -1.2657710    -0.7786410     0.0002510
  C       -0.0644320     1.2156230    -0.0000300
  C       -1.2905570     0.5944340     0.0002340
  C       -0.0184830    -1.1998720     0.0000480
  H        0.1541650     2.2748950    -0.0001110
  H       -2.2450570     1.1086030     0.0003980
  H        0.2637701    -2.2461283     0.0500230
units angstrom
no_reorient  #important for SAPT in psi4, default
symmetry c1  #important for SAPT in psi4, default
}

set PROPERTIES_ORIGIN ["COM"]
properties('MP2/aug-cc-pvtz', properties = ['dipole'])
--------------------------------------------------------------------------

    Molecular point group: c1
  Charge       = 0
  Multiplicity = 1
  Basis Set: AUG-CC-PVTZ
    Blend: AUG-CC-PVTZ
  Basis Set: (AUG-CC-PVTZ AUX)
    Blend: AUG-CC-PVTZ-JKFIT

    Orbital Energies [Eh]
    ---------------------

    Doubly Occupied:

       1A    -92.003456     2A    -15.579026     3A    -11.314597
       4A    -11.275348     5A    -11.271208     6A     -9.004239
       7A     -6.685121     8A     -6.684608     9A     -6.683908
      10A     -1.280611    11A     -1.070763    12A     -1.003641
      13A     -0.804438    14A     -0.776833    15A     -0.698000
      16A     -0.596205    17A     -0.569768    18A     -0.562037
      19A     -0.510174    20A     -0.437898    21A     -0.394037
      22A     -0.343289

  @DF-RHF Final Energy:  -567.38272658767846

   => Energetics <=

    Nuclear Repulsion Energy =            204.8125496699875896
    One-Electron Energy =               -1185.2921427311357547
    Two-Electron Energy =                 413.0968664734697882
    Total Energy =                       -567.3827265876784622
  Basis Set: (AUG-CC-PVTZ AUX)
    Blend: AUG-CC-PVTZ-RI
    Molecular point group: c1

    Geometry (in Angstrom), charge = 0, multiplicity = 1:

       Center              X                  Y                   Z               Mass
    ------------   -----------------  -----------------  -----------------  -----------------
         S            1.162129397518     0.054068051367    -0.000812570477    31.972071174400
         N           -1.286664602482    -0.765322948633    -0.000338570477    14.003074004430
         C           -0.085325602482     1.228941051367    -0.000619570477    12.000000000000
         C           -1.311450602482     0.607752051367    -0.000355570477    12.000000000000
         C           -0.039376602482    -1.186553948633    -0.000541570477    12.000000000000
         H            0.133271397518     2.288213051367    -0.000700570477     1.007825032230
         H           -2.265950602482     1.121921051367    -0.000191570477     1.007825032230
         H            0.242876497518    -2.232810248633     0.049433429523     1.007825032230

  Basis Set: AUG-CC-PVTZ
    Blend: AUG-CC-PVTZ
  Basis Set: (AUG-CC-PVTZ AUX)
    Blend: AUG-CC-PVTZ-JKFIT
	 Reference Energy          =    -567.3827265876784622 [Eh]
	 Singles Energy            =      -0.0000000000000000 [Eh]
	 Same-Spin Energy          =      -0.2458022865166975 [Eh]
	 Opposite-Spin Energy      =      -0.7302054518765937 [Eh]
	 Correlation Energy        =      -0.9760077383932912 [Eh]
	 Total Energy              =    -568.3587343260717262 [Eh]

	 ================> DF-SCS-MP2 Energies <==================
	-----------------------------------------------------------
	 SCS Same-Spin Scale       =       0.3333333333333333 [-]
	 SCS Opposite-Spin Scale   =       1.2000000000000000 [-]
	 SCS Same-Spin Energy      =      -0.0819340955055658 [Eh]
	 SCS Opposite-Spin Energy  =      -0.8762465422519125 [Eh]
	 SCS Correlation Energy    =      -0.9581806377574783 [Eh]
	 SCS Total Energy          =    -568.3409072254358989 [Eh]
	-----------------------------------------------------------

  Dipole Moment: [D]
     X:     1.3675      Y:     1.1797      Z:     0.0367     Total:     1.8064

*** Psi4 exiting successfully. Buy a developer a beer!
