                               Psi4 1.3.2 release

  ==> Input File <==

--------------------------------------------------------------------------
#psi4
#
memory 32 gb

molecule  {
0 1
  S        1.1830230     0.0407500    -0.0002230
  N       -1.2657710    -0.7786410     0.0002510
  C       -0.0644320     1.2156230    -0.0000300
  C       -1.2905570     0.5944340     0.0002340
  C       -0.0184830    -1.1998720     0.0000480
  H        0.1541650     2.2748950    -0.0001110
  H       -2.2450570     1.1086030     0.0003980
  H        0.2637883    -2.2461248     0.1500230
units angstrom
no_reorient  #important for SAPT in psi4, default
symmetry c1  #important for SAPT in psi4, default
}

set PROPERTIES_ORIGIN ["COM"]
properties('MP2/aug-cc-pvtz', properties = ['dipole'])
--------------------------------------------------------------------------

    Molecular point group: c1
  Charge       = 0
  Multiplicity = 1
  Basis Set: AUG-CC-PVTZ
    Blend: AUG-CC-PVTZ
  Basis Set: (AUG-CC-PVTZ AUX)
    Blend: AUG-CC-PVTZ-JKFIT

    Orbital Energies [Eh]
    ---------------------

    Doubly Occupied:

       1A    -92.003467     2A    -15.579222     3A    -11.315270
       4A    -11.275481     5A    -11.271416     6A     -9.004259
       7A     -6.685139     8A     -6.684622     9A     -6.683923
      10A     -1.280711    11A     -1.070854    12A     -1.003312
      13A     -0.803779    14A     -0.775821    15A     -0.697766
      16A     -0.595894    17A     -0.571013    18A     -0.559666
      19A     -0.510243    20A     -0.437945    21A     -0.394067
      22A     -0.343241

  @DF-RHF Final Energy:  -567.38154827056212

   => Energetics <=

    Nuclear Repulsion Energy =            204.7766670741383450
    One-Electron Energy =               -1185.2222096186239924
    Two-Electron Energy =                 413.0639942739236403
    Total Energy =                       -567.3815482705620070
  Basis Set: (AUG-CC-PVTZ AUX)
    Blend: AUG-CC-PVTZ-RI
    Molecular point group: c1

    Geometry (in Angstrom), charge = 0, multiplicity = 1:

       Center              X                  Y                   Z               Mass
    ------------   -----------------  -----------------  -----------------  -----------------
         S            1.162129181722     0.054068009868    -0.001998266231    31.972071174400
         N           -1.286664818278    -0.765322990132    -0.001524266231    14.003074004430
         C           -0.085325818278     1.228941009868    -0.001805266231    12.000000000000
         C           -1.311450818278     0.607752009868    -0.001541266231    12.000000000000
         C           -0.039376818278    -1.186553990132    -0.001727266231    12.000000000000
         H            0.133271181722     2.288213009868    -0.001886266231     1.007825032230
         H           -2.265950818278     1.121921009868    -0.001377266231     1.007825032230
         H            0.242894481722    -2.232806790132     0.148247733769     1.007825032230

  Basis Set: AUG-CC-PVTZ
    Blend: AUG-CC-PVTZ
  Basis Set: (AUG-CC-PVTZ AUX)
    Blend: AUG-CC-PVTZ-JKFIT
	 Reference Energy          =    -567.3815482705621207 [Eh]
	 Singles Energy            =      -0.0000000000000000 [Eh]
	 Same-Spin Energy          =      -0.2459001640846839 [Eh]
	 Opposite-Spin Energy      =      -0.7303753755348390 [Eh]
	 Correlation Energy        =      -0.9762755396195228 [Eh]
	 Total Energy              =    -568.3578238101816851 [Eh]

	 ================> DF-SCS-MP2 Energies <==================
	-----------------------------------------------------------
	 SCS Same-Spin Scale       =       0.3333333333333333 [-]
	 SCS Opposite-Spin Scale   =       1.2000000000000000 [-]
	 SCS Same-Spin Energy      =      -0.0819667213615613 [Eh]
	 SCS Opposite-Spin Energy  =      -0.8764504506418068 [Eh]
	 SCS Correlation Energy    =      -0.9584171720033681 [Eh]
	 SCS Total Energy          =    -568.3399654425654717 [Eh]
	-----------------------------------------------------------

  Dipole Moment: [D]
     X:     1.3612      Y:     1.1939      Z:     0.1103     Total:     1.8140

*** Psi4 exiting successfully. Buy a developer a beer!
