                               Psi4 1.3.2 release

  ==> Input File <==

--------------------------------------------------------------------------
#psi4
#
memory 32 gb

molecule  {
0 1
  S        1.1830230     0.0407500    -0.0002230
  N       -1.2657710    -0.7786410     0.0002510
  C       -0.0644320     1.2156230    -0.0000300
  C       -1.2905570     0.5944340     0.0002340
  C       -0.0184830    -1.1998720     0.0000480
  H        0.1541263     2.2748872    -0.2001110
  H       -2.2450570     1.1086030     0.0003980
  H        0.2637610    -2.2461300     0.0000230
units angstrom
no_reorient  #important for SAPT in psi4, default
symmetry c1  #important for SAPT in psi4, default
}

set PROPERTIES_ORIGIN ["COM"]
properties('MP2/aug-cc-pvtz', properties = ['dipole'])
--------------------------------------------------------------------------

    Molecular point group: c1
  Charge       = 0
  Multiplicity = 1
  Basis Set: AUG-CC-PVTZ
    Blend: AUG-CC-PVTZ
  Basis Set: (AUG-CC-PVTZ AUX)
    Blend: AUG-CC-PVTZ-JKFIT

    Orbital Energies [Eh]
    ---------------------

    Doubly Occupied:

       1A    -92.003382     2A    -15.579215     3A    -11.314977
       4A    -11.275998     5A    -11.272369     6A     -9.004185
       7A     -6.685067     8A     -6.684543     9A     -6.683846
      10A     -1.280921    11A     -1.070432    12A     -1.003673
      13A     -0.803121    14A     -0.776462    15A     -0.696035
      16A     -0.596508    17A     -0.571534    18A     -0.557631
      19A     -0.510201    20A     -0.438068    21A     -0.394027
      22A     -0.343379

  @DF-RHF Final Energy:  -567.38070195036482

   => Energetics <=

    Nuclear Repulsion Energy =            204.7469176509885642
    One-Electron Energy =               -1185.1640918503881039
    Two-Electron Energy =                 413.0364722490348299
    Total Energy =                       -567.3807019503647098
  Basis Set: (AUG-CC-PVTZ AUX)
    Blend: AUG-CC-PVTZ-RI
    Molecular point group: c1

    Geometry (in Angstrom), charge = 0, multiplicity = 1:

       Center              X                  Y                   Z               Mass
    ------------   -----------------  -----------------  -----------------  -----------------
         S            1.162129964281     0.054068164008     0.002151668910    31.972071174400
         N           -1.286664035719    -0.765322835992     0.002625668910    14.003074004430
         C           -0.085325035719     1.228941164008     0.002344668910    12.000000000000
         C           -1.311450035719     0.607752164008     0.002608668910    12.000000000000
         C           -0.039376035719    -1.186553835992     0.002422668910    12.000000000000
         H            0.133233264281     2.288205364008    -0.197736331090     1.007825032230
         H           -2.265950035719     1.121921164008     0.002772668910     1.007825032230
         H            0.242867964281    -2.232811835992     0.002397668910     1.007825032230

  Basis Set: AUG-CC-PVTZ
    Blend: AUG-CC-PVTZ
  Basis Set: (AUG-CC-PVTZ AUX)
    Blend: AUG-CC-PVTZ-JKFIT
	 Reference Energy          =    -567.3807019503648235 [Eh]
	 Singles Energy            =      -0.0000000000000000 [Eh]
	 Same-Spin Energy          =      -0.2459126503135266 [Eh]
	 Opposite-Spin Energy      =      -0.7304313965140707 [Eh]
	 Correlation Energy        =      -0.9763440468275973 [Eh]
	 Total Energy              =    -568.3570459971924720 [Eh]

	 ================> DF-SCS-MP2 Energies <==================
	-----------------------------------------------------------
	 SCS Same-Spin Scale       =       0.3333333333333333 [-]
	 SCS Opposite-Spin Scale   =       1.2000000000000000 [-]
	 SCS Same-Spin Energy      =      -0.0819708834378422 [Eh]
	 SCS Opposite-Spin Energy  =      -0.8765176758168849 [Eh]
	 SCS Correlation Energy    =      -0.9584885592547271 [Eh]
	 SCS Total Energy          =    -568.3391905096195842 [Eh]
	-----------------------------------------------------------

  Dipole Moment: [D]
     X:     1.3585      Y:     1.1519      Z:    -0.1648     Total:     1.7888

*** Psi4 exiting successfully. Buy a developer a beer!
