                               Psi4 1.3.2 release

  ==> Input File <==

--------------------------------------------------------------------------
#psi4
#
memory 32 gb

molecule  {
0 1
  S        1.1830230     0.0407500    -0.0002230
  N       -1.2657710    -0.7786410     0.0002510
  C       -0.0644320     1.2156230    -0.0000300
  C       -1.2905570     0.5944340     0.0002340
  C       -0.0184830    -1.1998720     0.0000480
  H        0.1541553     2.2748931    -0.0501110
  H       -2.2450570     1.1086030     0.0003980
  H        0.2637610    -2.2461300     0.0000230
units angstrom
no_reorient  #important for SAPT in psi4, default
symmetry c1  #important for SAPT in psi4, default
}

set PROPERTIES_ORIGIN ["COM"]
properties('MP2/aug-cc-pvtz', properties = ['dipole'])
--------------------------------------------------------------------------

    Molecular point group: c1
  Charge       = 0
  Multiplicity = 1
  Basis Set: AUG-CC-PVTZ
    Blend: AUG-CC-PVTZ
  Basis Set: (AUG-CC-PVTZ AUX)
    Blend: AUG-CC-PVTZ-JKFIT

    Orbital Energies [Eh]
    ---------------------

    Doubly Occupied:

       1A    -92.003450     2A    -15.579015     3A    -11.314542
       4A    -11.275374     5A    -11.271258     6A     -9.004233
       7A     -6.685115     8A     -6.684602     9A     -6.683902
      10A     -1.280618    11A     -1.070730    12A     -1.003682
      13A     -0.804432    14A     -0.776928    15A     -0.697903
      16A     -0.596260    17A     -0.569757    18A     -0.562016
      19A     -0.510167    20A     -0.437903    21A     -0.394033
      22A     -0.343300

  @DF-RHF Final Energy:  -567.38274243866067

   => Energetics <=

    Nuclear Repulsion Energy =            204.8126179043642026
    One-Electron Energy =               -1185.2922839600137195
    Two-Electron Energy =                 413.0969236169888745
    Total Energy =                       -567.3827424386606708
  Basis Set: (AUG-CC-PVTZ AUX)
    Blend: AUG-CC-PVTZ-RI
    Molecular point group: c1

    Geometry (in Angstrom), charge = 0, multiplicity = 1:

       Center              X                  Y                   Z               Mass
    ------------   -----------------  -----------------  -----------------  -----------------
         S            1.162129620429     0.054068094052     0.000373125278    31.972071174400
         N           -1.286664379571    -0.765322905948     0.000847125278    14.003074004430
         C           -0.085325379571     1.228941094052     0.000566125278    12.000000000000
         C           -1.311450379571     0.607752094052     0.000830125278    12.000000000000
         C           -0.039376379571    -1.186553905948     0.000644125278    12.000000000000
         H            0.133261920429     2.288211194052    -0.049514874722     1.007825032230
         H           -2.265950379571     1.121921094052     0.000994125278     1.007825032230
         H            0.242867620429    -2.232811905948     0.000619125278     1.007825032230

  Basis Set: AUG-CC-PVTZ
    Blend: AUG-CC-PVTZ
  Basis Set: (AUG-CC-PVTZ AUX)
    Blend: AUG-CC-PVTZ-JKFIT
	 Reference Energy          =    -567.3827424386606708 [Eh]
	 Singles Energy            =      -0.0000000000000000 [Eh]
	 Same-Spin Energy          =      -0.2457977438074361 [Eh]
	 Opposite-Spin Energy      =      -0.7301996167824825 [Eh]
	 Correlation Energy        =      -0.9759973605899186 [Eh]
	 Total Energy              =    -568.3587397992505430 [Eh]

	 ================> DF-SCS-MP2 Energies <==================
	-----------------------------------------------------------
	 SCS Same-Spin Scale       =       0.3333333333333333 [-]
	 SCS Opposite-Spin Scale   =       1.2000000000000000 [-]
	 SCS Same-Spin Energy      =      -0.0819325812691454 [Eh]
	 SCS Opposite-Spin Energy  =      -0.8762395401389790 [Eh]
	 SCS Correlation Energy    =      -0.9581721214081244 [Eh]
	 SCS Total Energy          =    -568.3409145600687680 [Eh]
	-----------------------------------------------------------

  Dipole Moment: [D]
     X:     1.3676      Y:     1.1762      Z:    -0.0417     Total:     1.8044

*** Psi4 exiting successfully. Buy a developer a beer!
