                               Psi4 1.3.2 release

  ==> Input File <==

--------------------------------------------------------------------------
#psi4
#
memory 32 gb

molecule  {
0 1
  S        1.1830230     0.0407500    -0.0002230
  N       -1.2657710    -0.7786410     0.0002510
  C       -0.0644320     1.2156230    -0.0000300
  C       -1.2905570     0.5944340     0.0002340
  C       -0.0184830    -1.1998720     0.0000480
  H        0.1541650     2.2748950    -0.0001110
  H       -2.2450472     1.1086042     0.0503980
  H        0.2637610    -2.2461300     0.0000230
units angstrom
no_reorient  #important for SAPT in psi4, default
symmetry c1  #important for SAPT in psi4, default
}

set PROPERTIES_ORIGIN ["COM"]
properties('MP2/aug-cc-pvtz', properties = ['dipole'])
--------------------------------------------------------------------------

    Molecular point group: c1
  Charge       = 0
  Multiplicity = 1
  Basis Set: AUG-CC-PVTZ
    Blend: AUG-CC-PVTZ
  Basis Set: (AUG-CC-PVTZ AUX)
    Blend: AUG-CC-PVTZ-JKFIT

    Orbital Energies [Eh]
    ---------------------

    Doubly Occupied:

       1A    -92.003472     2A    -15.579012     3A    -11.314522
       4A    -11.275426     5A    -11.271218     6A     -9.004254
       7A     -6.685136     8A     -6.684624     9A     -6.683923
      10A     -1.280608    11A     -1.070769    12A     -1.003643
      13A     -0.804533    14A     -0.776823    15A     -0.697956
      16A     -0.596157    17A     -0.569572    18A     -0.562353
      19A     -0.510081    20A     -0.437901    21A     -0.394039
      22A     -0.343290

  @DF-RHF Final Energy:  -567.38271671339635

   => Energetics <=

    Nuclear Repulsion Energy =            204.8127191712611932
    One-Electron Energy =               -1185.2922454510376156
    Two-Electron Energy =                 413.0968095663801591
    Total Energy =                       -567.3827167133963485
  Basis Set: (AUG-CC-PVTZ AUX)
    Blend: AUG-CC-PVTZ-RI
    Molecular point group: c1

    Geometry (in Angstrom), charge = 0, multiplicity = 1:

       Center              X                  Y                   Z               Mass
    ------------   -----------------  -----------------  -----------------  -----------------
         S            1.162129389218     0.054068057296    -0.000812570477    31.972071174400
         N           -1.286664610782    -0.765322942704    -0.000338570477    14.003074004430
         C           -0.085325610782     1.228941057296    -0.000619570477    12.000000000000
         C           -1.311450610782     0.607752057296    -0.000355570477    12.000000000000
         C           -0.039376610782    -1.186553942704    -0.000541570477    12.000000000000
         H            0.133271389218     2.288213057296    -0.000700570477     1.007825032230
         H           -2.265940810782     1.121922257296     0.049808429523     1.007825032230
         H            0.242867389218    -2.232811942704    -0.000566570477     1.007825032230

  Basis Set: AUG-CC-PVTZ
    Blend: AUG-CC-PVTZ
  Basis Set: (AUG-CC-PVTZ AUX)
    Blend: AUG-CC-PVTZ-JKFIT
	 Reference Energy          =    -567.3827167133963485 [Eh]
	 Singles Energy            =      -0.0000000000000000 [Eh]
	 Same-Spin Energy          =      -0.2457991591192273 [Eh]
	 Opposite-Spin Energy      =      -0.7302025588767955 [Eh]
	 Correlation Energy        =      -0.9760017179960229 [Eh]
	 Total Energy              =    -568.3587184313923899 [Eh]

	 ================> DF-SCS-MP2 Energies <==================
	-----------------------------------------------------------
	 SCS Same-Spin Scale       =       0.3333333333333333 [-]
	 SCS Opposite-Spin Scale   =       1.2000000000000000 [-]
	 SCS Same-Spin Energy      =      -0.0819330530397424 [Eh]
	 SCS Opposite-Spin Energy  =      -0.8762430706521546 [Eh]
	 SCS Correlation Energy    =      -0.9581761236918970 [Eh]
	 SCS Total Energy          =    -568.3408928370882904 [Eh]
	-----------------------------------------------------------

  Dipole Moment: [D]
     X:     1.3699      Y:     1.1769      Z:     0.0389     Total:     1.8065

*** Psi4 exiting successfully. Buy a developer a beer!
