                               Psi4 1.3.2 release

  ==> Input File <==

--------------------------------------------------------------------------
#psi4
#
memory 32 gb

molecule  {
0 1
  S        1.1830230     0.0407500    -0.0002230
  N       -1.2657710    -0.7786410     0.0002510
  C       -0.0644320     1.2156230    -0.0000300
  C       -1.2905570     0.5944340     0.0002340
  C       -0.0184830    -1.1998720     0.0000480
  H        0.1541650     2.2748950    -0.0001110
  H       -2.2450570     1.1086030     0.0003980
  H        0.2638065    -2.2461214     0.2500230
units angstrom
no_reorient  #important for SAPT in psi4, default
symmetry c1  #important for SAPT in psi4, default
}

set PROPERTIES_ORIGIN ["COM"]
properties('MP2/aug-cc-pvtz', properties = ['dipole'])
--------------------------------------------------------------------------

    Molecular point group: c1
  Charge       = 0
  Multiplicity = 1
  Basis Set: AUG-CC-PVTZ
    Blend: AUG-CC-PVTZ
  Basis Set: (AUG-CC-PVTZ AUX)
    Blend: AUG-CC-PVTZ-JKFIT

    Orbital Energies [Eh]
    ---------------------

    Doubly Occupied:

       1A    -92.003501     2A    -15.579609     3A    -11.316587
       4A    -11.275744     5A    -11.271823     6A     -9.004308
       7A     -6.685184     8A     -6.684658     9A     -6.683962
      10A     -1.280911    11A     -1.071036    12A     -1.002705
      13A     -0.802698    14A     -0.773771    15A     -0.697299
      16A     -0.595265    17A     -0.572485    18A     -0.555960
      19A     -0.510380    20A     -0.438020    21A     -0.394131
      22A     -0.343153

  @DF-RHF Final Energy:  -567.37896814584735

   => Energetics <=

    Nuclear Repulsion Energy =            204.7068711067961431
    One-Electron Energy =               -1185.0852942888298003
    Two-Electron Energy =                 412.9994550361863048
    Total Energy =                       -567.3789681458473524
  Basis Set: (AUG-CC-PVTZ AUX)
    Blend: AUG-CC-PVTZ-RI
    Molecular point group: c1

    Geometry (in Angstrom), charge = 0, multiplicity = 1:

       Center              X                  Y                   Z               Mass
    ------------   -----------------  -----------------  -----------------  -----------------
         S            1.162128965925     0.054067969554    -0.003183961986    31.972071174400
         N           -1.286665034075    -0.765323030446    -0.002709961986    14.003074004430
         C           -0.085326034075     1.228940969554    -0.002990961986    12.000000000000
         C           -1.311451034075     0.607751969554    -0.002726961986    12.000000000000
         C           -0.039377034075    -1.186554030446    -0.002912961986    12.000000000000
         H            0.133270965925     2.288212969554    -0.003071961986     1.007825032230
         H           -2.265951034075     1.121920969554    -0.002562961986     1.007825032230
         H            0.242912465925    -2.232803430446     0.247062038014     1.007825032230

  Basis Set: AUG-CC-PVTZ
    Blend: AUG-CC-PVTZ
  Basis Set: (AUG-CC-PVTZ AUX)
    Blend: AUG-CC-PVTZ-JKFIT
	 Reference Energy          =    -567.3789681458473524 [Eh]
	 Singles Energy            =      -0.0000000000000000 [Eh]
	 Same-Spin Energy          =      -0.2460933549201394 [Eh]
	 Opposite-Spin Energy      =      -0.7307297537214443 [Eh]
	 Correlation Energy        =      -0.9768231086415837 [Eh]
	 Total Energy              =    -568.3557912544889632 [Eh]

	 ================> DF-SCS-MP2 Energies <==================
	-----------------------------------------------------------
	 SCS Same-Spin Scale       =       0.3333333333333333 [-]
	 SCS Opposite-Spin Scale   =       1.2000000000000000 [-]
	 SCS Same-Spin Energy      =      -0.0820311183067131 [Eh]
	 SCS Opposite-Spin Energy  =      -0.8768757044657332 [Eh]
	 SCS Correlation Energy    =      -0.9589068227724463 [Eh]
	 SCS Total Energy          =    -568.3378749686197580 [Eh]
	-----------------------------------------------------------

  Dipole Moment: [D]
     X:     1.3490      Y:     1.2220      Z:     0.1828     Total:     1.8293

*** Psi4 exiting successfully. Buy a developer a beer!
