                               Psi4 1.3.2 release

  ==> Input File <==

--------------------------------------------------------------------------
#psi4
#
memory 32 gb

molecule  {
0 1
  S        1.1830230     0.0407500    -0.0002230
  N       -1.2657710    -0.7786410     0.0002510
  C       -0.0644320     1.2156230    -0.0000300
  C       -1.2905570     0.5944340     0.0002340
  C       -0.0184830    -1.1998720     0.0000480
  H        0.1541650     2.2748950    -0.0001110
  H       -2.2450570     1.1086030     0.0003980
  H        0.2637974    -2.2461231     0.2000230
units angstrom
no_reorient  #important for SAPT in psi4, default
symmetry c1  #important for SAPT in psi4, default
}

set PROPERTIES_ORIGIN ["COM"]
properties('MP2/aug-cc-pvtz', properties = ['dipole'])
--------------------------------------------------------------------------

    Molecular point group: c1
  Charge       = 0
  Multiplicity = 1
  Basis Set: AUG-CC-PVTZ
    Blend: AUG-CC-PVTZ
  Basis Set: (AUG-CC-PVTZ AUX)
    Blend: AUG-CC-PVTZ-JKFIT

    Orbital Energies [Eh]
    ---------------------

    Doubly Occupied:

       1A    -92.003480     2A    -15.579392     3A    -11.315851
       4A    -11.275596     5A    -11.271595     6A     -9.004279
       7A     -6.685157     8A     -6.684636     9A     -6.683938
      10A     -1.280799    11A     -1.070933    12A     -1.003038
      13A     -0.803270    14A     -0.774926    15A     -0.697561
      16A     -0.595620    17A     -0.571757    18A     -0.557942
      19A     -0.510303    20A     -0.437981    21A     -0.394094
      22A     -0.343201

  @DF-RHF Final Energy:  -567.38045402645639

   => Energetics <=

    Nuclear Repulsion Energy =            204.7458156027449832
    One-Electron Energy =               -1185.1618325173403719
    Two-Electron Energy =                 413.0355628881389976
    Total Energy =                       -567.3804540264563911
  Basis Set: (AUG-CC-PVTZ AUX)
    Blend: AUG-CC-PVTZ-RI
    Molecular point group: c1

    Geometry (in Angstrom), charge = 0, multiplicity = 1:

       Center              X                  Y                   Z               Mass
    ------------   -----------------  -----------------  -----------------  -----------------
         S            1.162129073823     0.054067989711    -0.002591114109    31.972071174400
         N           -1.286664926177    -0.765323010289    -0.002117114109    14.003074004430
         C           -0.085325926177     1.228940989711    -0.002398114109    12.000000000000
         C           -1.311450926177     0.607751989711    -0.002134114109    12.000000000000
         C           -0.039376926177    -1.186554010289    -0.002320114109    12.000000000000
         H            0.133271073823     2.288212989711    -0.002479114109     1.007825032230
         H           -2.265950926177     1.121920989711    -0.001970114109     1.007825032230
         H            0.242903473823    -2.232805110289     0.197654885891     1.007825032230

  Basis Set: AUG-CC-PVTZ
    Blend: AUG-CC-PVTZ
  Basis Set: (AUG-CC-PVTZ AUX)
    Blend: AUG-CC-PVTZ-JKFIT
	 Reference Energy          =    -567.3804540264563911 [Eh]
	 Singles Energy            =      -0.0000000000000000 [Eh]
	 Same-Spin Energy          =      -0.2459851603983141 [Eh]
	 Opposite-Spin Energy      =      -0.7305285245128852 [Eh]
	 Correlation Energy        =      -0.9765136849111993 [Eh]
	 Total Energy              =    -568.3569677113675880 [Eh]

	 ================> DF-SCS-MP2 Energies <==================
	-----------------------------------------------------------
	 SCS Same-Spin Scale       =       0.3333333333333333 [-]
	 SCS Opposite-Spin Scale   =       1.2000000000000000 [-]
	 SCS Same-Spin Energy      =      -0.0819950534661047 [Eh]
	 SCS Opposite-Spin Energy  =      -0.8766342294154622 [Eh]
	 SCS Correlation Energy    =      -0.9586292828815669 [Eh]
	 SCS Total Energy          =    -568.3390833093379797 [Eh]
	-----------------------------------------------------------

  Dipole Moment: [D]
     X:     1.3558      Y:     1.2063      Z:     0.1467     Total:     1.8207

*** Psi4 exiting successfully. Buy a developer a beer!
