                               Psi4 1.3.2 release

  ==> Input File <==

--------------------------------------------------------------------------
#psi4
#
memory 32 gb

molecule  {
0 1
  S        1.1830230     0.0407500    -0.0002230
  N       -1.2657710    -0.7786410     0.0002510
  C       -0.0644320     1.2156230    -0.0000300
  C       -1.2905570     0.5944340     0.0002340
  C       -0.0184830    -1.1998720     0.0000480
  H        0.1541650     2.2748950    -0.0001110
  H       -2.2449985     1.1086100     0.3003980
  H        0.2637610    -2.2461300     0.0000230
units angstrom
no_reorient  #important for SAPT in psi4, default
symmetry c1  #important for SAPT in psi4, default
}

set PROPERTIES_ORIGIN ["COM"]
properties('MP2/aug-cc-pvtz', properties = ['dipole'])
--------------------------------------------------------------------------

    Molecular point group: c1
  Charge       = 0
  Multiplicity = 1
  Basis Set: AUG-CC-PVTZ
    Blend: AUG-CC-PVTZ
  Basis Set: (AUG-CC-PVTZ AUX)
    Blend: AUG-CC-PVTZ-JKFIT

    Orbital Energies [Eh]
    ---------------------

    Doubly Occupied:

       1A    -92.004073     2A    -15.579377     3A    -11.314866
       4A    -11.278654     5A    -11.272433     6A     -9.004864
       7A     -6.685739     8A     -6.685229     9A     -6.684529
      10A     -1.280948    11A     -1.071396    12A     -1.002395
      13A     -0.804799    14A     -0.772639    15A     -0.695501
      16A     -0.593220    17A     -0.570193    18A     -0.561048
      19A     -0.506973    20A     -0.438244    21A     -0.394242
      22A     -0.343120

  @DF-RHF Final Energy:  -567.37672485504879

   => Energetics <=

    Nuclear Repulsion Energy =            204.6663477406782761
    One-Electron Energy =               -1184.9971835599953920
    Two-Electron Energy =                 412.9541109642683523
    Total Energy =                       -567.3767248550487921
  Basis Set: (AUG-CC-PVTZ AUX)
    Blend: AUG-CC-PVTZ-RI
    Molecular point group: c1

    Geometry (in Angstrom), charge = 0, multiplicity = 1:

       Center              X                  Y                   Z               Mass
    ------------   -----------------  -----------------  -----------------  -----------------
         S            1.162128811785     0.054067988525    -0.003776809864    31.972071174400
         N           -1.286665188215    -0.765323011475    -0.003302809864    14.003074004430
         C           -0.085326188215     1.228940988525    -0.003583809864    12.000000000000
         C           -1.311451188215     0.607751988525    -0.003319809864    12.000000000000
         C           -0.039377188215    -1.186554011475    -0.003505809864    12.000000000000
         H            0.133270811785     2.288212988525    -0.003664809864     1.007825032230
         H           -2.265892688215     1.121927988525     0.296844190136     1.007825032230
         H            0.242866811785    -2.232812011475    -0.003530809864     1.007825032230

  Basis Set: AUG-CC-PVTZ
    Blend: AUG-CC-PVTZ
  Basis Set: (AUG-CC-PVTZ AUX)
    Blend: AUG-CC-PVTZ-JKFIT
	 Reference Energy          =    -567.3767248550487921 [Eh]
	 Singles Energy            =      -0.0000000000000000 [Eh]
	 Same-Spin Energy          =      -0.2461126254381799 [Eh]
	 Opposite-Spin Energy      =      -0.7309298729097337 [Eh]
	 Correlation Energy        =      -0.9770424983479136 [Eh]
	 Total Energy              =    -568.3537673533967336 [Eh]

	 ================> DF-SCS-MP2 Energies <==================
	-----------------------------------------------------------
	 SCS Same-Spin Scale       =       0.3333333333333333 [-]
	 SCS Opposite-Spin Scale   =       1.2000000000000000 [-]
	 SCS Same-Spin Energy      =      -0.0820375418127266 [Eh]
	 SCS Opposite-Spin Energy  =      -0.8771158474916804 [Eh]
	 SCS Correlation Energy    =      -0.9591533893044070 [Eh]
	 SCS Total Energy          =    -568.3358782443532391 [Eh]
	-----------------------------------------------------------

  Dipole Moment: [D]
     X:     1.4260      Y:     1.1427      Z:     0.2300     Total:     1.8417

*** Psi4 exiting successfully. Buy a developer a beer!
