                               Psi4 1.3.2 release

  ==> Input File <==

--------------------------------------------------------------------------
#psi4
#
memory 32 gb

molecule  {
0 1
  S        1.1830230     0.0407500    -0.0002230
  N       -1.2657710    -0.7786410     0.0002510
  C       -0.0644320     1.2156230    -0.0000300
  C       -1.2905570     0.5944340     0.0002340
  C       -0.0184830    -1.1998720     0.0000480
  H        0.1541650     2.2748950    -0.0001110
  H       -2.2450180     1.1086077     0.2003980
  H        0.2637610    -2.2461300     0.0000230
units angstrom
no_reorient  #important for SAPT in psi4, default
symmetry c1  #important for SAPT in psi4, default
}

set PROPERTIES_ORIGIN ["COM"]
properties('MP2/aug-cc-pvtz', properties = ['dipole'])
--------------------------------------------------------------------------

    Molecular point group: c1
  Charge       = 0
  Multiplicity = 1
  Basis Set: AUG-CC-PVTZ
    Blend: AUG-CC-PVTZ
  Basis Set: (AUG-CC-PVTZ AUX)
    Blend: AUG-CC-PVTZ-JKFIT

    Orbital Energies [Eh]
    ---------------------

    Doubly Occupied:

       1A    -92.003730     2A    -15.579165     3A    -11.314668
       4A    -11.276829     5A    -11.271748     6A     -9.004516
       7A     -6.685396     8A     -6.684884     9A     -6.684184
      10A     -1.280752    11A     -1.071039    12A     -1.003073
      13A     -0.804638    14A     -0.774904    15A     -0.696873
      16A     -0.594879    17A     -0.569840    18A     -0.561775
      19A     -0.508788    20A     -0.438050    21A     -0.394124
      22A     -0.343210

  @DF-RHF Final Energy:  -567.38030350331758

   => Energetics <=

    Nuclear Repulsion Energy =            204.7485076572276910
    One-Electron Energy =               -1185.1634935008160028
    Two-Electron Energy =                 413.0346823402707059
    Total Energy =                       -567.3803035033175775
  Basis Set: (AUG-CC-PVTZ AUX)
    Blend: AUG-CC-PVTZ-RI
    Molecular point group: c1

    Geometry (in Angstrom), charge = 0, multiplicity = 1:

       Center              X                  Y                   Z               Mass
    ------------   -----------------  -----------------  -----------------  -----------------
         S            1.162129042995     0.054068015796    -0.002591114109    31.972071174400
         N           -1.286664957005    -0.765322984204    -0.002117114109    14.003074004430
         C           -0.085325957005     1.228941015796    -0.002398114109    12.000000000000
         C           -1.311450957005     0.607752015796    -0.002134114109    12.000000000000
         C           -0.039376957005    -1.186553984204    -0.002320114109    12.000000000000
         H            0.133271042995     2.288213015796    -0.002479114109     1.007825032230
         H           -2.265911957005     1.121925715796     0.198029885891     1.007825032230
         H            0.242867042995    -2.232811984204    -0.002345114109     1.007825032230

  Basis Set: AUG-CC-PVTZ
    Blend: AUG-CC-PVTZ
  Basis Set: (AUG-CC-PVTZ AUX)
    Blend: AUG-CC-PVTZ-JKFIT
	 Reference Energy          =    -567.3803035033175775 [Eh]
	 Singles Energy            =      -0.0000000000000000 [Eh]
	 Same-Spin Energy          =      -0.2459352290255173 [Eh]
	 Opposite-Spin Energy      =      -0.7304969622346755 [Eh]
	 Correlation Energy        =      -0.9764321912601928 [Eh]
	 Total Energy              =    -568.3567356945777647 [Eh]

	 ================> DF-SCS-MP2 Energies <==================
	-----------------------------------------------------------
	 SCS Same-Spin Scale       =       0.3333333333333333 [-]
	 SCS Opposite-Spin Scale   =       1.2000000000000000 [-]
	 SCS Same-Spin Energy      =      -0.0819784096751724 [Eh]
	 SCS Opposite-Spin Energy  =      -0.8765963546816106 [Eh]
	 SCS Correlation Energy    =      -0.9585747643567830 [Eh]
	 SCS Total Energy          =    -568.3388782676743176 [Eh]
	-----------------------------------------------------------

  Dipole Moment: [D]
     X:     1.3943      Y:     1.1621      Z:     0.1550     Total:     1.8217

*** Psi4 exiting successfully. Buy a developer a beer!
