                               Psi4 1.3.2 release

  ==> Input File <==

--------------------------------------------------------------------------
#psi4
#
memory 32 gb

molecule  {
0 1
  S        1.1830230     0.0407500    -0.0002230
  N       -1.2657710    -0.7786410     0.0002510
  C       -0.0644320     1.2156230    -0.0000300
  C       -1.2905570     0.5944340     0.0002340
  C       -0.0184830    -1.1998720     0.0000480
  H        0.1541650     2.2748950    -0.0001110
  H       -2.2450082     1.1086088     0.2503980
  H        0.2637610    -2.2461300     0.0000230
units angstrom
no_reorient  #important for SAPT in psi4, default
symmetry c1  #important for SAPT in psi4, default
}

set PROPERTIES_ORIGIN ["COM"]
properties('MP2/aug-cc-pvtz', properties = ['dipole'])
--------------------------------------------------------------------------

    Molecular point group: c1
  Charge       = 0
  Multiplicity = 1
  Basis Set: AUG-CC-PVTZ
    Blend: AUG-CC-PVTZ
  Basis Set: (AUG-CC-PVTZ AUX)
    Blend: AUG-CC-PVTZ-JKFIT

    Orbital Energies [Eh]
    ---------------------

    Doubly Occupied:

       1A    -92.003884     2A    -15.579259     3A    -11.314756
       4A    -11.277657     5A    -11.272059     6A     -9.004673
       7A     -6.685551     8A     -6.685040     9A     -6.684339
      10A     -1.280840    11A     -1.071200    12A     -1.002757
      13A     -0.804708    14A     -0.773845    15A     -0.696245
      16A     -0.594125    17A     -0.569999    18A     -0.561442
      19A     -0.507984    20A     -0.438138    21A     -0.394176
      22A     -0.343167

  @DF-RHF Final Energy:  -567.37873943310376

   => Energetics <=

    Nuclear Repulsion Energy =            204.7110656274951168
    One-Electron Energy =               -1185.0879176994571935
    Two-Electron Energy =                 412.9981126388582311
    Total Energy =                       -567.3787394331038740
  Basis Set: (AUG-CC-PVTZ AUX)
    Blend: AUG-CC-PVTZ-RI
    Molecular point group: c1

    Geometry (in Angstrom), charge = 0, multiplicity = 1:

       Center              X                  Y                   Z               Mass
    ------------   -----------------  -----------------  -----------------  -----------------
         S            1.162128926797     0.054068002754    -0.003183961986    31.972071174400
         N           -1.286665073203    -0.765322997246    -0.002709961986    14.003074004430
         C           -0.085326073203     1.228941002754    -0.002990961986    12.000000000000
         C           -1.311451073203     0.607752002754    -0.002726961986    12.000000000000
         C           -0.039377073203    -1.186553997246    -0.002912961986    12.000000000000
         H            0.133270926797     2.288213002754    -0.003071961986     1.007825032230
         H           -2.265902273203     1.121926802754     0.247437038014     1.007825032230
         H            0.242866926797    -2.232811997246    -0.002937961986     1.007825032230

  Basis Set: AUG-CC-PVTZ
    Blend: AUG-CC-PVTZ
  Basis Set: (AUG-CC-PVTZ AUX)
    Blend: AUG-CC-PVTZ-JKFIT
	 Reference Energy          =    -567.3787394331037603 [Eh]
	 Singles Energy            =      -0.0000000000000000 [Eh]
	 Same-Spin Energy          =      -0.2460156512222972 [Eh]
	 Opposite-Spin Energy      =      -0.7306881720478275 [Eh]
	 Correlation Energy        =      -0.9767038232701247 [Eh]
	 Total Energy              =    -568.3554432563738601 [Eh]

	 ================> DF-SCS-MP2 Energies <==================
	-----------------------------------------------------------
	 SCS Same-Spin Scale       =       0.3333333333333333 [-]
	 SCS Opposite-Spin Scale   =       1.2000000000000000 [-]
	 SCS Same-Spin Energy      =      -0.0820052170740991 [Eh]
	 SCS Opposite-Spin Energy  =      -0.8768258064573931 [Eh]
	 SCS Correlation Energy    =      -0.9588310235314921 [Eh]
	 SCS Total Energy          =    -568.3375704566352624 [Eh]
	-----------------------------------------------------------

  Dipole Moment: [D]
     X:     1.4087      Y:     1.1533      Z:     0.1928     Total:     1.8308

*** Psi4 exiting successfully. Buy a developer a beer!
