                               Psi4 1.3.2 release

  ==> Input File <==

--------------------------------------------------------------------------
#psi4
#
memory 32 gb

molecule  {
0 1
  S        1.1830230     0.0407500    -0.0002230
  N       -1.2657710    -0.7786410     0.0002510
  C       -0.0644320     1.2156230    -0.0000300
  C       -1.2905570     0.5944340     0.0002340
  C       -0.0184830    -1.1998720     0.0000480
  H        0.1541650     2.2748950    -0.0001110
  H       -2.2450375     1.1086053     0.1003980
  H        0.2637610    -2.2461300     0.0000230
units angstrom
no_reorient  #important for SAPT in psi4, default
symmetry c1  #important for SAPT in psi4, default
}

set PROPERTIES_ORIGIN ["COM"]
properties('MP2/aug-cc-pvtz', properties = ['dipole'])
--------------------------------------------------------------------------

    Molecular point group: c1
  Charge       = 0
  Multiplicity = 1
  Basis Set: AUG-CC-PVTZ
    Blend: AUG-CC-PVTZ
  Basis Set: (AUG-CC-PVTZ AUX)
    Blend: AUG-CC-PVTZ-JKFIT

    Orbital Energies [Eh]
    ---------------------

    Doubly Occupied:

       1A    -92.003524     2A    -15.579042     3A    -11.314551
       4A    -11.275709     5A    -11.271325     6A     -9.004307
       7A     -6.685188     8A     -6.684676     9A     -6.683976
      10A     -1.280636    11A     -1.070824    12A     -1.003525
      13A     -0.804553    14A     -0.776423    15A     -0.697736
      16A     -0.595900    17A     -0.569626    18A     -0.562235
      19A     -0.509827    20A     -0.437931    21A     -0.394055
      22A     -0.343273

  @DF-RHF Final Energy:  -567.38225506171818

   => Energetics <=

    Nuclear Repulsion Energy =            204.7996903094558263
    One-Electron Energy =               -1185.2662099569495240
    Two-Electron Energy =                 413.0842645857754292
    Total Energy =                       -567.3822550617182969
  Basis Set: (AUG-CC-PVTZ AUX)
    Blend: AUG-CC-PVTZ-RI
    Molecular point group: c1

    Geometry (in Angstrom), charge = 0, multiplicity = 1:

       Center              X                  Y                   Z               Mass
    ------------   -----------------  -----------------  -----------------  -----------------
         S            1.162129274206     0.054068044253    -0.001405418354    31.972071174400
         N           -1.286664725794    -0.765322955747    -0.000931418354    14.003074004430
         C           -0.085325725794     1.228941044253    -0.001212418354    12.000000000000
         C           -1.311450725794     0.607752044253    -0.000948418354    12.000000000000
         C           -0.039376725794    -1.186553955747    -0.001134418354    12.000000000000
         H            0.133271274206     2.288213044253    -0.001293418354     1.007825032230
         H           -2.265931225794     1.121923344253     0.099215581646     1.007825032230
         H            0.242867274206    -2.232811955747    -0.001159418354     1.007825032230

  Basis Set: AUG-CC-PVTZ
    Blend: AUG-CC-PVTZ
  Basis Set: (AUG-CC-PVTZ AUX)
    Blend: AUG-CC-PVTZ-JKFIT
	 Reference Energy          =    -567.3822550617181832 [Eh]
	 Singles Energy            =      -0.0000000000000000 [Eh]
	 Same-Spin Energy          =      -0.2458265569915848 [Eh]
	 Opposite-Spin Energy      =      -0.7302578241084342 [Eh]
	 Correlation Energy        =      -0.9760843811000189 [Eh]
	 Total Energy              =    -568.3583394428181919 [Eh]

	 ================> DF-SCS-MP2 Energies <==================
	-----------------------------------------------------------
	 SCS Same-Spin Scale       =       0.3333333333333333 [-]
	 SCS Opposite-Spin Scale   =       1.2000000000000000 [-]
	 SCS Same-Spin Energy      =      -0.0819421856638616 [Eh]
	 SCS Opposite-Spin Energy  =      -0.8763093889301210 [Eh]
	 SCS Correlation Energy    =      -0.9582515745939826 [Eh]
	 SCS Total Energy          =    -568.3405066363121705 [Eh]
	-----------------------------------------------------------

  Dipole Moment: [D]
     X:     1.3749      Y:     1.1739      Z:     0.0779     Total:     1.8095

*** Psi4 exiting successfully. Buy a developer a beer!
