                               Psi4 1.3.2 release

  ==> Input File <==

--------------------------------------------------------------------------
#psi4
#
memory 32 gb

molecule  {
0 1
  S        1.1830230     0.0407500    -0.0002230
  N       -1.2657710    -0.7786410     0.0002510
  C       -0.0644320     1.2156230    -0.0000300
  C       -1.2905570     0.5944340     0.0002340
  C       -0.0184830    -1.1998720     0.0000480
  H        0.1541650     2.2748950    -0.0001110
  H       -2.2450570     1.1086030     0.0003980
  H        0.2638156    -2.2461197     0.3000230
units angstrom
no_reorient  #important for SAPT in psi4, default
symmetry c1  #important for SAPT in psi4, default
}

set PROPERTIES_ORIGIN ["COM"]
properties('MP2/aug-cc-pvtz', properties = ['dipole'])
--------------------------------------------------------------------------

    Molecular point group: c1
  Charge       = 0
  Multiplicity = 1
  Basis Set: AUG-CC-PVTZ
    Blend: AUG-CC-PVTZ
  Basis Set: (AUG-CC-PVTZ AUX)
    Blend: AUG-CC-PVTZ-JKFIT

    Orbital Energies [Eh]
    ---------------------

    Doubly Occupied:

       1A    -92.003533     2A    -15.579871     3A    -11.317470
       4A    -11.275923     5A    -11.272097     6A     -9.004349
       7A     -6.685221     8A     -6.684691     9A     -6.683997
      10A     -1.281047    11A     -1.071163    12A     -1.002325
      13A     -0.802108    14A     -0.772364    15A     -0.696982
      16A     -0.594828    17A     -0.573171    18A     -0.553750
      19A     -0.510472    20A     -0.438056    21A     -0.394178
      22A     -0.343098

  @DF-RHF Final Energy:  -567.37704343027610

   => Energetics <=

    Nuclear Repulsion Energy =            204.6603292304325521
    One-Electron Energy =               -1184.9933603606018551
    Two-Electron Energy =                 412.9559876998931713
    Total Energy =                       -567.3770434302761032
  Basis Set: (AUG-CC-PVTZ AUX)
    Blend: AUG-CC-PVTZ-RI
    Molecular point group: c1

    Geometry (in Angstrom), charge = 0, multiplicity = 1:

       Center              X                  Y                   Z               Mass
    ------------   -----------------  -----------------  -----------------  -----------------
         S            1.162128858027     0.054067949397    -0.003776809864    31.972071174400
         N           -1.286665141973    -0.765323050603    -0.003302809864    14.003074004430
         C           -0.085326141973     1.228940949397    -0.003583809864    12.000000000000
         C           -1.311451141973     0.607751949397    -0.003319809864    12.000000000000
         C           -0.039377141973    -1.186554050603    -0.003505809864    12.000000000000
         H            0.133270858027     2.288212949397    -0.003664809864     1.007825032230
         H           -2.265951141973     1.121920949397    -0.003155809864     1.007825032230
         H            0.242921458027    -2.232801750603     0.296469190136     1.007825032230

  Basis Set: AUG-CC-PVTZ
    Blend: AUG-CC-PVTZ
  Basis Set: (AUG-CC-PVTZ AUX)
    Blend: AUG-CC-PVTZ-JKFIT
	 Reference Energy          =    -567.3770434302761032 [Eh]
	 Singles Energy            =      -0.0000000000000000 [Eh]
	 Same-Spin Energy          =      -0.2462237854199512 [Eh]
	 Opposite-Spin Energy      =      -0.7309804995720652 [Eh]
	 Correlation Energy        =      -0.9772042849920164 [Eh]
	 Total Energy              =    -568.3542477152681158 [Eh]

	 ================> DF-SCS-MP2 Energies <==================
	-----------------------------------------------------------
	 SCS Same-Spin Scale       =       0.3333333333333333 [-]
	 SCS Opposite-Spin Scale   =       1.2000000000000000 [-]
	 SCS Same-Spin Energy      =      -0.0820745951399837 [Eh]
	 SCS Opposite-Spin Energy  =      -0.8771765994864783 [Eh]
	 SCS Correlation Energy    =      -0.9592511946264620 [Eh]
	 SCS Total Energy          =    -568.3362946249026209 [Eh]
	-----------------------------------------------------------

  Dipole Moment: [D]
     X:     1.3409      Y:     1.2409      Z:     0.2184     Total:     1.8400

*** Psi4 exiting successfully. Buy a developer a beer!
