                               Psi4 1.3.2 release

  ==> Input File <==

--------------------------------------------------------------------------
#psi4
#
memory 32 gb

molecule  {
0 1
  S        1.1830230     0.0407500    -0.0002230
  N       -1.2657710    -0.7786410     0.0002510
  C       -0.0644320     1.2156230    -0.0000300
  C       -1.2905570     0.5944340     0.0002340
  C       -0.0184830    -1.1998720     0.0000480
  H        0.1541650     2.2748950    -0.0001110
  H       -2.2450277     1.1086065     0.1503980
  H        0.2637610    -2.2461300     0.0000230
units angstrom
no_reorient  #important for SAPT in psi4, default
symmetry c1  #important for SAPT in psi4, default
}

set PROPERTIES_ORIGIN ["COM"]
properties('MP2/aug-cc-pvtz', properties = ['dipole'])
--------------------------------------------------------------------------

    Molecular point group: c1
  Charge       = 0
  Multiplicity = 1
  Basis Set: AUG-CC-PVTZ
    Blend: AUG-CC-PVTZ
  Basis Set: (AUG-CC-PVTZ AUX)
    Blend: AUG-CC-PVTZ-JKFIT

    Orbital Energies [Eh]
    ---------------------

    Doubly Occupied:

       1A    -92.003610     2A    -15.579093     3A    -11.314599
       4A    -11.276178     5A    -11.271503     6A     -9.004394
       7A     -6.685275     8A     -6.684763     9A     -6.684062
      10A     -1.280684    11A     -1.070914    12A     -1.003332
      13A     -0.804587    14A     -0.775775    15A     -0.697373
      16A     -0.595473    17A     -0.569715    18A     -0.562041
      19A     -0.509399    20A     -0.437981    21A     -0.394084
      22A     -0.343246

  @DF-RHF Final Energy:  -567.38146169181005

   => Energetics <=

    Nuclear Repulsion Energy =            204.7781850616846384
    One-Electron Energy =               -1185.2231364717413271
    Two-Electron Energy =                 413.0634897182466716
    Total Energy =                       -567.3814616918100455
  Basis Set: (AUG-CC-PVTZ AUX)
    Blend: AUG-CC-PVTZ-RI
    Molecular point group: c1

    Geometry (in Angstrom), charge = 0, multiplicity = 1:

       Center              X                  Y                   Z               Mass
    ------------   -----------------  -----------------  -----------------  -----------------
         S            1.162129158008     0.054068030025    -0.001998266231    31.972071174400
         N           -1.286664841992    -0.765322969975    -0.001524266231    14.003074004430
         C           -0.085325841992     1.228941030025    -0.001805266231    12.000000000000
         C           -1.311450841992     0.607752030025    -0.001541266231    12.000000000000
         C           -0.039376841992    -1.186553969975    -0.001727266231    12.000000000000
         H            0.133271158008     2.288213030025    -0.001886266231     1.007825032230
         H           -2.265921541992     1.121924530025     0.148622733769     1.007825032230
         H            0.242867158008    -2.232811969975    -0.001752266231     1.007825032230

  Basis Set: AUG-CC-PVTZ
    Blend: AUG-CC-PVTZ
  Basis Set: (AUG-CC-PVTZ AUX)
    Blend: AUG-CC-PVTZ-JKFIT
	 Reference Energy          =    -567.3814616918100455 [Eh]
	 Singles Energy            =      -0.0000000000000000 [Eh]
	 Same-Spin Energy          =      -0.2458720274049550 [Eh]
	 Opposite-Spin Energy      =      -0.7303545475761823 [Eh]
	 Correlation Energy        =      -0.9762265749811374 [Eh]
	 Total Energy              =    -568.3576882667912287 [Eh]

	 ================> DF-SCS-MP2 Energies <==================
	-----------------------------------------------------------
	 SCS Same-Spin Scale       =       0.3333333333333333 [-]
	 SCS Opposite-Spin Scale   =       1.2000000000000000 [-]
	 SCS Same-Spin Energy      =      -0.0819573424683183 [Eh]
	 SCS Opposite-Spin Energy  =      -0.8764254570914188 [Eh]
	 SCS Correlation Energy    =      -0.9583827995597372 [Eh]
	 SCS Total Energy          =    -568.3398444913698313 [Eh]
	-----------------------------------------------------------

  Dipole Moment: [D]
     X:     1.3830      Y:     1.1689      Z:     0.1166     Total:     1.8146

*** Psi4 exiting successfully. Buy a developer a beer!
