                               Psi4 1.3.2 release

  ==> Input File <==

--------------------------------------------------------------------------
#psi4
#
memory 32 gb

molecule  {
0 1
  S        1.1830230     0.0407500    -0.0002230
  N       -1.2657710    -0.7786410     0.0002510
  C       -0.0644320     1.2156230    -0.0000300
  C       -1.2905570     0.5944340     0.0002340
  C       -0.0184830    -1.1998720     0.0000480
  H        0.1541360     2.2748892    -0.1501110
  H       -2.2450570     1.1086030     0.0003980
  H        0.2637610    -2.2461300     0.0000230
units angstrom
no_reorient  #important for SAPT in psi4, default
symmetry c1  #important for SAPT in psi4, default
}

set PROPERTIES_ORIGIN ["COM"]
properties('MP2/aug-cc-pvtz', properties = ['dipole'])
--------------------------------------------------------------------------

    Molecular point group: c1
  Charge       = 0
  Multiplicity = 1
  Basis Set: AUG-CC-PVTZ
    Blend: AUG-CC-PVTZ
  Basis Set: (AUG-CC-PVTZ AUX)
    Blend: AUG-CC-PVTZ-JKFIT

    Orbital Energies [Eh]
    ---------------------

    Doubly Occupied:

       1A    -92.003411     2A    -15.579122     3A    -11.314775
       4A    -11.275708     5A    -11.271854     6A     -9.004206
       7A     -6.685087     8A     -6.684568     9A     -6.683870
      10A     -1.280781    11A     -1.070568    12A     -1.003676
      13A     -0.803705    14A     -0.776679    15A     -0.696899
      16A     -0.596394    17A     -0.570896    18A     -0.559490
      19A     -0.510185    20A     -0.437991    21A     -0.394029
      22A     -0.343341

  @DF-RHF Final Energy:  -567.38168933946611

   => Energetics <=

    Nuclear Repulsion Energy =            204.7772864539199986
    One-Electron Energy =               -1185.2234847826989608
    Two-Electron Energy =                 413.0645089893129125
    Total Energy =                       -567.3816893394661065
  Basis Set: (AUG-CC-PVTZ AUX)
    Blend: AUG-CC-PVTZ-RI
    Molecular point group: c1

    Geometry (in Angstrom), charge = 0, multiplicity = 1:

       Center              X                  Y                   Z               Mass
    ------------   -----------------  -----------------  -----------------  -----------------
         S            1.162129849268     0.054068140294     0.001558821033    31.972071174400
         N           -1.286664150732    -0.765322859706     0.002032821033    14.003074004430
         C           -0.085325150732     1.228941140294     0.001751821033    12.000000000000
         C           -1.311450150732     0.607752140294     0.002015821033    12.000000000000
         C           -0.039376150732    -1.186553859706     0.001829821033    12.000000000000
         H            0.133242849268     2.288207340294    -0.148329178967     1.007825032230
         H           -2.265950150732     1.121921140294     0.002179821033     1.007825032230
         H            0.242867849268    -2.232811859706     0.001804821033     1.007825032230

  Basis Set: AUG-CC-PVTZ
    Blend: AUG-CC-PVTZ
  Basis Set: (AUG-CC-PVTZ AUX)
    Blend: AUG-CC-PVTZ-JKFIT
	 Reference Energy          =    -567.3816893394661065 [Eh]
	 Singles Energy            =      -0.0000000000000000 [Eh]
	 Same-Spin Energy          =      -0.2458592825544999 [Eh]
	 Opposite-Spin Energy      =      -0.7303214394760997 [Eh]
	 Correlation Energy        =      -0.9761807220305996 [Eh]
	 Total Energy              =    -568.3578700614966692 [Eh]

	 ================> DF-SCS-MP2 Energies <==================
	-----------------------------------------------------------
	 SCS Same-Spin Scale       =       0.3333333333333333 [-]
	 SCS Opposite-Spin Scale   =       1.2000000000000000 [-]
	 SCS Same-Spin Energy      =      -0.0819530941848333 [Eh]
	 SCS Opposite-Spin Energy  =      -0.8763857273713197 [Eh]
	 SCS Correlation Energy    =      -0.9583388215561530 [Eh]
	 SCS Total Energy          =    -568.3400281610222464 [Eh]
	-----------------------------------------------------------

  Dipole Moment: [D]
     X:     1.3627      Y:     1.1632      Z:    -0.1241     Total:     1.7959

*** Psi4 exiting successfully. Buy a developer a beer!
