                               Psi4 1.3.2 release

  ==> Input File <==

--------------------------------------------------------------------------
#psi4
#
memory 32 gb

molecule  {
0 1
  N       -1.4514230    -0.0014080    -0.4975550
  C        1.9178760    -0.2820330     0.3003480
  C        0.7301990    -1.0539890    -0.2910100
  C        1.9133330     1.1918710    -0.0951930
  C       -0.5758300    -0.5622950     0.2505430
  C       -2.6734760     0.4500620     0.1549430
  H        1.9034540    -0.3751150     1.3937850
  H        2.8483830    -0.7529800    -0.0365760
  H        0.7089260    -0.9492610    -1.3805420
  H        0.8357330    -2.1215800    -0.0558240
  H        1.9489790     1.2991200    -1.1835390
  H        1.0073910     1.6938590     0.2549320
  H        2.7765220     1.7153350     0.3260680
  H       -0.8178280    -0.8696829     1.3015954
  H       -2.7870910     1.5245690    -0.0148120
  H       -2.6927620     0.2538980     1.2378030
  H       -3.5272530    -0.0486490    -0.3125820
units angstrom
no_reorient  #important for SAPT in psi4, default
symmetry c1  #important for SAPT in psi4, default
}

set PROPERTIES_ORIGIN ["COM"]
properties('MP2/aug-cc-pvtz', properties = ['dipole'])
--------------------------------------------------------------------------

    Molecular point group: c1
  Charge       = 0
  Multiplicity = 1
  Basis Set: AUG-CC-PVTZ
    Blend: AUG-CC-PVTZ
  Basis Set: (AUG-CC-PVTZ AUX)
    Blend: AUG-CC-PVTZ-JKFIT

    Orbital Energies [Eh]
    ---------------------

    Doubly Occupied:

       1A    -15.555492     2A    -11.274606     3A    -11.243039
       4A    -11.226586     5A    -11.225431     6A    -11.210782
       7A     -1.219873     8A     -1.070477     9A     -0.973501
      10A     -0.910696    11A     -0.815722    12A     -0.753069
      13A     -0.643310    14A     -0.634253    15A     -0.605295
      16A     -0.587141    17A     -0.578966    18A     -0.542701
      19A     -0.516310    20A     -0.489963    21A     -0.480894
      22A     -0.474753    23A     -0.403822    24A     -0.392255

  @DF-RHF Final Energy:  -250.26036397039209

   => Energetics <=

    Nuclear Repulsion Energy =            235.2883445649552812
    One-Electron Energy =                -803.4395435670265897
    Two-Electron Energy =                 317.8908350316792166
    Total Energy =                       -250.2603639703920635
  Basis Set: (AUG-CC-PVTZ AUX)
    Blend: AUG-CC-PVTZ-RI
    Molecular point group: c1

    Geometry (in Angstrom), charge = 0, multiplicity = 1:

       Center              X                  Y                   Z               Mass
    ------------   -----------------  -----------------  -----------------  -----------------
         N           -1.423717284584     0.018760197202    -0.478875246051    14.003074004430
         C            1.945581715416    -0.261864802798     0.319027753949    12.000000000000
         C            0.757904715416    -1.033820802798    -0.272330246051    12.000000000000
         C            1.941038715416     1.212039197202    -0.076513246051    12.000000000000
         C           -0.548124284584    -0.542126802798     0.269222753949    12.000000000000
         C           -2.645770284584     0.470230197202     0.173622753949    12.000000000000
         H            1.931159715416    -0.354946802798     1.412464753949     1.007825032230
         H            2.876088715416    -0.732811802798    -0.017896246051     1.007825032230
         H            0.736631715416    -0.929092802798    -1.361862246051     1.007825032230
         H            0.863438715416    -2.101411802798    -0.037144246051     1.007825032230
         H            1.976684715416     1.319288197202    -1.164859246051     1.007825032230
         H            1.035096715416     1.714027197202     0.273611753949     1.007825032230
         H            2.804227715416     1.735503197202     0.344747753949     1.007825032230
         H           -0.790122284584    -0.849514702798     1.320275153949     1.007825032230
         H           -2.759385284584     1.544737197202     0.003867753949     1.007825032230
         H           -2.665056284584     0.274066197202     1.256482753949     1.007825032230
         H           -3.499547284584    -0.028480802798    -0.293902246051     1.007825032230

  Basis Set: AUG-CC-PVTZ
    Blend: AUG-CC-PVTZ
  Basis Set: (AUG-CC-PVTZ AUX)
    Blend: AUG-CC-PVTZ-JKFIT
	 Reference Energy          =    -250.2603639703920919 [Eh]
	 Singles Energy            =      -0.0000000000000000 [Eh]
	 Same-Spin Energy          =      -0.2619375620817569 [Eh]
	 Opposite-Spin Energy      =      -0.9363727718005991 [Eh]
	 Correlation Energy        =      -1.1983103338823560 [Eh]
	 Total Energy              =    -251.4586743042744388 [Eh]

	 ================> DF-SCS-MP2 Energies <==================
	-----------------------------------------------------------
	 SCS Same-Spin Scale       =       0.3333333333333333 [-]
	 SCS Opposite-Spin Scale   =       1.2000000000000000 [-]
	 SCS Same-Spin Energy      =      -0.0873125206939190 [Eh]
	 SCS Opposite-Spin Energy  =      -1.1236473261607189 [Eh]
	 SCS Correlation Energy    =      -1.2109598468546379 [Eh]
	 SCS Total Energy          =    -251.4713238172467413 [Eh]
	-----------------------------------------------------------

  Dipole Moment: [D]
     X:     0.3204      Y:    -0.4295      Z:     1.3901     Total:     1.4898

*** Psi4 exiting successfully. Buy a developer a beer!
