                               Psi4 1.3.2 release

  ==> Input File <==

--------------------------------------------------------------------------
#psi4
#
memory 32 gb

molecule  {
0 1
  N       -1.4514230    -0.0014080    -0.4975550
  C        1.9178760    -0.2820330     0.3003480
  C        0.7301990    -1.0539890    -0.2910100
  C        1.9133330     1.1918710    -0.0951930
  C       -0.5758300    -0.5622950     0.2505430
  C       -2.6734760     0.4500620     0.1549430
  H        1.9034540    -0.3751150     1.3937850
  H        2.8483830    -0.7529800    -0.0365760
  H        0.7089260    -0.9492610    -1.3805420
  H        0.8357330    -2.1215800    -0.0558240
  H        1.9489790     1.2991200    -1.1835390
  H        1.0073910     1.6938590     0.2549320
  H        2.7765220     1.7153350     0.3260680
  H       -0.7971025    -0.8250197     1.3102930
  H       -2.7870910     1.5245690    -0.0148120
  H       -2.6927620     0.2538980     1.2378030
  H       -3.5272530    -0.0486490    -0.3125820
units angstrom
no_reorient  #important for SAPT in psi4, default
symmetry c1  #important for SAPT in psi4, default
}

set PROPERTIES_ORIGIN ["COM"]
properties('MP2/aug-cc-pvtz', properties = ['dipole'])
--------------------------------------------------------------------------

    Molecular point group: c1
  Charge       = 0
  Multiplicity = 1
  Basis Set: AUG-CC-PVTZ
    Blend: AUG-CC-PVTZ
  Basis Set: (AUG-CC-PVTZ AUX)
    Blend: AUG-CC-PVTZ-JKFIT

    Orbital Energies [Eh]
    ---------------------

    Doubly Occupied:

       1A    -15.555198     2A    -11.273811     3A    -11.242918
       4A    -11.226688     5A    -11.225389     6A    -11.210911
       7A     -1.219762     8A     -1.070558     9A     -0.973521
      10A     -0.910652    11A     -0.815805    12A     -0.754812
      13A     -0.643248    14A     -0.634042    15A     -0.606026
      16A     -0.587116    17A     -0.578933    18A     -0.542769
      19A     -0.516459    20A     -0.490112    21A     -0.480930
      22A     -0.474924    23A     -0.402927    24A     -0.393348

  @DF-RHF Final Energy:  -250.26148954585355

   => Energetics <=

    Nuclear Repulsion Energy =            235.3389128239557806
    One-Electron Energy =                -803.5390894533245500
    Two-Electron Energy =                 317.9386870835152195
    Total Energy =                       -250.2614895458535784
  Basis Set: (AUG-CC-PVTZ AUX)
    Blend: AUG-CC-PVTZ-RI
    Molecular point group: c1

    Geometry (in Angstrom), charge = 0, multiplicity = 1:

       Center              X                  Y                   Z               Mass
    ------------   -----------------  -----------------  -----------------  -----------------
         N           -1.423962764505     0.018231190962    -0.478978263405    14.003074004430
         C            1.945336235495    -0.262393809038     0.318924736595    12.000000000000
         C            0.757659235495    -1.034349809038    -0.272433263405    12.000000000000
         C            1.940793235495     1.211510190962    -0.076616263405    12.000000000000
         C           -0.548369764505    -0.542655809038     0.269119736595    12.000000000000
         C           -2.646015764505     0.469701190962     0.173519736595    12.000000000000
         H            1.930914235495    -0.355475809038     1.412361736595     1.007825032230
         H            2.875843235495    -0.733340809038    -0.017999263405     1.007825032230
         H            0.736386235495    -0.929621809038    -1.361965263405     1.007825032230
         H            0.863193235495    -2.101940809038    -0.037247263405     1.007825032230
         H            1.976439235495     1.318759190962    -1.164962263405     1.007825032230
         H            1.034851235495     1.713498190962     0.273508736595     1.007825032230
         H            2.803982235495     1.734974190962     0.344644736595     1.007825032230
         H           -0.769642264505    -0.805380509038     1.328869736595     1.007825032230
         H           -2.759630764505     1.544208190962     0.003764736595     1.007825032230
         H           -2.665301764505     0.273537190962     1.256379736595     1.007825032230
         H           -3.499792764505    -0.029009809038    -0.294005263405     1.007825032230

  Basis Set: AUG-CC-PVTZ
    Blend: AUG-CC-PVTZ
  Basis Set: (AUG-CC-PVTZ AUX)
    Blend: AUG-CC-PVTZ-JKFIT
	 Reference Energy          =    -250.2614895458535500 [Eh]
	 Singles Energy            =      -0.0000000000000000 [Eh]
	 Same-Spin Energy          =      -0.2618829498876903 [Eh]
	 Opposite-Spin Energy      =      -0.9362146689384769 [Eh]
	 Correlation Energy        =      -1.1980976188261674 [Eh]
	 Total Energy              =    -251.4595871646797036 [Eh]

	 ================> DF-SCS-MP2 Energies <==================
	-----------------------------------------------------------
	 SCS Same-Spin Scale       =       0.3333333333333333 [-]
	 SCS Opposite-Spin Scale   =       1.2000000000000000 [-]
	 SCS Same-Spin Energy      =      -0.0872943166292301 [Eh]
	 SCS Opposite-Spin Energy  =      -1.1234576027261722 [Eh]
	 SCS Correlation Energy    =      -1.2107519193554024 [Eh]
	 SCS Total Energy          =    -251.4722414652089526 [Eh]
	-----------------------------------------------------------

  Dipole Moment: [D]
     X:     0.3379      Y:    -0.4098      Z:     1.4070     Total:     1.5039

*** Psi4 exiting successfully. Buy a developer a beer!
