                               Psi4 1.3.2 release

  ==> Input File <==

--------------------------------------------------------------------------
#psi4
#
memory 32 gb

molecule  {
0 1
  N       -1.4514230    -0.0014080    -0.4975550
  C        1.9178760    -0.2820330     0.3003480
  C        0.7301990    -1.0539890    -0.2910100
  C        1.9133330     1.1918710    -0.0951930
  C       -0.5758300    -0.5622950     0.2505430
  C       -2.6734760     0.4500620     0.1549430
  H        1.9034540    -0.3751150     1.3937850
  H        2.8483830    -0.7529800    -0.0365760
  H        0.7089260    -0.9492610    -1.3805420
  H        0.8357330    -2.1215800    -0.0558240
  H        1.9489790     1.2991200    -1.1835390
  H        1.0073910     1.6938590     0.2549320
  H        2.7765220     1.7153350     0.3260680
  H       -0.7763770    -0.7803565     1.3189907
  H       -2.7870910     1.5245690    -0.0148120
  H       -2.6927620     0.2538980     1.2378030
  H       -3.5272530    -0.0486490    -0.3125820
units angstrom
no_reorient  #important for SAPT in psi4, default
symmetry c1  #important for SAPT in psi4, default
}

set PROPERTIES_ORIGIN ["COM"]
properties('MP2/aug-cc-pvtz', properties = ['dipole'])
--------------------------------------------------------------------------

    Molecular point group: c1
  Charge       = 0
  Multiplicity = 1
  Basis Set: AUG-CC-PVTZ
    Blend: AUG-CC-PVTZ
  Basis Set: (AUG-CC-PVTZ AUX)
    Blend: AUG-CC-PVTZ-JKFIT

    Orbital Energies [Eh]
    ---------------------

    Doubly Occupied:

       1A    -15.554985     2A    -11.273253     3A    -11.242829
       4A    -11.226795     5A    -11.225368     6A    -11.211047
       7A     -1.219686     8A     -1.070649     9A     -0.973537
      10A     -0.910633    11A     -0.815864    12A     -0.756164
      13A     -0.643107    14A     -0.633800    15A     -0.606750
      16A     -0.587046    17A     -0.578914    18A     -0.542842
      19A     -0.516566    20A     -0.490259    21A     -0.480977
      22A     -0.475084    23A     -0.402186    24A     -0.394241

  @DF-RHF Final Energy:  -250.26226506444942

   => Energetics <=

    Nuclear Repulsion Energy =            235.3816053542973918
    One-Electron Energy =                -803.6225804847993004
    Two-Electron Energy =                 317.9787100660525425
    Total Energy =                       -250.2622650644494229
  Basis Set: (AUG-CC-PVTZ AUX)
    Blend: AUG-CC-PVTZ-RI
    Molecular point group: c1

    Geometry (in Angstrom), charge = 0, multiplicity = 1:

       Center              X                  Y                   Z               Mass
    ------------   -----------------  -----------------  -----------------  -----------------
         N           -1.424208244427     0.017702184722    -0.479081281943    14.003074004430
         C            1.945090755573    -0.262922815278     0.318821718057    12.000000000000
         C            0.757413755573    -1.034878815278    -0.272536281943    12.000000000000
         C            1.940547755573     1.210981184722    -0.076719281943    12.000000000000
         C           -0.548615244427    -0.543184815278     0.269016718057    12.000000000000
         C           -2.646261244427     0.469172184722     0.173416718057    12.000000000000
         H            1.930668755573    -0.356004815278     1.412258718057     1.007825032230
         H            2.875597755573    -0.733869815278    -0.018102281943     1.007825032230
         H            0.736140755573    -0.930150815278    -1.362068281943     1.007825032230
         H            0.862947755573    -2.102469815278    -0.037350281943     1.007825032230
         H            1.976193755573     1.318230184722    -1.165065281943     1.007825032230
         H            1.034605755573     1.712969184722     0.273405718057     1.007825032230
         H            2.803736755573     1.734445184722     0.344541718057     1.007825032230
         H           -0.749162244427    -0.761246315278     1.337464418057     1.007825032230
         H           -2.759876244427     1.543679184722     0.003661718057     1.007825032230
         H           -2.665547244427     0.273008184722     1.256276718057     1.007825032230
         H           -3.500038244427    -0.029538815278    -0.294108281943     1.007825032230

  Basis Set: AUG-CC-PVTZ
    Blend: AUG-CC-PVTZ
  Basis Set: (AUG-CC-PVTZ AUX)
    Blend: AUG-CC-PVTZ-JKFIT
	 Reference Energy          =    -250.2622650644494229 [Eh]
	 Singles Energy            =      -0.0000000000000000 [Eh]
	 Same-Spin Energy          =      -0.2618472760213270 [Eh]
	 Opposite-Spin Energy      =      -0.9361050288336554 [Eh]
	 Correlation Energy        =      -1.1979523048549825 [Eh]
	 Total Energy              =    -251.4602173693044165 [Eh]

	 ================> DF-SCS-MP2 Energies <==================
	-----------------------------------------------------------
	 SCS Same-Spin Scale       =       0.3333333333333333 [-]
	 SCS Opposite-Spin Scale   =       1.2000000000000000 [-]
	 SCS Same-Spin Energy      =      -0.0872824253404423 [Eh]
	 SCS Opposite-Spin Energy  =      -1.1233260346003864 [Eh]
	 SCS Correlation Energy    =      -1.2106084599408287 [Eh]
	 SCS Total Energy          =    -251.4728735243902520 [Eh]
	-----------------------------------------------------------

  Dipole Moment: [D]
     X:     0.3551      Y:    -0.3882      Z:     1.4200     Total:     1.5144

*** Psi4 exiting successfully. Buy a developer a beer!
