                               Psi4 1.3.2 release

  ==> Input File <==

--------------------------------------------------------------------------
#psi4
#
memory 32 gb

molecule  {
0 1
  N       -1.4514230    -0.0014080    -0.4975550
  C        1.9178760    -0.2820330     0.3003480
  C        0.7301990    -1.0539890    -0.2910100
  C        1.9133330     1.1918710    -0.0951930
  C       -0.5758300    -0.5622950     0.2505430
  C       -2.6734760     0.4500620     0.1549430
  H        1.9034540    -0.3751150     1.3937850
  H        2.8483830    -0.7529800    -0.0365760
  H        0.7089260    -0.9492610    -1.3805420
  H        0.8357330    -2.1215800    -0.0558240
  H        1.9489790     1.2991200    -1.1835390
  H        1.0073910     1.6938590     0.2549320
  H        2.7765220     1.7153350     0.3260680
  H       -0.7556515    -0.7356932     1.3276883
  H       -2.7870910     1.5245690    -0.0148120
  H       -2.6927620     0.2538980     1.2378030
  H       -3.5272530    -0.0486490    -0.3125820
units angstrom
no_reorient  #important for SAPT in psi4, default
symmetry c1  #important for SAPT in psi4, default
}

set PROPERTIES_ORIGIN ["COM"]
properties('MP2/aug-cc-pvtz', properties = ['dipole'])
--------------------------------------------------------------------------

    Molecular point group: c1
  Charge       = 0
  Multiplicity = 1
  Basis Set: AUG-CC-PVTZ
    Blend: AUG-CC-PVTZ
  Basis Set: (AUG-CC-PVTZ AUX)
    Blend: AUG-CC-PVTZ-JKFIT

    Orbital Energies [Eh]
    ---------------------

    Doubly Occupied:

       1A    -15.554854     2A    -11.272938     3A    -11.242772
       4A    -11.226901     5A    -11.225369     6A    -11.211189
       7A     -1.219642     8A     -1.070748     9A     -0.973547
      10A     -0.910639    11A     -0.815896    12A     -0.757092
      13A     -0.642899    14A     -0.633516    15A     -0.607459
      16A     -0.586933    17A     -0.578913    18A     -0.542919
      19A     -0.516632    20A     -0.490403    21A     -0.481034
      22A     -0.475234    23A     -0.401738    24A     -0.394792

  @DF-RHF Final Energy:  -250.26271577170985

   => Energetics <=

    Nuclear Repulsion Energy =            235.4161397605580532
    One-Electron Energy =                -803.6895911209331871
    Two-Electron Energy =                 318.0107355886652840
    Total Energy =                       -250.2627157717098498
  Basis Set: (AUG-CC-PVTZ AUX)
    Blend: AUG-CC-PVTZ-RI
    Molecular point group: c1

    Geometry (in Angstrom), charge = 0, multiplicity = 1:

       Center              X                  Y                   Z               Mass
    ------------   -----------------  -----------------  -----------------  -----------------
         N           -1.424453724348     0.017173177297    -0.479184299297    14.003074004430
         C            1.944845275652    -0.263451822703     0.318718700703    12.000000000000
         C            0.757168275652    -1.035407822703    -0.272639299297    12.000000000000
         C            1.940302275652     1.210452177297    -0.076822299297    12.000000000000
         C           -0.548860724348    -0.543713822703     0.268913700703    12.000000000000
         C           -2.646506724348     0.468643177297     0.173313700703    12.000000000000
         H            1.930423275652    -0.356533822703     1.412155700703     1.007825032230
         H            2.875352275652    -0.734398822703    -0.018205299297     1.007825032230
         H            0.735895275652    -0.930679822703    -1.362171299297     1.007825032230
         H            0.862702275652    -2.102998822703    -0.037453299297     1.007825032230
         H            1.975948275652     1.317701177297    -1.165168299297     1.007825032230
         H            1.034360275652     1.712440177297     0.273302700703     1.007825032230
         H            2.803491275652     1.733916177297     0.344438700703     1.007825032230
         H           -0.728682224348    -0.717112022703     1.346059000703     1.007825032230
         H           -2.760121724348     1.543150177297     0.003558700703     1.007825032230
         H           -2.665792724348     0.272479177297     1.256173700703     1.007825032230
         H           -3.500283724348    -0.030067822703    -0.294211299297     1.007825032230

  Basis Set: AUG-CC-PVTZ
    Blend: AUG-CC-PVTZ
  Basis Set: (AUG-CC-PVTZ AUX)
    Blend: AUG-CC-PVTZ-JKFIT
	 Reference Energy          =    -250.2627157717098498 [Eh]
	 Singles Energy            =      -0.0000000000000000 [Eh]
	 Same-Spin Energy          =      -0.2618310144405265 [Eh]
	 Opposite-Spin Energy      =      -0.9360440292741543 [Eh]
	 Correlation Energy        =      -1.1978750437146808 [Eh]
	 Total Energy              =    -251.4605908154245242 [Eh]

	 ================> DF-SCS-MP2 Energies <==================
	-----------------------------------------------------------
	 SCS Same-Spin Scale       =       0.3333333333333333 [-]
	 SCS Opposite-Spin Scale   =       1.2000000000000000 [-]
	 SCS Same-Spin Energy      =      -0.0872770048135088 [Eh]
	 SCS Opposite-Spin Energy  =      -1.1232528351289852 [Eh]
	 SCS Correlation Energy    =      -1.2105298399424940 [Eh]
	 SCS Total Energy          =    -251.4732456116523451 [Eh]
	-----------------------------------------------------------

  Dipole Moment: [D]
     X:     0.3719      Y:    -0.3651      Z:     1.4293     Total:     1.5213

*** Psi4 exiting successfully. Buy a developer a beer!
