                               Psi4 1.3.2 release

  ==> Input File <==

--------------------------------------------------------------------------
#psi4
#
memory 32 gb

molecule  {
0 1
  N       -1.4514230    -0.0014080    -0.4975550
  C        1.9178760    -0.2820330     0.3003480
  C        0.7301990    -1.0539890    -0.2910100
  C        1.9133330     1.1918710    -0.0951930
  C       -0.5758300    -0.5622950     0.2505430
  C       -2.6734760     0.4500620     0.1549430
  H        1.9034540    -0.3751150     1.3937850
  H        2.8483830    -0.7529800    -0.0365760
  H        0.7089260    -0.9492610    -1.3805420
  H        0.8357330    -2.1215800    -0.0558240
  H        1.9489790     1.2991200    -1.1835390
  H        1.0073910     1.6938590     0.2549320
  H        2.7765220     1.7153350     0.3260680
  H       -0.8592790    -0.9590094     1.2842001
  H       -2.7870910     1.5245690    -0.0148120
  H       -2.6927620     0.2538980     1.2378030
  H       -3.5272530    -0.0486490    -0.3125820
units angstrom
no_reorient  #important for SAPT in psi4, default
symmetry c1  #important for SAPT in psi4, default
}

set PROPERTIES_ORIGIN ["COM"]
properties('MP2/aug-cc-pvtz', properties = ['dipole'])
--------------------------------------------------------------------------

    Molecular point group: c1
  Charge       = 0
  Multiplicity = 1
  Basis Set: AUG-CC-PVTZ
    Blend: AUG-CC-PVTZ
  Basis Set: (AUG-CC-PVTZ AUX)
    Blend: AUG-CC-PVTZ-JKFIT

    Orbital Energies [Eh]
    ---------------------

    Doubly Occupied:

       1A    -15.556321     2A    -11.276879     3A    -11.243373
       4A    -11.226412     5A    -11.225576     6A    -11.210557
       7A     -1.220200     8A     -1.070354     9A     -0.973457
      10A     -0.910862    11A     -0.815508    12A     -0.748583
      13A     -0.643170    14A     -0.634618    15A     -0.603851
      16A     -0.587047    17A     -0.579062    18A     -0.542589
      19A     -0.515872    20A     -0.489672    21A     -0.480861
      22A     -0.474383    23A     -0.405765    24A     -0.389766

  @DF-RHF Final Energy:  -250.25693133880398

   => Energetics <=

    Nuclear Repulsion Energy =            235.1651817000755784
    One-Electron Energy =                -803.1947441153989757
    Two-Electron Energy =                 317.7726310765194739
    Total Energy =                       -250.2569313388039518
  Basis Set: (AUG-CC-PVTZ AUX)
    Blend: AUG-CC-PVTZ-RI
    Molecular point group: c1

    Geometry (in Angstrom), charge = 0, multiplicity = 1:

       Center              X                  Y                   Z               Mass
    ------------   -----------------  -----------------  -----------------  -----------------
         N           -1.423226324741     0.019818210867    -0.478669210159    14.003074004430
         C            1.946072675259    -0.260806789133     0.319233789841    12.000000000000
         C            0.758395675259    -1.032762789133    -0.272124210159    12.000000000000
         C            1.941529675259     1.213097210867    -0.076307210159    12.000000000000
         C           -0.547633324741    -0.541068789133     0.269428789841    12.000000000000
         C           -2.645279324741     0.471288210867     0.173828789841    12.000000000000
         H            1.931650675259    -0.353888789133     1.412670789841     1.007825032230
         H            2.876579675259    -0.731753789133    -0.017690210159     1.007825032230
         H            0.737122675259    -0.928034789133    -1.361656210159     1.007825032230
         H            0.863929675259    -2.100353789133    -0.036938210159     1.007825032230
         H            1.977175675259     1.320346210867    -1.164653210159     1.007825032230
         H            1.035587675259     1.715085210867     0.273817789841     1.007825032230
         H            2.804718675259     1.736561210867     0.344953789841     1.007825032230
         H           -0.831082324741    -0.937783189133     1.303085889841     1.007825032230
         H           -2.758894324741     1.545795210867     0.004073789841     1.007825032230
         H           -2.664565324741     0.275124210867     1.256688789841     1.007825032230
         H           -3.499056324741    -0.027422789133    -0.293696210159     1.007825032230

  Basis Set: AUG-CC-PVTZ
    Blend: AUG-CC-PVTZ
  Basis Set: (AUG-CC-PVTZ AUX)
    Blend: AUG-CC-PVTZ-JKFIT
	 Reference Energy          =    -250.2569313388039802 [Eh]
	 Singles Energy            =      -0.0000000000000000 [Eh]
	 Same-Spin Energy          =      -0.2621013379830881 [Eh]
	 Opposite-Spin Energy      =      -0.9368339063670805 [Eh]
	 Correlation Energy        =      -1.1989352443501686 [Eh]
	 Total Energy              =    -251.4558665831541475 [Eh]

	 ================> DF-SCS-MP2 Energies <==================
	-----------------------------------------------------------
	 SCS Same-Spin Scale       =       0.3333333333333333 [-]
	 SCS Opposite-Spin Scale   =       1.2000000000000000 [-]
	 SCS Same-Spin Energy      =      -0.0873671126610294 [Eh]
	 SCS Opposite-Spin Energy  =      -1.1242006876404966 [Eh]
	 SCS Correlation Energy    =      -1.2115678003015260 [Eh]
	 SCS Total Energy          =    -251.4684991391055178 [Eh]
	-----------------------------------------------------------

  Dipole Moment: [D]
     X:     0.2860      Y:    -0.4625      Z:     1.3453     Total:     1.4511

*** Psi4 exiting successfully. Buy a developer a beer!
