                               Psi4 1.3.2 release

  ==> Input File <==

--------------------------------------------------------------------------
#psi4
#
memory 32 gb

molecule  {
0 1
  N       -1.4514230    -0.0014080    -0.4975550
  C        1.9178760    -0.2820330     0.3003480
  C        0.7301990    -1.0539890    -0.2910100
  C        1.9133330     1.1918710    -0.0951930
  C       -0.5758300    -0.5622950     0.2505430
  C       -2.6734760     0.4500620     0.1549430
  H        1.9034540    -0.3751150     1.3937850
  H        2.8483830    -0.7529800    -0.0365760
  H        0.7089260    -0.9492610    -1.3805420
  H        0.8357330    -2.1215800    -0.0558240
  H        1.9489790     1.2991200    -1.1835390
  H        1.0073910     1.6938590     0.2549320
  H        2.7765220     1.7153350     0.3260680
  H       -0.8385535    -0.9143462     1.2928977
  H       -2.7870910     1.5245690    -0.0148120
  H       -2.6927620     0.2538980     1.2378030
  H       -3.5272530    -0.0486490    -0.3125820
units angstrom
no_reorient  #important for SAPT in psi4, default
symmetry c1  #important for SAPT in psi4, default
}

set PROPERTIES_ORIGIN ["COM"]
properties('MP2/aug-cc-pvtz', properties = ['dipole'])
--------------------------------------------------------------------------

    Molecular point group: c1
  Charge       = 0
  Multiplicity = 1
  Basis Set: AUG-CC-PVTZ
    Blend: AUG-CC-PVTZ
  Basis Set: (AUG-CC-PVTZ AUX)
    Blend: AUG-CC-PVTZ-JKFIT

    Orbital Energies [Eh]
    ---------------------

    Doubly Occupied:

       1A    -15.555867     2A    -11.275632     3A    -11.243191
       4A    -11.226491     5A    -11.225494     6A    -11.210664
       7A     -1.220019     8A     -1.070408     9A     -0.973479
      10A     -0.910766    11A     -0.815621    12A     -0.750975
      13A     -0.643286    14A     -0.634443    15A     -0.604567
      16A     -0.587119    17A     -0.579011    18A     -0.542640
      19A     -0.516116    20A     -0.489816    21A     -0.480871
      22A     -0.474572    23A     -0.404784    24A     -0.391045

  @DF-RHF Final Energy:  -250.25885631073703

   => Energetics <=

    Nuclear Repulsion Energy =            235.2302808948621191
    One-Electron Energy =                -803.3245245380876440
    Two-Electron Energy =                 317.8353873324885512
    Total Energy =                       -250.2588563107370305
  Basis Set: (AUG-CC-PVTZ AUX)
    Blend: AUG-CC-PVTZ-RI
    Molecular point group: c1

    Geometry (in Angstrom), charge = 0, multiplicity = 1:

       Center              X                  Y                   Z               Mass
    ------------   -----------------  -----------------  -----------------  -----------------
         N           -1.423471804662     0.019289204627    -0.478772227513    14.003074004430
         C            1.945827195338    -0.261335795373     0.319130772487    12.000000000000
         C            0.758150195338    -1.033291795373    -0.272227227513    12.000000000000
         C            1.941284195338     1.212568204627    -0.076410227513    12.000000000000
         C           -0.547878804662    -0.541597795373     0.269325772487    12.000000000000
         C           -2.645524804662     0.470759204627     0.173725772487    12.000000000000
         H            1.931405195338    -0.354417795373     1.412567772487     1.007825032230
         H            2.876334195338    -0.732282795373    -0.017793227513     1.007825032230
         H            0.736877195338    -0.928563795373    -1.361759227513     1.007825032230
         H            0.863684195338    -2.100882795373    -0.037041227513     1.007825032230
         H            1.976930195338     1.319817204627    -1.164756227513     1.007825032230
         H            1.035342195338     1.714556204627     0.273714772487     1.007825032230
         H            2.804473195338     1.736032204627     0.344850772487     1.007825032230
         H           -0.810602304662    -0.893648995373     1.311680472487     1.007825032230
         H           -2.759139804662     1.545266204627     0.003970772487     1.007825032230
         H           -2.664810804662     0.274595204627     1.256585772487     1.007825032230
         H           -3.499301804662    -0.027951795373    -0.293799227513     1.007825032230

  Basis Set: AUG-CC-PVTZ
    Blend: AUG-CC-PVTZ
  Basis Set: (AUG-CC-PVTZ AUX)
    Blend: AUG-CC-PVTZ-JKFIT
	 Reference Energy          =    -250.2588563107370305 [Eh]
	 Singles Energy            =      -0.0000000000000000 [Eh]
	 Same-Spin Energy          =      -0.2620105648002709 [Eh]
	 Opposite-Spin Energy      =      -0.9365792304788008 [Eh]
	 Correlation Energy        =      -1.1985897952790716 [Eh]
	 Total Energy              =    -251.4574461060161070 [Eh]

	 ================> DF-SCS-MP2 Energies <==================
	-----------------------------------------------------------
	 SCS Same-Spin Scale       =       0.3333333333333333 [-]
	 SCS Opposite-Spin Scale   =       1.2000000000000000 [-]
	 SCS Same-Spin Energy      =      -0.0873368549334236 [Eh]
	 SCS Opposite-Spin Energy  =      -1.1238950765745608 [Eh]
	 SCS Correlation Energy    =      -1.2112319315079845 [Eh]
	 SCS Total Energy          =    -251.4700882422450263 [Eh]
	-----------------------------------------------------------

  Dipole Moment: [D]
     X:     0.3031      Y:    -0.4472      Z:     1.3695     Total:     1.4722

*** Psi4 exiting successfully. Buy a developer a beer!
