                               Psi4 1.3.2 release

  ==> Input File <==

--------------------------------------------------------------------------
#psi4
#
memory 32 gb

molecule  {
0 1
  F        0.7457720     1.2439030     0.0993580
  O        1.5750600    -0.7893450    -0.3055120
  C       -0.7523660    -0.5529908     0.4042242
  C       -1.8269480     0.0738180    -0.3493740
  C        0.6450590    -0.1245570     0.0566130
  H       -0.8366380    -0.2608540     1.5463680
  H       -0.7457930    -1.6486690     0.4487620
  H       -1.7160630    -0.2005380    -1.4014460
  H       -2.8039020    -0.2761050    -0.0088100
  H       -1.7996360     1.1613730    -0.2701860
units angstrom
no_reorient  #important for SAPT in psi4, default
symmetry c1  #important for SAPT in psi4, default
}

set PROPERTIES_ORIGIN ["COM"]
properties('MP2/aug-cc-pvtz', properties = ['dipole'])
--------------------------------------------------------------------------

    Molecular point group: c1
  Charge       = 0
  Multiplicity = 1
  Basis Set: AUG-CC-PVTZ
    Blend: AUG-CC-PVTZ
  Basis Set: (AUG-CC-PVTZ AUX)
    Blend: AUG-CC-PVTZ-JKFIT

    Orbital Energies [Eh]
    ---------------------

    Doubly Occupied:

       1A    -26.326296     2A    -20.584055     3A    -11.427347
       4A    -11.275827     5A    -11.243034     6A     -1.644148
       7A     -1.421460     8A     -1.100858     9A     -0.928188
      10A     -0.829425    11A     -0.733437    12A     -0.717804
      13A     -0.703927    14A     -0.637671    15A     -0.618443
      16A     -0.597353    17A     -0.553815    18A     -0.532715
      19A     -0.506760    20A     -0.475573

  @DF-RHF Final Energy:  -290.93282001437871

   => Energetics <=

    Nuclear Repulsion Energy =            176.5919164197268003
    One-Electron Energy =                -749.3331986760636028
    Two-Electron Energy =                 281.8084622419581251
    Total Energy =                       -290.9328200143787058
  Basis Set: (AUG-CC-PVTZ AUX)
    Blend: AUG-CC-PVTZ-RI
    Molecular point group: c1

    Geometry (in Angstrom), charge = 0, multiplicity = 1:

       Center              X                  Y                   Z               Mass
    ------------   -----------------  -----------------  -----------------  -----------------
         F            0.638100835269     1.210660214863     0.117038428486    18.998403162730
         O            1.467388835269    -0.822587785137    -0.287831571514    15.994914619570
         C           -0.860037164731    -0.586233585137     0.421904628486    12.000000000000
         C           -1.934619164731     0.040575214863    -0.331693571514    12.000000000000
         C            0.537387835269    -0.157799785137     0.074293428486    12.000000000000
         H           -0.944309164731    -0.294096785137     1.564048428486     1.007825032230
         H           -0.853464164731    -1.681911785137     0.466442428486     1.007825032230
         H           -1.823734164731    -0.233780785137    -1.383765571514     1.007825032230
         H           -2.911573164731    -0.309347785137     0.008870428486     1.007825032230
         H           -1.907307164731     1.128130214863    -0.252505571514     1.007825032230

  Basis Set: AUG-CC-PVTZ
    Blend: AUG-CC-PVTZ
  Basis Set: (AUG-CC-PVTZ AUX)
    Blend: AUG-CC-PVTZ-JKFIT
	 Reference Energy          =    -290.9328200143787058 [Eh]
	 Singles Energy            =      -0.0000000000000000 [Eh]
	 Same-Spin Energy          =      -0.2625976313304739 [Eh]
	 Opposite-Spin Energy      =      -0.8289305110403777 [Eh]
	 Correlation Energy        =      -1.0915281423708516 [Eh]
	 Total Energy              =    -292.0243481567495678 [Eh]

	 ================> DF-SCS-MP2 Energies <==================
	-----------------------------------------------------------
	 SCS Same-Spin Scale       =       0.3333333333333333 [-]
	 SCS Opposite-Spin Scale   =       1.2000000000000000 [-]
	 SCS Same-Spin Energy      =      -0.0875325437768246 [Eh]
	 SCS Opposite-Spin Energy  =      -0.9947166132484533 [Eh]
	 SCS Correlation Energy    =      -1.0822491570252779 [Eh]
	 SCS Total Energy          =    -292.0150691714039795 [Eh]
	-----------------------------------------------------------

  Dipole Moment: [D]
     X:    -2.9678      Y:    -0.3896      Z:     0.7665     Total:     3.0899

*** Psi4 exiting successfully. Buy a developer a beer!
