                               Psi4 1.3.2 release

  ==> Input File <==

--------------------------------------------------------------------------
#psi4
#
memory 32 gb

molecule  {
0 1
  F        0.7457720     1.2439030     0.0993580
  O        1.5750600    -0.7893450    -0.3055120
  C       -0.8011490    -0.5446910     0.2626215
  C       -1.8269480     0.0738180    -0.3493740
  C        0.6450590    -0.1245570     0.0566130
  H       -0.8366380    -0.2608540     1.5463680
  H       -0.7457930    -1.6486690     0.4487620
  H       -1.7160630    -0.2005380    -1.4014460
  H       -2.8039020    -0.2761050    -0.0088100
  H       -1.7996360     1.1613730    -0.2701860
units angstrom
no_reorient  #important for SAPT in psi4, default
symmetry c1  #important for SAPT in psi4, default
}

set PROPERTIES_ORIGIN ["COM"]
properties('MP2/aug-cc-pvtz', properties = ['dipole'])
--------------------------------------------------------------------------

    Molecular point group: c1
  Charge       = 0
  Multiplicity = 1
  Basis Set: AUG-CC-PVTZ
    Blend: AUG-CC-PVTZ
  Basis Set: (AUG-CC-PVTZ AUX)
    Blend: AUG-CC-PVTZ-JKFIT

    Orbital Energies [Eh]
    ---------------------

    Doubly Occupied:

       1A    -26.326569     2A    -20.584633     3A    -11.430742
       4A    -11.287831     5A    -11.238559     6A     -1.644279
       7A     -1.422088     8A     -1.124771     9A     -0.930170
      10A     -0.825438    11A     -0.734543    12A     -0.717308
      13A     -0.704040    14A     -0.640306    15A     -0.632202
      16A     -0.619211    17A     -0.552621    18A     -0.534541
      19A     -0.491695    20A     -0.446647

  @DF-RHF Final Energy:  -290.88295281300600

   => Energetics <=

    Nuclear Repulsion Energy =            177.2946894202430315
    One-Electron Energy =                -750.5788925158966549
    Two-Electron Energy =                 282.4012502826476521
    Total Energy =                       -290.8829528130059998
  Basis Set: (AUG-CC-PVTZ AUX)
    Blend: AUG-CC-PVTZ-RI
    Molecular point group: c1

    Geometry (in Angstrom), charge = 0, multiplicity = 1:

       Center              X                  Y                   Z               Mass
    ------------   -----------------  -----------------  -----------------  -----------------
         F            0.645800127536     1.209350279312     0.139387209272    18.998403162730
         O            1.475088127536    -0.823897720688    -0.265482790728    15.994914619570
         C           -0.901120872464    -0.579243720688     0.302650709272    12.000000000000
         C           -1.926919872464     0.039265279312    -0.309344790728    12.000000000000
         C            0.545087127536    -0.159109720688     0.096642209272    12.000000000000
         H           -0.936609872464    -0.295406720688     1.586397209272     1.007825032230
         H           -0.845764872464    -1.683221720688     0.488791209272     1.007825032230
         H           -1.816034872464    -0.235090720688    -1.361416790728     1.007825032230
         H           -2.903873872464    -0.310657720688     0.031219209272     1.007825032230
         H           -1.899607872464     1.126820279312    -0.230156790728     1.007825032230

  Basis Set: AUG-CC-PVTZ
    Blend: AUG-CC-PVTZ
  Basis Set: (AUG-CC-PVTZ AUX)
    Blend: AUG-CC-PVTZ-JKFIT
	 Reference Energy          =    -290.8829528130059998 [Eh]
	 Singles Energy            =      -0.0000000000000000 [Eh]
	 Same-Spin Energy          =      -0.2646215257820880 [Eh]
	 Opposite-Spin Energy      =      -0.8323983121708802 [Eh]
	 Correlation Energy        =      -1.0970198379529683 [Eh]
	 Total Energy              =    -291.9799726509589846 [Eh]

	 ================> DF-SCS-MP2 Energies <==================
	-----------------------------------------------------------
	 SCS Same-Spin Scale       =       0.3333333333333333 [-]
	 SCS Opposite-Spin Scale   =       1.2000000000000000 [-]
	 SCS Same-Spin Energy      =      -0.0882071752606960 [Eh]
	 SCS Opposite-Spin Energy  =      -0.9988779746050562 [Eh]
	 SCS Correlation Energy    =      -1.0870851498657523 [Eh]
	 SCS Total Energy          =    -291.9700379628717428 [Eh]
	-----------------------------------------------------------

  Dipole Moment: [D]
     X:    -3.0434      Y:    -0.3728      Z:     0.5985     Total:     3.1240

*** Psi4 exiting successfully. Buy a developer a beer!
