                               Psi4 1.3.2 release

  ==> Input File <==

--------------------------------------------------------------------------
#psi4
#
memory 32 gb

molecule  {
0 1
  F        0.7457720     1.2439030     0.0993580
  O        1.5750600    -0.7893450    -0.3055120
  C       -0.7198440    -0.5585240     0.4986260
  C       -1.8269480     0.0738180    -0.3493740
  C        0.6450590    -0.1245570     0.0566130
  H       -0.8366380    -0.2608540     1.5463680
  H       -0.7457930    -1.6486690     0.4487620
  H       -1.7160630    -0.2005380    -1.4014460
  H       -2.8039020    -0.2761050    -0.0088100
  H       -1.7996360     1.1613730    -0.2701860
units angstrom
no_reorient  #important for SAPT in psi4, default
symmetry c1  #important for SAPT in psi4, default
}

set PROPERTIES_ORIGIN ["COM"]
properties('MP2/aug-cc-pvtz', properties = ['dipole'])
--------------------------------------------------------------------------

    Molecular point group: c1
  Charge       = 0
  Multiplicity = 1
  Basis Set: AUG-CC-PVTZ
    Blend: AUG-CC-PVTZ
  Basis Set: (AUG-CC-PVTZ AUX)
    Blend: AUG-CC-PVTZ-JKFIT

    Orbital Energies [Eh]
    ---------------------

    Doubly Occupied:

       1A    -26.325983     2A    -20.583579     3A    -11.426396
       4A    -11.270529     5A    -11.247030     6A     -1.643873
       7A     -1.420993     8A     -1.089577     9A     -0.926116
      10A     -0.832038    11A     -0.733122    12A     -0.719088
      13A     -0.705153    14A     -0.642236    15A     -0.613870
      16A     -0.580464    17A     -0.554978    18A     -0.531019
      19A     -0.518202    20A     -0.481222

  @DF-RHF Final Energy:  -290.94324184240384

   => Energetics <=

    Nuclear Repulsion Energy =            176.0685060260807120
    One-Electron Energy =                -748.3325584282215459
    Two-Electron Energy =                 281.3208105597369695
    Total Energy =                       -290.9432418424038360
  Basis Set: (AUG-CC-PVTZ AUX)
    Blend: AUG-CC-PVTZ-RI
    Molecular point group: c1

    Geometry (in Angstrom), charge = 0, multiplicity = 1:

       Center              X                  Y                   Z               Mass
    ------------   -----------------  -----------------  -----------------  -----------------
         F            0.632967973757     1.211533505230     0.102139241295    18.998403162730
         O            1.462255973757    -0.821714494770    -0.302730758705    15.994914619570
         C           -0.832648026243    -0.590893494770     0.501407241295    12.000000000000
         C           -1.939752026243     0.041448505230    -0.346592758705    12.000000000000
         C            0.532254973757    -0.156926494770     0.059394241295    12.000000000000
         H           -0.949442026243    -0.293223494770     1.549149241295     1.007825032230
         H           -0.858597026243    -1.681038494770     0.451543241295     1.007825032230
         H           -1.828867026243    -0.232907494770    -1.398664758705     1.007825032230
         H           -2.916706026243    -0.308474494770    -0.006028758705     1.007825032230
         H           -1.912440026243     1.129003505230    -0.267404758705     1.007825032230

  Basis Set: AUG-CC-PVTZ
    Blend: AUG-CC-PVTZ
  Basis Set: (AUG-CC-PVTZ AUX)
    Blend: AUG-CC-PVTZ-JKFIT
	 Reference Energy          =    -290.9432418424038360 [Eh]
	 Singles Energy            =      -0.0000000000000000 [Eh]
	 Same-Spin Energy          =      -0.2618805837860317 [Eh]
	 Opposite-Spin Energy      =      -0.8279262441350799 [Eh]
	 Correlation Energy        =      -1.0898068279211115 [Eh]
	 Total Energy              =    -292.0330486703249449 [Eh]

	 ================> DF-SCS-MP2 Energies <==================
	-----------------------------------------------------------
	 SCS Same-Spin Scale       =       0.3333333333333333 [-]
	 SCS Opposite-Spin Scale   =       1.2000000000000000 [-]
	 SCS Same-Spin Energy      =      -0.0872935279286772 [Eh]
	 SCS Opposite-Spin Energy  =      -0.9935114929620958 [Eh]
	 SCS Correlation Energy    =      -1.0808050208907731 [Eh]
	 SCS Total Energy          =    -292.0240468632945863 [Eh]
	-----------------------------------------------------------

  Dipole Moment: [D]
     X:    -2.9524      Y:    -0.3879      Z:     0.8225     Total:     3.0893

*** Psi4 exiting successfully. Buy a developer a beer!
