                               Psi4 1.3.2 release

  ==> Input File <==

--------------------------------------------------------------------------
#psi4
#
memory 32 gb

molecule  {
0 1
  F        0.7457720     1.2439030     0.0993580
  O        1.5750600    -0.7893450    -0.3055120
  C       -0.7848880    -0.5474576     0.3098224
  C       -1.8269480     0.0738180    -0.3493740
  C        0.6450590    -0.1245570     0.0566130
  H       -0.8366380    -0.2608540     1.5463680
  H       -0.7457930    -1.6486690     0.4487620
  H       -1.7160630    -0.2005380    -1.4014460
  H       -2.8039020    -0.2761050    -0.0088100
  H       -1.7996360     1.1613730    -0.2701860
units angstrom
no_reorient  #important for SAPT in psi4, default
symmetry c1  #important for SAPT in psi4, default
}

set PROPERTIES_ORIGIN ["COM"]
properties('MP2/aug-cc-pvtz', properties = ['dipole'])
--------------------------------------------------------------------------

    Molecular point group: c1
  Charge       = 0
  Multiplicity = 1
  Basis Set: AUG-CC-PVTZ
    Blend: AUG-CC-PVTZ
  Basis Set: (AUG-CC-PVTZ AUX)
    Blend: AUG-CC-PVTZ-JKFIT

    Orbital Energies [Eh]
    ---------------------

    Doubly Occupied:

       1A    -26.326508     2A    -20.584477     3A    -11.429370
       4A    -11.283325     5A    -11.239768     6A     -1.644278
       7A     -1.421904     8A     -1.115727     9A     -0.929795
      10A     -0.826817    11A     -0.734139    12A     -0.717355
      13A     -0.703695    14A     -0.637720    15A     -0.626011
      16A     -0.614064    17A     -0.552995    18A     -0.534356
      19A     -0.495658    20A     -0.458676

  @DF-RHF Final Energy:  -290.90409267907518

   => Energetics <=

    Nuclear Repulsion Energy =            177.0713620039608998
    One-Electron Energy =                -750.1976293167098220
    Two-Electron Energy =                 282.2221746336737738
    Total Energy =                       -290.9040926790751769
  Basis Set: (AUG-CC-PVTZ AUX)
    Blend: AUG-CC-PVTZ-RI
    Molecular point group: c1

    Geometry (in Angstrom), charge = 0, multiplicity = 1:

       Center              X                  Y                   Z               Mass
    ------------   -----------------  -----------------  -----------------  -----------------
         F            0.643233696780     1.209786924496     0.131937615677    18.998403162730
         O            1.472521696780    -0.823461075504    -0.272932384323    15.994914619570
         C           -0.887426303220    -0.581573675504     0.342402015677    12.000000000000
         C           -1.929486303220     0.039701924496    -0.316794384323    12.000000000000
         C            0.542520696780    -0.158673075504     0.089192615677    12.000000000000
         H           -0.939176303220    -0.294970075504     1.578947615677     1.007825032230
         H           -0.848331303220    -1.682785075504     0.481341615677     1.007825032230
         H           -1.818601303220    -0.234654075504    -1.368866384323     1.007825032230
         H           -2.906440303220    -0.310221075504     0.023769615677     1.007825032230
         H           -1.902174303220     1.127256924496    -0.237606384323     1.007825032230

  Basis Set: AUG-CC-PVTZ
    Blend: AUG-CC-PVTZ
  Basis Set: (AUG-CC-PVTZ AUX)
    Blend: AUG-CC-PVTZ-JKFIT
	 Reference Energy          =    -290.9040926790751769 [Eh]
	 Singles Energy            =      -0.0000000000000000 [Eh]
	 Same-Spin Energy          =      -0.2638169929107375 [Eh]
	 Opposite-Spin Energy      =      -0.8309931628962258 [Eh]
	 Correlation Energy        =      -1.0948101558069632 [Eh]
	 Total Energy              =    -291.9989028348821307 [Eh]

	 ================> DF-SCS-MP2 Energies <==================
	-----------------------------------------------------------
	 SCS Same-Spin Scale       =       0.3333333333333333 [-]
	 SCS Opposite-Spin Scale   =       1.2000000000000000 [-]
	 SCS Same-Spin Energy      =      -0.0879389976369125 [Eh]
	 SCS Opposite-Spin Energy  =      -0.9971917954754710 [Eh]
	 SCS Correlation Energy    =      -1.0851307931123835 [Eh]
	 SCS Total Energy          =    -291.9892234721875752 [Eh]
	-----------------------------------------------------------

  Dipole Moment: [D]
     X:    -3.0092      Y:    -0.3817      Z:     0.6680     Total:     3.1060

*** Psi4 exiting successfully. Buy a developer a beer!
