                               Psi4 1.3.2 release

  ==> Input File <==

--------------------------------------------------------------------------
#psi4
#
memory 32 gb

molecule  {
0 1
  F        0.7457720     1.2439030     0.0993580
  O        1.5750600    -0.7893450    -0.3055120
  C       -0.7361050    -0.5557574     0.4514251
  C       -1.8269480     0.0738180    -0.3493740
  C        0.6450590    -0.1245570     0.0566130
  H       -0.8366380    -0.2608540     1.5463680
  H       -0.7457930    -1.6486690     0.4487620
  H       -1.7160630    -0.2005380    -1.4014460
  H       -2.8039020    -0.2761050    -0.0088100
  H       -1.7996360     1.1613730    -0.2701860
units angstrom
no_reorient  #important for SAPT in psi4, default
symmetry c1  #important for SAPT in psi4, default
}

set PROPERTIES_ORIGIN ["COM"]
properties('MP2/aug-cc-pvtz', properties = ['dipole'])
--------------------------------------------------------------------------

    Molecular point group: c1
  Charge       = 0
  Multiplicity = 1
  Basis Set: AUG-CC-PVTZ
    Blend: AUG-CC-PVTZ
  Basis Set: (AUG-CC-PVTZ AUX)
    Blend: AUG-CC-PVTZ-JKFIT

    Orbital Energies [Eh]
    ---------------------

    Doubly Occupied:

       1A    -26.326151     2A    -20.583818     3A    -11.426731
       4A    -11.272892     5A    -11.244965     6A     -1.644027
       7A     -1.421225     8A     -1.094823     9A     -0.927161
      10A     -0.830710    11A     -0.733182    12A     -0.718310
      13A     -0.704434    14A     -0.639440    15A     -0.616040
      16A     -0.588391    17A     -0.554308    18A     -0.531418
      19A     -0.513511    20A     -0.479557

  @DF-RHF Final Energy:  -290.94036478873107

   => Energetics <=

    Nuclear Repulsion Energy =            176.3356663471555805
    One-Electron Energy =                -748.8498747363836401
    Two-Electron Energy =                 281.5738436004970140
    Total Energy =                       -290.9403647887310740
  Basis Set: (AUG-CC-PVTZ AUX)
    Blend: AUG-CC-PVTZ-RI
    Molecular point group: c1

    Geometry (in Angstrom), charge = 0, multiplicity = 1:

       Center              X                  Y                   Z               Mass
    ------------   -----------------  -----------------  -----------------  -----------------
         F            0.635534404513     1.211096860046     0.109588834890    18.998403162730
         O            1.464822404513    -0.822151139954    -0.295281165110    15.994914619570
         C           -0.846342595487    -0.588563539954     0.461655934890    12.000000000000
         C           -1.937185595487     0.041011860046    -0.339143165110    12.000000000000
         C            0.534821404513    -0.157363139954     0.066843834890    12.000000000000
         H           -0.946875595487    -0.293660139954     1.556598834890     1.007825032230
         H           -0.856030595487    -1.681475139954     0.458992834890     1.007825032230
         H           -1.826300595487    -0.233344139954    -1.391215165110     1.007825032230
         H           -2.914139595487    -0.308911139954     0.001420834890     1.007825032230
         H           -1.909873595487     1.128566860046    -0.259955165110     1.007825032230

  Basis Set: AUG-CC-PVTZ
    Blend: AUG-CC-PVTZ
  Basis Set: (AUG-CC-PVTZ AUX)
    Blend: AUG-CC-PVTZ-JKFIT
	 Reference Energy          =    -290.9403647887310740 [Eh]
	 Singles Energy            =      -0.0000000000000000 [Eh]
	 Same-Spin Energy          =      -0.2621778250831178 [Eh]
	 Opposite-Spin Energy      =      -0.8282914508618090 [Eh]
	 Correlation Energy        =      -1.0904692759449268 [Eh]
	 Total Energy              =    -292.0308340646760143 [Eh]

	 ================> DF-SCS-MP2 Energies <==================
	-----------------------------------------------------------
	 SCS Same-Spin Scale       =       0.3333333333333333 [-]
	 SCS Opposite-Spin Scale   =       1.2000000000000000 [-]
	 SCS Same-Spin Energy      =      -0.0873926083610393 [Eh]
	 SCS Opposite-Spin Energy  =      -0.9939497410341708 [Eh]
	 SCS Correlation Energy    =      -1.0813423493952101 [Eh]
	 SCS Total Energy          =    -292.0217071381262599 [Eh]
	-----------------------------------------------------------

  Dipole Moment: [D]
     X:    -2.9575      Y:    -0.3897      Z:     0.7992     Total:     3.0882

*** Psi4 exiting successfully. Buy a developer a beer!
