                               Psi4 1.3.2 release

  ==> Input File <==

--------------------------------------------------------------------------
#psi4
#
memory 32 gb

molecule  {
0 1
  F        0.7457720     1.2439030     0.0993580
  O        1.5750600    -0.7893450    -0.3055120
  C       -0.8174101    -0.5419244     0.2154206
  C       -1.8269480     0.0738180    -0.3493740
  C        0.6450590    -0.1245570     0.0566130
  H       -0.8366380    -0.2608540     1.5463680
  H       -0.7457930    -1.6486690     0.4487620
  H       -1.7160630    -0.2005380    -1.4014460
  H       -2.8039020    -0.2761050    -0.0088100
  H       -1.7996360     1.1613730    -0.2701860
units angstrom
no_reorient  #important for SAPT in psi4, default
symmetry c1  #important for SAPT in psi4, default
}

set PROPERTIES_ORIGIN ["COM"]
properties('MP2/aug-cc-pvtz', properties = ['dipole'])
--------------------------------------------------------------------------

    Molecular point group: c1
  Charge       = 0
  Multiplicity = 1
  Basis Set: AUG-CC-PVTZ
    Blend: AUG-CC-PVTZ
  Basis Set: (AUG-CC-PVTZ AUX)
    Blend: AUG-CC-PVTZ-JKFIT

    Orbital Energies [Eh]
    ---------------------

    Doubly Occupied:

       1A    -26.326594     2A    -20.584729     3A    -11.432324
       4A    -11.292790     5A    -11.237739     6A     -1.644229
       7A     -1.422226     8A     -1.134997     9A     -0.930130
      10A     -0.823988    11A     -0.735008    12A     -0.717337
      13A     -0.704763    14A     -0.646230    15A     -0.637421
      16A     -0.622752    17A     -0.552273    18A     -0.534351
      19A     -0.488051    20A     -0.433423

  @DF-RHF Final Energy:  -290.85727507266154

   => Energetics <=

    Nuclear Repulsion Energy =            177.5072558910202645
    One-Electron Energy =                -750.9263530335614405
    Two-Electron Energy =                 282.5618220698796677
    Total Energy =                       -290.8572750726615368
  Basis Set: (AUG-CC-PVTZ AUX)
    Blend: AUG-CC-PVTZ-RI
    Molecular point group: c1

    Geometry (in Angstrom), charge = 0, multiplicity = 1:

       Center              X                  Y                   Z               Mass
    ------------   -----------------  -----------------  -----------------  -----------------
         F            0.648366574074     1.208913634129     0.146836802868    18.998403162730
         O            1.477654574074    -0.824334365871    -0.258033197132    15.994914619570
         C           -0.914815525926    -0.576913765871     0.262899402868    12.000000000000
         C           -1.924353425926     0.038828634129    -0.301895197132    12.000000000000
         C            0.547653574074    -0.159546365871     0.104091802868    12.000000000000
         H           -0.934043425926    -0.295843365871     1.593846802868     1.007825032230
         H           -0.843198425926    -1.683658365871     0.496240802868     1.007825032230
         H           -1.813468425926    -0.235527365871    -1.353967197132     1.007825032230
         H           -2.901307425926    -0.311094365871     0.038668802868     1.007825032230
         H           -1.897041425926     1.126383634129    -0.222707197132     1.007825032230

  Basis Set: AUG-CC-PVTZ
    Blend: AUG-CC-PVTZ
  Basis Set: (AUG-CC-PVTZ AUX)
    Blend: AUG-CC-PVTZ-JKFIT
	 Reference Energy          =    -290.8572750726615368 [Eh]
	 Singles Energy            =      -0.0000000000000000 [Eh]
	 Same-Spin Energy          =      -0.2655561364154702 [Eh]
	 Opposite-Spin Energy      =      -0.8340371149638776 [Eh]
	 Correlation Energy        =      -1.0995932513793478 [Eh]
	 Total Energy              =    -291.9568683240408973 [Eh]

	 ================> DF-SCS-MP2 Energies <==================
	-----------------------------------------------------------
	 SCS Same-Spin Scale       =       0.3333333333333333 [-]
	 SCS Opposite-Spin Scale   =       1.2000000000000000 [-]
	 SCS Same-Spin Energy      =      -0.0885187121384901 [Eh]
	 SCS Opposite-Spin Energy  =      -1.0008445379566531 [Eh]
	 SCS Correlation Energy    =      -1.0893632500951431 [Eh]
	 SCS Total Energy          =    -291.9466383227566553 [Eh]
	-----------------------------------------------------------

  Dipole Moment: [D]
     X:    -3.0891      Y:    -0.3597      Z:     0.5128     Total:     3.1520

*** Psi4 exiting successfully. Buy a developer a beer!
