                               Psi4 1.3.2 release

  ==> Input File <==

--------------------------------------------------------------------------
#psi4
#
memory 32 gb

molecule  {
0 1
  F        0.7457720     1.2439030     0.0993580
  O        1.5750600    -0.7893450    -0.3055120
  C       -0.7686270    -0.5502242     0.3570233
  C       -1.8269480     0.0738180    -0.3493740
  C        0.6450590    -0.1245570     0.0566130
  H       -0.8366380    -0.2608540     1.5463680
  H       -0.7457930    -1.6486690     0.4487620
  H       -1.7160630    -0.2005380    -1.4014460
  H       -2.8039020    -0.2761050    -0.0088100
  H       -1.7996360     1.1613730    -0.2701860
units angstrom
no_reorient  #important for SAPT in psi4, default
symmetry c1  #important for SAPT in psi4, default
}

set PROPERTIES_ORIGIN ["COM"]
properties('MP2/aug-cc-pvtz', properties = ['dipole'])
--------------------------------------------------------------------------

    Molecular point group: c1
  Charge       = 0
  Multiplicity = 1
  Basis Set: AUG-CC-PVTZ
    Blend: AUG-CC-PVTZ
  Basis Set: (AUG-CC-PVTZ AUX)
    Blend: AUG-CC-PVTZ-JKFIT

    Orbital Energies [Eh]
    ---------------------

    Doubly Occupied:

       1A    -26.326416     2A    -20.584279     3A    -11.428232
       4A    -11.279313     5A    -11.241283     6A     -1.644233
       7A     -1.421690     8A     -1.107789     9A     -0.929100
      10A     -0.828139    11A     -0.733770    12A     -0.717507
      13A     -0.703670    14A     -0.637048    15A     -0.621477
      16A     -0.606397    17A     -0.553391    18A     -0.533754
      19A     -0.500546    20A     -0.468603

  @DF-RHF Final Energy:  -290.92071488880185

   => Energetics <=

    Nuclear Repulsion Energy =            176.8371408954462538
    One-Electron Energy =                -749.7824370583115297
    Two-Electron Energy =                 282.0245812740633937
    Total Energy =                       -290.9207148888018537
  Basis Set: (AUG-CC-PVTZ AUX)
    Blend: AUG-CC-PVTZ-RI
    Molecular point group: c1

    Geometry (in Angstrom), charge = 0, multiplicity = 1:

       Center              X                  Y                   Z               Mass
    ------------   -----------------  -----------------  -----------------  -----------------
         F            0.640667266024     1.210223569679     0.124488022081    18.998403162730
         O            1.469955266024    -0.823024430321    -0.280381977919    15.994914619570
         C           -0.873731733976    -0.583903630321     0.382153322081    12.000000000000
         C           -1.932052733976     0.040138569679    -0.324243977919    12.000000000000
         C            0.539954266024    -0.158236430321     0.081743022081    12.000000000000
         H           -0.941742733976    -0.294533430321     1.571498022081     1.007825032230
         H           -0.850897733976    -1.682348430321     0.473892022081     1.007825032230
         H           -1.821167733976    -0.234217430321    -1.376315977919     1.007825032230
         H           -2.909006733976    -0.309784430321     0.016320022081     1.007825032230
         H           -1.904740733976     1.127693569679    -0.245055977919     1.007825032230

  Basis Set: AUG-CC-PVTZ
    Blend: AUG-CC-PVTZ
  Basis Set: (AUG-CC-PVTZ AUX)
    Blend: AUG-CC-PVTZ-JKFIT
	 Reference Energy          =    -290.9207148888018537 [Eh]
	 Singles Energy            =      -0.0000000000000000 [Eh]
	 Same-Spin Energy          =      -0.2631430079520728 [Eh]
	 Opposite-Spin Energy      =      -0.8298339773088620 [Eh]
	 Correlation Energy        =      -1.0929769852609348 [Eh]
	 Total Energy              =    -292.0136918740627721 [Eh]

	 ================> DF-SCS-MP2 Energies <==================
	-----------------------------------------------------------
	 SCS Same-Spin Scale       =       0.3333333333333333 [-]
	 SCS Opposite-Spin Scale   =       1.2000000000000000 [-]
	 SCS Same-Spin Energy      =      -0.0877143359840243 [Eh]
	 SCS Opposite-Spin Energy  =      -0.9958007727706344 [Eh]
	 SCS Correlation Energy    =      -1.0835151087546586 [Eh]
	 SCS Total Energy          =    -292.0042299975565356 [Eh]
	-----------------------------------------------------------

  Dipole Moment: [D]
     X:    -2.9846      Y:    -0.3871      Z:     0.7233     Total:     3.0953

*** Psi4 exiting successfully. Buy a developer a beer!
