                               Psi4 1.3.2 release

  ==> Input File <==

--------------------------------------------------------------------------
#psi4
#
memory 32 gb

molecule  {
0 1
  S        1.1830230     0.0407500    -0.0002230
  N       -1.2657710    -0.7786410     0.0002510
  C       -0.0437376     1.2372152    -0.0000347
  C       -1.2905570     0.5944340     0.0002340
  C       -0.0184830    -1.1998720     0.0000480
  H        0.1541650     2.2748950    -0.0001110
  H       -2.2450570     1.1086030     0.0003980
  H        0.2637610    -2.2461300     0.0000230
units angstrom
no_reorient  #important for SAPT in psi4, default
symmetry c1  #important for SAPT in psi4, default
}

set PROPERTIES_ORIGIN ["COM"]
properties('MP2/aug-cc-pvtz', properties = ['dipole'])
--------------------------------------------------------------------------

    Molecular point group: c1
  Charge       = 0
  Multiplicity = 1
  Basis Set: AUG-CC-PVTZ
    Blend: AUG-CC-PVTZ
  Basis Set: (AUG-CC-PVTZ AUX)
    Blend: AUG-CC-PVTZ-JKFIT

    Orbital Energies [Eh]
    ---------------------

    Doubly Occupied:

       1A    -92.004621     2A    -15.580272     3A    -11.314851
       4A    -11.279560     5A    -11.272787     6A     -9.005193
       7A     -6.686064     8A     -6.685597     9A     -6.684908
      10A     -1.279276    11A     -1.071075    12A     -1.000220
      13A     -0.807034    14A     -0.777466    15A     -0.697165
      16A     -0.597130    17A     -0.576377    18A     -0.560938
      19A     -0.506419    20A     -0.438744    21A     -0.395049
      22A     -0.339164

  @DF-RHF Final Energy:  -567.38054055807925

   => Energetics <=

    Nuclear Repulsion Energy =            204.4014117310780989
    One-Electron Energy =               -1184.4440856630924372
    Two-Electron Energy =                 412.6621333739350916
    Total Energy =                       -567.3805405580792467
  Basis Set: (AUG-CC-PVTZ AUX)
    Blend: AUG-CC-PVTZ-RI
    Molecular point group: c1

    Geometry (in Angstrom), charge = 0, multiplicity = 1:

       Center              X                  Y                   Z               Mass
    ------------   -----------------  -----------------  -----------------  -----------------
         S            1.159207895640     0.051019711455    -0.000219059059    31.972071174400
         N           -1.289586104360    -0.768371288545     0.000254940941    14.003074004430
         C           -0.067552704360     1.247484911455    -0.000030759059    12.000000000000
         C           -1.314372104360     0.604703711455     0.000237940941    12.000000000000
         C           -0.042298104360    -1.189602288545     0.000051940941    12.000000000000
         H            0.130349895640     2.285164711455    -0.000107059059     1.007825032230
         H           -2.268872104360     1.118872711455     0.000401940941     1.007825032230
         H            0.239945895640    -2.235860288545     0.000026940941     1.007825032230

  Basis Set: AUG-CC-PVTZ
    Blend: AUG-CC-PVTZ
  Basis Set: (AUG-CC-PVTZ AUX)
    Blend: AUG-CC-PVTZ-JKFIT
	 Reference Energy          =    -567.3805405580792467 [Eh]
	 Singles Energy            =      -0.0000000000000000 [Eh]
	 Same-Spin Energy          =      -0.2462128448302919 [Eh]
	 Opposite-Spin Energy      =      -0.7308885359515693 [Eh]
	 Correlation Energy        =      -0.9771013807818613 [Eh]
	 Total Energy              =    -568.3576419388610930 [Eh]

	 ================> DF-SCS-MP2 Energies <==================
	-----------------------------------------------------------
	 SCS Same-Spin Scale       =       0.3333333333333333 [-]
	 SCS Opposite-Spin Scale   =       1.2000000000000000 [-]
	 SCS Same-Spin Energy      =      -0.0820709482767640 [Eh]
	 SCS Opposite-Spin Energy  =      -0.8770662431418832 [Eh]
	 SCS Correlation Energy    =      -0.9591371914186472 [Eh]
	 SCS Total Energy          =    -568.3396777494979233 [Eh]
	-----------------------------------------------------------

  Dipole Moment: [D]
     X:     1.3619      Y:     1.1711      Z:    -0.0003     Total:     1.7962

*** Psi4 exiting successfully. Buy a developer a beer!
