                               Psi4 1.3.2 release

  ==> Input File <==

--------------------------------------------------------------------------
#psi4
#
memory 32 gb

molecule  {
0 1
  S        1.1830230     0.0407500    -0.0002230
  N       -1.2657710    -0.7786410     0.0002510
  C       -0.0644320     1.2156230    -0.0000300
  C       -1.2905570     0.5944340     0.0002340
  C       -0.0880522    -1.2717060     0.0000637
  H        0.1541650     2.2748950    -0.0001110
  H       -2.2450570     1.1086030     0.0003980
  H        0.2637610    -2.2461300     0.0000230
units angstrom
no_reorient  #important for SAPT in psi4, default
symmetry c1  #important for SAPT in psi4, default
}

set PROPERTIES_ORIGIN ["COM"]
properties('MP2/aug-cc-pvtz', properties = ['dipole'])
--------------------------------------------------------------------------

    Molecular point group: c1
  Charge       = 0
  Multiplicity = 1
  Basis Set: AUG-CC-PVTZ
    Blend: AUG-CC-PVTZ
  Basis Set: (AUG-CC-PVTZ AUX)
    Blend: AUG-CC-PVTZ-JKFIT

    Orbital Energies [Eh]
    ---------------------

    Doubly Occupied:

       1A    -91.994520     2A    -15.581649     3A    -11.317496
       4A    -11.276364     5A    -11.274972     6A     -8.994319
       7A     -6.675176     8A     -6.674594     9A     -6.673973
      10A     -1.287775    11A     -1.067484    12A     -0.998892
      13A     -0.813303    14A     -0.783782    15A     -0.697975
      16A     -0.619129    17A     -0.564513    18A     -0.561773
      19A     -0.504144    20A     -0.423277    21A     -0.399352
      22A     -0.339538

  @DF-RHF Final Energy:  -567.37749330323368

   => Energetics <=

    Nuclear Repulsion Energy =            203.5394620918022213
    One-Electron Energy =               -1182.7859131921575226
    Two-Electron Energy =                 411.8689577971216522
    Total Energy =                       -567.3774933032336776
  Basis Set: (AUG-CC-PVTZ AUX)
    Blend: AUG-CC-PVTZ-RI
    Molecular point group: c1

    Geometry (in Angstrom), charge = 0, multiplicity = 1:

       Center              X                  Y                   Z               Mass
    ------------   -----------------  -----------------  -----------------  -----------------
         S            1.171951198960     0.064209506729    -0.000221939106    31.972071174400
         N           -1.276842801040    -0.755181493271     0.000252060894    14.003074004430
         C           -0.075503801040     1.239082506729    -0.000028939106    12.000000000000
         C           -1.301628801040     0.617893506729     0.000235060894    12.000000000000
         C           -0.099124001040    -1.248246493271     0.000064760894    12.000000000000
         H            0.143093198960     2.298354506729    -0.000109939106     1.007825032230
         H           -2.256128801040     1.132062506729     0.000399060894     1.007825032230
         H            0.252689198960    -2.222670493271     0.000024060894     1.007825032230

  Basis Set: AUG-CC-PVTZ
    Blend: AUG-CC-PVTZ
  Basis Set: (AUG-CC-PVTZ AUX)
    Blend: AUG-CC-PVTZ-JKFIT
	 Reference Energy          =    -567.3774933032336776 [Eh]
	 Singles Energy            =      -0.0000000000000000 [Eh]
	 Same-Spin Energy          =      -0.2447690162714667 [Eh]
	 Opposite-Spin Energy      =      -0.7296101808941702 [Eh]
	 Correlation Energy        =      -0.9743791971656368 [Eh]
	 Total Energy              =    -568.3518725003992813 [Eh]

	 ================> DF-SCS-MP2 Energies <==================
	-----------------------------------------------------------
	 SCS Same-Spin Scale       =       0.3333333333333333 [-]
	 SCS Opposite-Spin Scale   =       1.2000000000000000 [-]
	 SCS Same-Spin Energy      =      -0.0815896720904889 [Eh]
	 SCS Opposite-Spin Energy  =      -0.8755322170730042 [Eh]
	 SCS Correlation Energy    =      -0.9571218891634932 [Eh]
	 SCS Total Energy          =    -568.3346151923972229 [Eh]
	-----------------------------------------------------------

  Dipole Moment: [D]
     X:     1.0244      Y:     0.9510      Z:    -0.0002     Total:     1.3978

*** Psi4 exiting successfully. Buy a developer a beer!
