                               Psi4 1.3.2 release

  ==> Input File <==

--------------------------------------------------------------------------
#psi4
#
memory 32 gb

molecule  {
0 1
  S        1.1830230     0.0407500    -0.0002230
  N       -1.2657710    -0.7786410     0.0002510
  C       -0.0644320     1.2156230    -0.0000300
  C       -1.2905570     0.5944340     0.0002340
  C       -0.1132260    -1.1678756     0.0000634
  H        0.1541650     2.2748950    -0.0001110
  H       -2.2450570     1.1086030     0.0003980
  H        0.2637610    -2.2461300     0.0000230
units angstrom
no_reorient  #important for SAPT in psi4, default
symmetry c1  #important for SAPT in psi4, default
}

set PROPERTIES_ORIGIN ["COM"]
properties('MP2/aug-cc-pvtz', properties = ['dipole'])
--------------------------------------------------------------------------

    Molecular point group: c1
  Charge       = 0
  Multiplicity = 1
  Basis Set: AUG-CC-PVTZ
    Blend: AUG-CC-PVTZ
  Basis Set: (AUG-CC-PVTZ AUX)
    Blend: AUG-CC-PVTZ-JKFIT

    Orbital Energies [Eh]
    ---------------------

    Doubly Occupied:

       1A    -91.994387     2A    -15.572982     3A    -11.311358
       4A    -11.275767     5A    -11.273000     6A     -8.995398
       7A     -6.676281     8A     -6.675647     9A     -6.674902
      10A     -1.315543    11A     -1.077842    12A     -0.997465
      13A     -0.809917    14A     -0.767391    15A     -0.701781
      16A     -0.604576    17A     -0.576766    18A     -0.560603
      19A     -0.508249    20A     -0.430835    21A     -0.406727
      22A     -0.341904

  @DF-RHF Final Energy:  -567.37520559343238

   => Energetics <=

    Nuclear Repulsion Energy =            205.7716915484112974
    One-Electron Energy =               -1187.1951497268712501
    Two-Electron Energy =                 414.0482525850273987
    Total Energy =                       -567.3752055934324972
  Basis Set: (AUG-CC-PVTZ AUX)
    Blend: AUG-CC-PVTZ-RI
    Molecular point group: c1

    Geometry (in Angstrom), charge = 0, multiplicity = 1:

       Center              X                  Y                   Z               Mass
    ------------   -----------------  -----------------  -----------------  -----------------
         S            1.175505204885     0.049550859377    -0.000221896752    31.972071174400
         N           -1.273288795115    -0.769840140623     0.000252103248    14.003074004430
         C           -0.071949795115     1.224423859377    -0.000028896752    12.000000000000
         C           -1.298074795115     0.603234859377     0.000235103248    12.000000000000
         C           -0.120743795115    -1.159074740623     0.000064503248    12.000000000000
         H            0.146647204885     2.283695859377    -0.000109896752     1.007825032230
         H           -2.252574795115     1.117403859377     0.000399103248     1.007825032230
         H            0.256243204885    -2.237329140623     0.000024103248     1.007825032230

  Basis Set: AUG-CC-PVTZ
    Blend: AUG-CC-PVTZ
  Basis Set: (AUG-CC-PVTZ AUX)
    Blend: AUG-CC-PVTZ-JKFIT
	 Reference Energy          =    -567.3752055934323835 [Eh]
	 Singles Energy            =      -0.0000000000000000 [Eh]
	 Same-Spin Energy          =      -0.2435575502005117 [Eh]
	 Opposite-Spin Energy      =      -0.7269434267037475 [Eh]
	 Correlation Energy        =      -0.9705009769042592 [Eh]
	 Total Energy              =    -568.3457065703366879 [Eh]

	 ================> DF-SCS-MP2 Energies <==================
	-----------------------------------------------------------
	 SCS Same-Spin Scale       =       0.3333333333333333 [-]
	 SCS Opposite-Spin Scale   =       1.2000000000000000 [-]
	 SCS Same-Spin Energy      =      -0.0811858500668372 [Eh]
	 SCS Opposite-Spin Energy  =      -0.8723321120444969 [Eh]
	 SCS Correlation Energy    =      -0.9535179621113341 [Eh]
	 SCS Total Energy          =    -568.3287235555436610 [Eh]
	-----------------------------------------------------------

  Dipole Moment: [D]
     X:     1.0854      Y:     1.0312      Z:    -0.0002     Total:     1.4972

*** Psi4 exiting successfully. Buy a developer a beer!
