                               Psi4 1.3.2 release

  ==> Input File <==

--------------------------------------------------------------------------
#psi4
#
memory 32 gb

molecule  {
0 1
  S        1.1830230     0.0407500    -0.0002230
  N       -1.2657710    -0.7786410     0.0002510
  C       -0.0644320     1.2156230    -0.0000300
  C       -1.2013520     0.6396277     0.0002148
  C       -0.0184830    -1.1998720     0.0000480
  H        0.1541650     2.2748950    -0.0001110
  H       -2.2450570     1.1086030     0.0003980
  H        0.2637610    -2.2461300     0.0000230
units angstrom
no_reorient  #important for SAPT in psi4, default
symmetry c1  #important for SAPT in psi4, default
}

set PROPERTIES_ORIGIN ["COM"]
properties('MP2/aug-cc-pvtz', properties = ['dipole'])
--------------------------------------------------------------------------

    Molecular point group: c1
  Charge       = 0
  Multiplicity = 1
  Basis Set: AUG-CC-PVTZ
    Blend: AUG-CC-PVTZ
  Basis Set: (AUG-CC-PVTZ AUX)
    Blend: AUG-CC-PVTZ-JKFIT

    Orbital Energies [Eh]
    ---------------------

    Doubly Occupied:

       1A    -91.998468     2A    -15.580763     3A    -11.316429
       4A    -11.268678     5A    -11.259597     6A     -8.999992
       7A     -6.680909     8A     -6.680396     9A     -6.679531
      10A     -1.278488    11A     -1.079853    12A     -1.010238
      13A     -0.806272    14A     -0.769339    15A     -0.702419
      16A     -0.578643    17A     -0.568934    18A     -0.565987
      19A     -0.508332    20A     -0.439929    21A     -0.390879
      22A     -0.362345

  @DF-RHF Final Energy:  -567.37261702077922

   => Energetics <=

    Nuclear Repulsion Energy =            205.9560826009613947
    One-Electron Energy =               -1187.6045531823231158
    Two-Electron Energy =                 414.2758535605825614
    Total Energy =                       -567.3726170207792165
  Basis Set: (AUG-CC-PVTZ AUX)
    Blend: AUG-CC-PVTZ-RI
    Molecular point group: c1

    Geometry (in Angstrom), charge = 0, multiplicity = 1:

       Center              X                  Y                   Z               Mass
    ------------   -----------------  -----------------  -----------------  -----------------
         S            1.149535653934     0.047687680898    -0.000217011967    31.972071174400
         N           -1.299258346066    -0.771703319102     0.000256988033    14.003074004430
         C           -0.097919346066     1.222560680898    -0.000024011967    12.000000000000
         C           -1.234839346066     0.646565380898     0.000220788033    12.000000000000
         C           -0.051970346066    -1.192934319102     0.000053988033    12.000000000000
         H            0.120677653934     2.281832680898    -0.000105011967     1.007825032230
         H           -2.278544346066     1.115540680898     0.000403988033     1.007825032230
         H            0.230273653934    -2.239192319102     0.000028988033     1.007825032230

  Basis Set: AUG-CC-PVTZ
    Blend: AUG-CC-PVTZ
  Basis Set: (AUG-CC-PVTZ AUX)
    Blend: AUG-CC-PVTZ-JKFIT
	 Reference Energy          =    -567.3726170207792165 [Eh]
	 Singles Energy            =      -0.0000000000000000 [Eh]
	 Same-Spin Energy          =      -0.2437607661024755 [Eh]
	 Opposite-Spin Energy      =      -0.7281557424561926 [Eh]
	 Correlation Energy        =      -0.9719165085586682 [Eh]
	 Total Energy              =    -568.3445335293379230 [Eh]

	 ================> DF-SCS-MP2 Energies <==================
	-----------------------------------------------------------
	 SCS Same-Spin Scale       =       0.3333333333333333 [-]
	 SCS Opposite-Spin Scale   =       1.2000000000000000 [-]
	 SCS Same-Spin Energy      =      -0.0812535887008252 [Eh]
	 SCS Opposite-Spin Energy  =      -0.8737868909474311 [Eh]
	 SCS Correlation Energy    =      -0.9550404796482563 [Eh]
	 SCS Total Energy          =    -568.3276575004274491 [Eh]
	-----------------------------------------------------------

  Dipole Moment: [D]
     X:     1.3709      Y:     1.1705      Z:    -0.0003     Total:     1.8026

*** Psi4 exiting successfully. Buy a developer a beer!
