                               Psi4 1.3.2 release

  ==> Input File <==

--------------------------------------------------------------------------
#psi4
#
memory 32 gb

molecule  {
0 1
  S        1.1830230     0.0407500    -0.0002230
  N       -1.2657710    -0.7786410     0.0002510
  C       -0.0644320     1.2156230    -0.0000300
  C       -1.1468958     0.5895030     0.0002099
  C       -0.0184830    -1.1998720     0.0000480
  H        0.1541650     2.2748950    -0.0001110
  H       -2.2450570     1.1086030     0.0003980
  H        0.2637610    -2.2461300     0.0000230
units angstrom
no_reorient  #important for SAPT in psi4, default
symmetry c1  #important for SAPT in psi4, default
}

set PROPERTIES_ORIGIN ["COM"]
properties('MP2/aug-cc-pvtz', properties = ['dipole'])
--------------------------------------------------------------------------

    Molecular point group: c1
  Charge       = 0
  Multiplicity = 1
  Basis Set: AUG-CC-PVTZ
    Blend: AUG-CC-PVTZ
  Basis Set: (AUG-CC-PVTZ AUX)
    Blend: AUG-CC-PVTZ-JKFIT

    Orbital Energies [Eh]
    ---------------------

    Doubly Occupied:

       1A    -91.998559     2A    -15.580487     3A    -11.318885
       4A    -11.267934     5A    -11.255444     6A     -9.000209
       7A     -6.681055     8A     -6.680658     9A     -6.679742
      10A     -1.295504    11A     -1.089448    12A     -1.010167
      13A     -0.814182    14A     -0.764040    15A     -0.705184
      16A     -0.580276    17A     -0.576046    18A     -0.570435
      19A     -0.485835    20A     -0.448336    21A     -0.394840
      22A     -0.364339

  @DF-RHF Final Energy:  -567.35640449247342

   => Energetics <=

    Nuclear Repulsion Energy =            207.4828442901852554
    One-Electron Energy =               -1190.5552871594090902
    Two-Electron Energy =                 415.7160383767504754
    Total Energy =                       -567.3564044924733025
  Basis Set: (AUG-CC-PVTZ AUX)
    Blend: AUG-CC-PVTZ-RI
    Molecular point group: c1

    Geometry (in Angstrom), charge = 0, multiplicity = 1:

       Center              X                  Y                   Z               Mass
    ------------   -----------------  -----------------  -----------------  -----------------
         S            1.141847595023     0.054764224000    -0.000216320191    31.972071174400
         N           -1.306946404977    -0.764626776000     0.000257679809    14.003074004430
         C           -0.105607404977     1.229637224000    -0.000023320191    12.000000000000
         C           -1.188071204977     0.603517224000     0.000216579809    12.000000000000
         C           -0.059658404977    -1.185857776000     0.000054679809    12.000000000000
         H            0.112989595023     2.288909224000    -0.000104320191     1.007825032230
         H           -2.286232404977     1.122617224000     0.000404679809     1.007825032230
         H            0.222585595023    -2.232115776000     0.000029679809     1.007825032230

  Basis Set: AUG-CC-PVTZ
    Blend: AUG-CC-PVTZ
  Basis Set: (AUG-CC-PVTZ AUX)
    Blend: AUG-CC-PVTZ-JKFIT
	 Reference Energy          =    -567.3564044924734162 [Eh]
	 Singles Energy            =      -0.0000000000000000 [Eh]
	 Same-Spin Energy          =      -0.2443357356265155 [Eh]
	 Opposite-Spin Energy      =      -0.7280497312547327 [Eh]
	 Correlation Energy        =      -0.9723854668812482 [Eh]
	 Total Energy              =    -568.3287899593547081 [Eh]

	 ================> DF-SCS-MP2 Energies <==================
	-----------------------------------------------------------
	 SCS Same-Spin Scale       =       0.3333333333333333 [-]
	 SCS Opposite-Spin Scale   =       1.2000000000000000 [-]
	 SCS Same-Spin Energy      =      -0.0814452452088385 [Eh]
	 SCS Opposite-Spin Energy  =      -0.8736596775056792 [Eh]
	 SCS Correlation Energy    =      -0.9551049227145176 [Eh]
	 SCS Total Energy          =    -568.3115094151879703 [Eh]
	-----------------------------------------------------------

  Dipole Moment: [D]
     X:     1.4604      Y:     1.1280      Z:    -0.0003     Total:     1.8453

*** Psi4 exiting successfully. Buy a developer a beer!
