                               Psi4 1.3.2 release

  ==> Input File <==

--------------------------------------------------------------------------
#psi4
#
memory 32 gb

molecule  {
0 1
  S        1.1830230     0.0407500    -0.0002230
  N       -1.1223814    -0.7685283     0.0002250
  C       -0.0644320     1.2156230    -0.0000300
  C       -1.2905570     0.5944340     0.0002340
  C       -0.0184830    -1.1998720     0.0000480
  H        0.1541650     2.2748950    -0.0001110
  H       -2.2450570     1.1086030     0.0003980
  H        0.2637610    -2.2461300     0.0000230
units angstrom
no_reorient  #important for SAPT in psi4, default
symmetry c1  #important for SAPT in psi4, default
}

set PROPERTIES_ORIGIN ["COM"]
properties('MP2/aug-cc-pvtz', properties = ['dipole'])
--------------------------------------------------------------------------

    Molecular point group: c1
  Charge       = 0
  Multiplicity = 1
  Basis Set: AUG-CC-PVTZ
    Blend: AUG-CC-PVTZ
  Basis Set: (AUG-CC-PVTZ AUX)
    Blend: AUG-CC-PVTZ-JKFIT

    Orbital Energies [Eh]
    ---------------------

    Doubly Occupied:

       1A    -91.987472     2A    -15.558755     3A    -11.294150
       4A    -11.276281     5A    -11.273557     6A     -8.989729
       7A     -6.670600     8A     -6.670193     9A     -6.669288
      10A     -1.322269    11A     -1.072912    12A     -1.010597
      13A     -0.813192    14A     -0.776732    15A     -0.699058
      16A     -0.625608    17A     -0.582989    18A     -0.574178
      19A     -0.505389    20A     -0.407965    21A     -0.400631
      22A     -0.347159

  @DF-RHF Final Energy:  -567.36982319743299

   => Energetics <=

    Nuclear Repulsion Energy =            208.3850638502061940
    One-Electron Energy =               -1192.4523649140253383
    Two-Electron Energy =                 416.6974778663862935
    Total Energy =                       -567.3698231974328792
  Basis Set: (AUG-CC-PVTZ AUX)
    Blend: AUG-CC-PVTZ-RI
    Molecular point group: c1

    Geometry (in Angstrom), charge = 0, multiplicity = 1:

       Center              X                  Y                   Z               Mass
    ------------   -----------------  -----------------  -----------------  -----------------
         S            1.138506825734     0.052402057581    -0.000215439237    31.972071174400
         N           -1.166897574266    -0.756876242419     0.000232560763    14.003074004430
         C           -0.108948174266     1.227275057581    -0.000022439237    12.000000000000
         C           -1.335073174266     0.606086057581     0.000241560763    12.000000000000
         C           -0.062999174266    -1.188219942419     0.000055560763    12.000000000000
         H            0.109648825734     2.286547057581    -0.000103439237     1.007825032230
         H           -2.289573174266     1.120255057581     0.000405560763     1.007825032230
         H            0.219244825734    -2.234477942419     0.000030560763     1.007825032230

  Basis Set: AUG-CC-PVTZ
    Blend: AUG-CC-PVTZ
  Basis Set: (AUG-CC-PVTZ AUX)
    Blend: AUG-CC-PVTZ-JKFIT
	 Reference Energy          =    -567.3698231974329929 [Eh]
	 Singles Energy            =      -0.0000000000000000 [Eh]
	 Same-Spin Energy          =      -0.2432802659810458 [Eh]
	 Opposite-Spin Energy      =      -0.7248049114882706 [Eh]
	 Correlation Energy        =      -0.9680851774693164 [Eh]
	 Total Energy              =    -568.3379083749023266 [Eh]

	 ================> DF-SCS-MP2 Energies <==================
	-----------------------------------------------------------
	 SCS Same-Spin Scale       =       0.3333333333333333 [-]
	 SCS Opposite-Spin Scale   =       1.2000000000000000 [-]
	 SCS Same-Spin Energy      =      -0.0810934219936819 [Eh]
	 SCS Opposite-Spin Energy  =      -0.8697658937859247 [Eh]
	 SCS Correlation Energy    =      -0.9508593157796067 [Eh]
	 SCS Total Energy          =    -568.3206825132125459 [Eh]
	-----------------------------------------------------------

  Dipole Moment: [D]
     X:     0.7524      Y:     0.9829      Z:    -0.0002     Total:     1.2378

*** Psi4 exiting successfully. Buy a developer a beer!
