                               Psi4 1.3.2 release

  ==> Input File <==

--------------------------------------------------------------------------
#psi4
#
memory 32 gb

molecule  {
0 1
  S        1.1830230     0.0407500    -0.0002230
  N       -1.2657710    -0.7786410     0.0002510
  C       -0.0644320     1.2156230    -0.0000300
  C       -1.2905570     0.5944340     0.0002340
  C       -0.2079690    -1.1358793     0.0000788
  H        0.1541650     2.2748950    -0.0001110
  H       -2.2450570     1.1086030     0.0003980
  H        0.2637610    -2.2461300     0.0000230
units angstrom
no_reorient  #important for SAPT in psi4, default
symmetry c1  #important for SAPT in psi4, default
}

set PROPERTIES_ORIGIN ["COM"]
properties('MP2/aug-cc-pvtz', properties = ['dipole'])
--------------------------------------------------------------------------

    Molecular point group: c1
  Charge       = 0
  Multiplicity = 1
  Basis Set: AUG-CC-PVTZ
    Blend: AUG-CC-PVTZ
  Basis Set: (AUG-CC-PVTZ AUX)
    Blend: AUG-CC-PVTZ-JKFIT

    Orbital Energies [Eh]
    ---------------------

    Doubly Occupied:

       1A    -91.984770     2A    -15.566102     3A    -11.306892
       4A    -11.278070     5A    -11.275985     6A     -8.986058
       7A     -6.666933     8A     -6.666165     9A     -6.665392
      10A     -1.361089    11A     -1.086854    12A     -0.990027
      13A     -0.819420    14A     -0.752972    15A     -0.708244
      16A     -0.611863    17A     -0.600828    18A     -0.560418
      19A     -0.506023    20A     -0.421048    21A     -0.413290
      22A     -0.339196

  @DF-RHF Final Energy:  -567.32830755290047

   => Energetics <=

    Nuclear Repulsion Energy =            206.9560773013940889
    One-Electron Energy =               -1189.4334912065314711
    Two-Electron Energy =                 415.1491063522369700
    Total Energy =                       -567.3283075529004691
  Basis Set: (AUG-CC-PVTZ AUX)
    Blend: AUG-CC-PVTZ-RI
    Molecular point group: c1

    Geometry (in Angstrom), charge = 0, multiplicity = 1:

       Center              X                  Y                   Z               Mass
    ------------   -----------------  -----------------  -----------------  -----------------
         S            1.188880904353     0.045033661348    -0.000224070905    31.972071174400
         N           -1.259913095647    -0.774357338652     0.000249929095    14.003074004430
         C           -0.058574095647     1.219906661348    -0.000031070905    12.000000000000
         C           -1.284699095647     0.598717661348     0.000232929095    12.000000000000
         C           -0.202111095647    -1.131595638652     0.000077729095    12.000000000000
         H            0.160022904353     2.279178661348    -0.000112070905     1.007825032230
         H           -2.239199095647     1.112886661348     0.000396929095     1.007825032230
         H            0.269618904353    -2.241846338652     0.000021929095     1.007825032230

  Basis Set: AUG-CC-PVTZ
    Blend: AUG-CC-PVTZ
  Basis Set: (AUG-CC-PVTZ AUX)
    Blend: AUG-CC-PVTZ-JKFIT
	 Reference Energy          =    -567.3283075529004691 [Eh]
	 Singles Energy            =      -0.0000000000000000 [Eh]
	 Same-Spin Energy          =      -0.2419700502050409 [Eh]
	 Opposite-Spin Energy      =      -0.7249074195188787 [Eh]
	 Correlation Energy        =      -0.9668774697239196 [Eh]
	 Total Energy              =    -568.2951850226244233 [Eh]

	 ================> DF-SCS-MP2 Energies <==================
	-----------------------------------------------------------
	 SCS Same-Spin Scale       =       0.3333333333333333 [-]
	 SCS Opposite-Spin Scale   =       1.2000000000000000 [-]
	 SCS Same-Spin Energy      =      -0.0806566834016803 [Eh]
	 SCS Opposite-Spin Energy  =      -0.8698889034226545 [Eh]
	 SCS Correlation Energy    =      -0.9505455868243348 [Eh]
	 SCS Total Energy          =    -568.2788531397247880 [Eh]
	-----------------------------------------------------------

  Dipole Moment: [D]
     X:     0.6621      Y:     0.9129      Z:    -0.0001     Total:     1.1277

*** Psi4 exiting successfully. Buy a developer a beer!
