                               Psi4 1.3.2 release

  ==> Input File <==

--------------------------------------------------------------------------
#psi4
#
memory 32 gb

molecule  {
0 1
  S        1.1830230     0.0407500    -0.0002230
  N       -1.2657710    -0.7786410     0.0002510
  C       -0.0644320     1.2156230    -0.0000300
  C       -1.2442383     0.5104170     0.0002279
  C       -0.0184830    -1.1998720     0.0000480
  H        0.1541650     2.2748950    -0.0001110
  H       -2.2450570     1.1086030     0.0003980
  H        0.2637610    -2.2461300     0.0000230
units angstrom
no_reorient  #important for SAPT in psi4, default
symmetry c1  #important for SAPT in psi4, default
}

set PROPERTIES_ORIGIN ["COM"]
properties('MP2/aug-cc-pvtz', properties = ['dipole'])
--------------------------------------------------------------------------

    Molecular point group: c1
  Charge       = 0
  Multiplicity = 1
  Basis Set: AUG-CC-PVTZ
    Blend: AUG-CC-PVTZ
  Basis Set: (AUG-CC-PVTZ AUX)
    Blend: AUG-CC-PVTZ-JKFIT

    Orbital Energies [Eh]
    ---------------------

    Doubly Occupied:

       1A    -92.005562     2A    -15.575680     3A    -11.316305
       4A    -11.275301     5A    -11.267867     6A     -9.006102
       7A     -6.686884     8A     -6.686504     9A     -6.685839
      10A     -1.308899    11A     -1.079556    12A     -1.000702
      13A     -0.815504    14A     -0.766056    15A     -0.704055
      16A     -0.594395    17A     -0.576030    18A     -0.571287
      19A     -0.490570    20A     -0.445702    21A     -0.402267
      22A     -0.338035

  @DF-RHF Final Energy:  -567.37029671873438

   => Energetics <=

    Nuclear Repulsion Energy =            206.5733608136619637
    One-Electron Energy =               -1188.6891110492922508
    Two-Electron Energy =                 414.7454535168957932
    Total Energy =                       -567.3702967187343802
  Basis Set: (AUG-CC-PVTZ AUX)
    Blend: AUG-CC-PVTZ-RI
    Molecular point group: c1

    Geometry (in Angstrom), charge = 0, multiplicity = 1:

       Center              X                  Y                   Z               Mass
    ------------   -----------------  -----------------  -----------------  -----------------
         S            1.155590288683     0.065929487589    -0.000218861409    31.972071174400
         N           -1.293203711317    -0.753461512411     0.000255138591    14.003074004430
         C           -0.091864711317     1.240802487589    -0.000025861409    12.000000000000
         C           -1.271671011317     0.535596487589     0.000232038591    12.000000000000
         C           -0.045915711317    -1.174692512411     0.000052138591    12.000000000000
         H            0.126732288683     2.300074487589    -0.000106861409     1.007825032230
         H           -2.272489711317     1.133782487589     0.000402138591     1.007825032230
         H            0.236328288683    -2.220950512411     0.000027138591     1.007825032230

  Basis Set: AUG-CC-PVTZ
    Blend: AUG-CC-PVTZ
  Basis Set: (AUG-CC-PVTZ AUX)
    Blend: AUG-CC-PVTZ-JKFIT
	 Reference Energy          =    -567.3702967187343802 [Eh]
	 Singles Energy            =      -0.0000000000000000 [Eh]
	 Same-Spin Energy          =      -0.2472090122042384 [Eh]
	 Opposite-Spin Energy      =      -0.7304025876201259 [Eh]
	 Correlation Energy        =      -0.9776115998243643 [Eh]
	 Total Energy              =    -568.3479083185587797 [Eh]

	 ================> DF-SCS-MP2 Energies <==================
	-----------------------------------------------------------
	 SCS Same-Spin Scale       =       0.3333333333333333 [-]
	 SCS Opposite-Spin Scale   =       1.2000000000000000 [-]
	 SCS Same-Spin Energy      =      -0.0824030040680795 [Eh]
	 SCS Opposite-Spin Energy  =      -0.8764831051441511 [Eh]
	 SCS Correlation Energy    =      -0.9588861092122305 [Eh]
	 SCS Total Energy          =    -568.3291828279466245 [Eh]
	-----------------------------------------------------------

  Dipole Moment: [D]
     X:     1.4468      Y:     1.1355      Z:    -0.0003     Total:     1.8392

*** Psi4 exiting successfully. Buy a developer a beer!
