                               Psi4 1.4a3.dev225

  ==> Input File <==

--------------------------------------------------------------------------
#psi4
#
memory 32 gb

molecule  {
0 1
  S        1.1830230     0.0407500    -0.0002230
  N       -1.2657710    -0.7786410     0.0002510
  C       -0.0644320     1.2156230    -0.0000300
  C       -1.2905570     0.5944340     0.0002340
  C       -0.0045692    -1.1855052     0.0000449
  H        0.1541650     2.2748950    -0.0001110
  H       -2.2450570     1.1086030     0.0003980
  H        0.2637610    -2.2461300     0.0000230
units angstrom
no_reorient  #important for SAPT in psi4, default
symmetry c1  #important for SAPT in psi4, default
}

set PROPERTIES_ORIGIN ["COM"]
properties('MP2/aug-cc-pvtz', properties = ['dipole'])
--------------------------------------------------------------------------

    Molecular point group: c1
  Charge       = 0
  Multiplicity = 1
  Basis Set: AUG-CC-PVTZ
    Blend: AUG-CC-PVTZ
  Basis Set: (AUG-CC-PVTZ AUX)
    Blend: AUG-CC-PVTZ-JKFIT

    Orbital Energies [Eh]
    ---------------------

    Doubly Occupied:

       1A    -92.004944     2A    -15.578657     3A    -11.314124
       4A    -11.275272     5A    -11.270243     6A     -9.006027
       7A     -6.686934     8A     -6.686394     9A     -6.685691
      10A     -1.279364    11A     -1.072194    12A     -1.004318
      13A     -0.802762    14A     -0.776074    15A     -0.697975
      16A     -0.591523    17A     -0.570191    18A     -0.562859
      19A     -0.511348    20A     -0.440225    21A     -0.393218
      22A     -0.343778

  @DF-RHF Final Energy:  -567.38188448221376

   => Energetics <=

    Nuclear Repulsion Energy =            205.0873967114784193
    One-Electron Energy =               -1185.8303342282240465
    Two-Electron Energy =                 413.3610530345320058
    Total Energy =                       -567.3818844822136498
  Basis Set: (AUG-CC-PVTZ AUX)
    Blend: AUG-CC-PVTZ-RI
    Molecular point group: c1

    Geometry (in Angstrom), charge = 0, multiplicity = 1:

       Center              X                  Y                   Z               Mass
    ------------   -----------------  -----------------  -----------------  -----------------
         S            1.160165172355     0.052039784483    -0.000219284945    31.972071174400
         N           -1.288628827645    -0.767351215517     0.000254715055    14.003074004430
         C           -0.087289827645     1.226912784483    -0.000026284945    12.000000000000
         C           -1.313414827645     0.605723784483     0.000237715055    12.000000000000
         C           -0.027427027645    -1.174215415517     0.000048615055    12.000000000000
         H            0.131307172355     2.286184784483    -0.000107284945     1.007825032230
         H           -2.267914827645     1.119892784483     0.000401715055     1.007825032230
         H            0.240903172355    -2.234840215517     0.000026715055     1.007825032230

  Basis Set: AUG-CC-PVTZ
    Blend: AUG-CC-PVTZ
  Basis Set: (AUG-CC-PVTZ AUX)
    Blend: AUG-CC-PVTZ-JKFIT
	 Reference Energy          =    -567.3818844822137635 [Eh]
	 Singles Energy            =      -0.0000000000000000 [Eh]
	 Same-Spin Energy          =      -0.2461032773360723 [Eh]
	 Opposite-Spin Energy      =      -0.7304542372066194 [Eh]
	 Correlation Energy        =      -0.9765575145426917 [Eh]
	 Total Energy              =    -568.3584419967564827 [Eh]

	 ================> DF-SCS-MP2 Energies <==================
	-----------------------------------------------------------
	 SCS Same-Spin Scale       =       0.3333333333333333 [-]
	 SCS Opposite-Spin Scale   =       1.2000000000000000 [-]
	 SCS Same-Spin Energy      =      -0.0820344257786908 [Eh]
	 SCS Opposite-Spin Energy  =      -0.8765450846479432 [Eh]
	 SCS Correlation Energy    =      -0.9585795104266340 [Eh]
	 SCS Total Energy          =    -568.3404639926403661 [Eh]
	-----------------------------------------------------------

  Dipole Moment: [D]
     X:     1.4263      Y:     1.2153      Z:    -0.0003     Total:     1.8739

*** Psi4 exiting successfully. Buy a developer a beer!
