                               Psi4 1.3.2 release

  ==> Input File <==

--------------------------------------------------------------------------
#psi4
#
memory 32 gb

molecule  {
0 1
  S        1.1830230     0.0407500    -0.0002230
  N       -1.2657710    -0.7786410     0.0002510
  C       -0.2100255     1.3527453    -0.0000075
  C       -1.2905570     0.5944340     0.0002340
  C       -0.0184830    -1.1998720     0.0000480
  H        0.1541650     2.2748950    -0.0001110
  H       -2.2450570     1.1086030     0.0003980
  H        0.2637610    -2.2461300     0.0000230
units angstrom
no_reorient  #important for SAPT in psi4, default
symmetry c1  #important for SAPT in psi4, default
}

set PROPERTIES_ORIGIN ["COM"]
properties('MP2/aug-cc-pvtz', properties = ['dipole'])
--------------------------------------------------------------------------

    Molecular point group: c1
  Charge       = 0
  Multiplicity = 1
  Basis Set: AUG-CC-PVTZ
    Blend: AUG-CC-PVTZ
  Basis Set: (AUG-CC-PVTZ AUX)
    Blend: AUG-CC-PVTZ-JKFIT

    Orbital Energies [Eh]
    ---------------------

    Doubly Occupied:

       1A    -91.993188     2A    -15.579000     3A    -11.325425
       4A    -11.279456     5A    -11.276645     6A     -8.992336
       7A     -6.673216     8A     -6.672369     9A     -6.671935
      10A     -1.278390    11A     -1.052534    12A     -1.015183
      13A     -0.822690    14A     -0.783297    15A     -0.712512
      16A     -0.605131    17A     -0.580354    18A     -0.558089
      19A     -0.466411    20A     -0.434547    21A     -0.380091
      22A     -0.366295

  @DF-RHF Final Energy:  -567.35794548166655

   => Energetics <=

    Nuclear Repulsion Energy =            201.9681408772071904
    One-Electron Energy =               -1179.6139879769561958
    Two-Electron Energy =                 410.2879016180825147
    Total Energy =                       -567.3579454816665475
  Basis Set: (AUG-CC-PVTZ AUX)
    Blend: AUG-CC-PVTZ-RI
    Molecular point group: c1

    Geometry (in Angstrom), charge = 0, multiplicity = 1:

       Center              X                  Y                   Z               Mass
    ------------   -----------------  -----------------  -----------------  -----------------
         S            1.182684215532     0.034709314939    -0.000222899121    31.972071174400
         N           -1.266109784468    -0.784681685061     0.000251100879    14.003074004430
         C           -0.210364284468     1.346704614939    -0.000007399121    12.000000000000
         C           -1.290895784468     0.588393314939     0.000234100879    12.000000000000
         C           -0.018821784468    -1.205912685061     0.000048100879    12.000000000000
         H            0.153826215532     2.268854314939    -0.000110899121     1.007825032230
         H           -2.245395784468     1.102562314939     0.000398100879     1.007825032230
         H            0.263422215532    -2.252170685061     0.000023100879     1.007825032230

  Basis Set: AUG-CC-PVTZ
    Blend: AUG-CC-PVTZ
  Basis Set: (AUG-CC-PVTZ AUX)
    Blend: AUG-CC-PVTZ-JKFIT
	 Reference Energy          =    -567.3579454816665475 [Eh]
	 Singles Energy            =      -0.0000000000000000 [Eh]
	 Same-Spin Energy          =      -0.2432652942080571 [Eh]
	 Opposite-Spin Energy      =      -0.7293402095970469 [Eh]
	 Correlation Energy        =      -0.9726055038051040 [Eh]
	 Total Energy              =    -568.3305509854716320 [Eh]

	 ================> DF-SCS-MP2 Energies <==================
	-----------------------------------------------------------
	 SCS Same-Spin Scale       =       0.3333333333333333 [-]
	 SCS Opposite-Spin Scale   =       1.2000000000000000 [-]
	 SCS Same-Spin Energy      =      -0.0810884314026857 [Eh]
	 SCS Opposite-Spin Energy  =      -0.8752082515164563 [Eh]
	 SCS Correlation Energy    =      -0.9562966829191419 [Eh]
	 SCS Total Energy          =    -568.3142421645857212 [Eh]
	-----------------------------------------------------------

  Dipole Moment: [D]
     X:     1.1117      Y:     1.2455      Z:    -0.0002     Total:     1.6695

*** Psi4 exiting successfully. Buy a developer a beer!
