                               Psi4 1.4a3.dev225

  ==> Input File <==

--------------------------------------------------------------------------
#psi4
#
memory 32 gb

molecule  {
0 1
  S        1.1830230     0.0407500    -0.0002230
  N       -1.2657710    -0.7786410     0.0002510
  C       -0.0644320     1.2156230    -0.0000300
  C       -1.2905570     0.5944340     0.0002340
  C       -0.0323968    -1.2142388     0.0000511
  H        0.1541650     2.2748950    -0.0001110
  H       -2.2450570     1.1086030     0.0003980
  H        0.2637610    -2.2461300     0.0000230
units angstrom
no_reorient  #important for SAPT in psi4, default
symmetry c1  #important for SAPT in psi4, default
}

set PROPERTIES_ORIGIN ["COM"]
properties('MP2/aug-cc-pvtz', properties = ['dipole'])
--------------------------------------------------------------------------

    Molecular point group: c1
  Charge       = 0
  Multiplicity = 1
  Basis Set: AUG-CC-PVTZ
    Blend: AUG-CC-PVTZ
  Basis Set: (AUG-CC-PVTZ AUX)
    Blend: AUG-CC-PVTZ-JKFIT

    Orbital Energies [Eh]
    ---------------------

    Doubly Occupied:

       1A    -92.001872     2A    -15.579392     3A    -11.314952
       4A    -11.275414     5A    -11.272085     6A     -9.002390
       7A     -6.683256     8A     -6.682753     9A     -6.682061
      10A     -1.281908    11A     -1.069603    12A     -1.002910
      13A     -0.806286    14A     -0.777991    15A     -0.698062
      16A     -0.601034    17A     -0.568690    18A     -0.562041
      19A     -0.508961    20A     -0.435359    21A     -0.394965
      22A     -0.342701

  @DF-RHF Final Energy:  -567.38311374170212

   => Energetics <=

    Nuclear Repulsion Energy =            204.5523074831541521
    One-Electron Energy =               -1184.7814667497652863
    Two-Electron Energy =                 412.8460455249090160
    Total Energy =                       -567.3831137417021182
  Basis Set: (AUG-CC-PVTZ AUX)
    Blend: AUG-CC-PVTZ-RI
    Molecular point group: c1

    Geometry (in Angstrom), charge = 0, multiplicity = 1:

       Center              X                  Y                   Z               Mass
    ------------   -----------------  -----------------  -----------------  -----------------
         S            1.164093838478     0.056096358565    -0.000220160253    31.972071174400
         N           -1.284700161522    -0.763294641435     0.000253839747    14.003074004430
         C           -0.083361161522     1.230969358565    -0.000027160253    12.000000000000
         C           -1.309486161522     0.609780358565     0.000236839747    12.000000000000
         C           -0.051325961522    -1.198892441435     0.000053939747    12.000000000000
         H            0.135235838478     2.290241358565    -0.000108160253     1.007825032230
         H           -2.263986161522     1.123949358565     0.000400839747     1.007825032230
         H            0.244831838478    -2.230783641435     0.000025839747     1.007825032230

  Basis Set: AUG-CC-PVTZ
    Blend: AUG-CC-PVTZ
  Basis Set: (AUG-CC-PVTZ AUX)
    Blend: AUG-CC-PVTZ-JKFIT
	 Reference Energy          =    -567.3831137417021182 [Eh]
	 Singles Energy            =      -0.0000000000000000 [Eh]
	 Same-Spin Energy          =      -0.2455109115915693 [Eh]
	 Opposite-Spin Energy      =      -0.7299656945969604 [Eh]
	 Correlation Energy        =      -0.9754766061885297 [Eh]
	 Total Energy              =    -568.3585903478906403 [Eh]

	 ================> DF-SCS-MP2 Energies <==================
	-----------------------------------------------------------
	 SCS Same-Spin Scale       =       0.3333333333333333 [-]
	 SCS Opposite-Spin Scale   =       1.2000000000000000 [-]
	 SCS Same-Spin Energy      =      -0.0818369705305231 [Eh]
	 SCS Opposite-Spin Energy  =      -0.8759588335163524 [Eh]
	 SCS Correlation Energy    =      -0.9577958040468755 [Eh]
	 SCS Total Energy          =    -568.3409095457490139 [Eh]
	-----------------------------------------------------------

  Dipole Moment: [D]
     X:     1.3068      Y:     1.1378      Z:    -0.0003     Total:     1.7327

*** Psi4 exiting successfully. Buy a developer a beer!
