                               Psi4 1.3.2 release

  ==> Input File <==

--------------------------------------------------------------------------
#psi4
#
memory 32 gb

molecule  {
0 1
  S        1.1830230     0.0407500    -0.0002230
  N       -1.2657710    -0.7786410     0.0002510
  C       -0.0847464     1.1936730    -0.0000254
  C       -1.2905570     0.5944340     0.0002340
  C       -0.0184830    -1.1998720     0.0000480
  H        0.1541650     2.2748950    -0.0001110
  H       -2.2450570     1.1086030     0.0003980
  H        0.2637610    -2.2461300     0.0000230
units angstrom
no_reorient  #important for SAPT in psi4, default
symmetry c1  #important for SAPT in psi4, default
}

set PROPERTIES_ORIGIN ["COM"]
properties('MP2/aug-cc-pvtz', properties = ['dipole'])
--------------------------------------------------------------------------

    Molecular point group: c1
  Charge       = 0
  Multiplicity = 1
  Basis Set: AUG-CC-PVTZ
    Blend: AUG-CC-PVTZ
  Basis Set: (AUG-CC-PVTZ AUX)
    Blend: AUG-CC-PVTZ-JKFIT

    Orbital Energies [Eh]
    ---------------------

    Doubly Occupied:

       1A    -92.002422     2A    -15.577799     3A    -11.314198
       4A    -11.271217     5A    -11.269282     6A     -9.003395
       7A     -6.684287     8A     -6.683731     9A     -6.683019
      10A     -1.282182    11A     -1.070482    12A     -1.007472
      13A     -0.803327    14A     -0.775620    15A     -0.698549
      16A     -0.595737    17A     -0.564064    18A     -0.562432
      19A     -0.513491    20A     -0.437022    21A     -0.393077
      22A     -0.347583

  @DF-RHF Final Energy:  -567.38262349720947

   => Energetics <=

    Nuclear Repulsion Energy =            205.2489711761118372
    One-Electron Energy =               -1186.1824142359018879
    Two-Electron Energy =                 413.5508195625806138
    Total Energy =                       -567.3826234972094653
  Basis Set: (AUG-CC-PVTZ AUX)
    Blend: AUG-CC-PVTZ-RI
    Molecular point group: c1

    Geometry (in Angstrom), charge = 0, multiplicity = 1:

       Center              X                  Y                   Z               Mass
    ------------   -----------------  -----------------  -----------------  -----------------
         S            1.164997467264     0.057166945354    -0.000220372022    31.972071174400
         N           -1.283796532736    -0.762224054646     0.000253627978    14.003074004430
         C           -0.102771932736     1.210089945354    -0.000022772022    12.000000000000
         C           -1.308582532736     0.610850945354     0.000236627978    12.000000000000
         C           -0.036508532736    -1.183455054646     0.000050627978    12.000000000000
         H            0.136139467264     2.291311945354    -0.000108372022     1.007825032230
         H           -2.263082532736     1.125019945354     0.000400627978     1.007825032230
         H            0.245735467264    -2.229713054646     0.000025627978     1.007825032230

  Basis Set: AUG-CC-PVTZ
    Blend: AUG-CC-PVTZ
  Basis Set: (AUG-CC-PVTZ AUX)
    Blend: AUG-CC-PVTZ-JKFIT
	 Reference Energy          =    -567.3826234972094653 [Eh]
	 Singles Energy            =      -0.0000000000000000 [Eh]
	 Same-Spin Energy          =      -0.2454206699199634 [Eh]
	 Opposite-Spin Energy      =      -0.7296278312278660 [Eh]
	 Correlation Energy        =      -0.9750485011478295 [Eh]
	 Total Energy              =    -568.3576719983573184 [Eh]

	 ================> DF-SCS-MP2 Energies <==================
	-----------------------------------------------------------
	 SCS Same-Spin Scale       =       0.3333333333333333 [-]
	 SCS Opposite-Spin Scale   =       1.2000000000000000 [-]
	 SCS Same-Spin Energy      =      -0.0818068899733211 [Eh]
	 SCS Opposite-Spin Energy  =      -0.8755533974734392 [Eh]
	 SCS Correlation Energy    =      -0.9573602874467604 [Eh]
	 SCS Total Energy          =    -568.3399837846561695 [Eh]
	-----------------------------------------------------------

  Dipole Moment: [D]
     X:     1.3726      Y:     1.1804      Z:    -0.0003     Total:     1.8103

*** Psi4 exiting successfully. Buy a developer a beer!
