                               Psi4 1.4a3.dev225

  ==> Input File <==

--------------------------------------------------------------------------
#psi4
#
memory 32 gb

molecule  {
0 1
  S        1.1830230     0.0407500    -0.0002230
  N       -1.2657710    -0.7786410     0.0002510
  C       -0.0644320     1.2156230    -0.0000300
  C       -1.2459545     0.6170309     0.0002244
  C       -0.0184830    -1.1998720     0.0000480
  H        0.1541650     2.2748950    -0.0001110
  H       -2.2450570     1.1086030     0.0003980
  H        0.2637610    -2.2461300     0.0000230
units angstrom
no_reorient  #important for SAPT in psi4, default
symmetry c1  #important for SAPT in psi4, default
}

set PROPERTIES_ORIGIN ["COM"]
properties('MP2/aug-cc-pvtz', properties = ['dipole'])
--------------------------------------------------------------------------

    Molecular point group: c1
  Charge       = 0
  Multiplicity = 1
  Basis Set: AUG-CC-PVTZ
    Blend: AUG-CC-PVTZ
  Basis Set: (AUG-CC-PVTZ AUX)
    Blend: AUG-CC-PVTZ-JKFIT

    Orbital Energies [Eh]
    ---------------------

    Doubly Occupied:

       1A    -92.000858     2A    -15.579799     3A    -11.315556
       4A    -11.272117     5A    -11.265677     6A     -9.002020
       7A     -6.682923     8A     -6.682409     9A     -6.681626
      10A     -1.279388    11A     -1.074134    12A     -1.007332
      13A     -0.805238    14A     -0.773180    15A     -0.700695
      16A     -0.584521    17A     -0.571251    18A     -0.563874
      19A     -0.510342    20A     -0.439430    21A     -0.391957
      22A     -0.352852

  @DF-RHF Final Energy:  -567.38168447200235

   => Energetics <=

    Nuclear Repulsion Energy =            205.3680410321408374
    One-Electron Energy =               -1186.4250940060903758
    Two-Electron Energy =                 413.6753685019471618
    Total Energy =                       -567.3816844720024619
  Basis Set: (AUG-CC-PVTZ AUX)
    Blend: AUG-CC-PVTZ-RI
    Molecular point group: c1

    Geometry (in Angstrom), charge = 0, multiplicity = 1:

       Center              X                  Y                   Z               Mass
    ------------   -----------------  -----------------  -----------------  -----------------
         S            1.155832579675     0.050877869152    -0.000218367283    31.972071174400
         N           -1.292961420325    -0.768513130848     0.000255632717    14.003074004430
         C           -0.091622420325     1.225750869152    -0.000025367283    12.000000000000
         C           -1.273144920325     0.627158769152     0.000229032717    12.000000000000
         C           -0.045673420325    -1.189744130848     0.000052632717    12.000000000000
         H            0.126974579675     2.285022869152    -0.000106367283     1.007825032230
         H           -2.272247420325     1.118730869152     0.000402632717     1.007825032230
         H            0.236570579675    -2.236002130848     0.000027632717     1.007825032230

  Basis Set: AUG-CC-PVTZ
    Blend: AUG-CC-PVTZ
  Basis Set: (AUG-CC-PVTZ AUX)
    Blend: AUG-CC-PVTZ-JKFIT
	 Reference Energy          =    -567.3816844720023482 [Eh]
	 Singles Energy            =      -0.0000000000000000 [Eh]
	 Same-Spin Energy          =      -0.2446815020955165 [Eh]
	 Opposite-Spin Energy      =      -0.7289936559624228 [Eh]
	 Correlation Energy        =      -0.9736751580579392 [Eh]
	 Total Energy              =    -568.3553596300603203 [Eh]

	 ================> DF-SCS-MP2 Energies <==================
	-----------------------------------------------------------
	 SCS Same-Spin Scale       =       0.3333333333333333 [-]
	 SCS Opposite-Spin Scale   =       1.2000000000000000 [-]
	 SCS Same-Spin Energy      =      -0.0815605006985055 [Eh]
	 SCS Opposite-Spin Energy  =      -0.8747923871549074 [Eh]
	 SCS Correlation Energy    =      -0.9563528878534129 [Eh]
	 SCS Total Energy          =    -568.3380373598557753 [Eh]
	-----------------------------------------------------------

  Dipole Moment: [D]
     X:     1.3735      Y:     1.1757      Z:    -0.0003     Total:     1.8080

*** Psi4 exiting successfully. Buy a developer a beer!
