                               Psi4 1.4a3.dev225

  ==> Input File <==

--------------------------------------------------------------------------
#psi4
#
memory 32 gb

molecule  {
0 1
  S        1.1830230     0.0407500    -0.0002230
  N       -1.2657710    -0.7786410     0.0002510
  C       -0.0644320     1.2156230    -0.0000300
  C       -1.2905570     0.5944340     0.0002340
  C        0.0288885    -1.2158702     0.0000403
  H        0.1541650     2.2748950    -0.0001110
  H       -2.2450570     1.1086030     0.0003980
  H        0.2637610    -2.2461300     0.0000230
units angstrom
no_reorient  #important for SAPT in psi4, default
symmetry c1  #important for SAPT in psi4, default
}

set PROPERTIES_ORIGIN ["COM"]
properties('MP2/aug-cc-pvtz', properties = ['dipole'])
--------------------------------------------------------------------------

    Molecular point group: c1
  Charge       = 0
  Multiplicity = 1
  Basis Set: AUG-CC-PVTZ
    Blend: AUG-CC-PVTZ
  Basis Set: (AUG-CC-PVTZ AUX)
    Blend: AUG-CC-PVTZ-JKFIT

    Orbital Energies [Eh]
    ---------------------

    Doubly Occupied:

       1A    -92.007931     2A    -15.581382     3A    -11.315558
       4A    -11.275628     5A    -11.270529     6A     -9.008585
       7A     -6.689476     8A     -6.688997     9A     -6.688335
      10A     -1.267027    11A     -1.068483    12A     -1.005831
      13A     -0.805772    14A     -0.777786    15A     -0.696742
      16A     -0.593171    17A     -0.574589    18A     -0.557724
      19A     -0.510965    20A     -0.437930    21A     -0.389592
      22A     -0.342787

  @DF-RHF Final Energy:  -567.37674508337011

   => Energetics <=

    Nuclear Repulsion Energy =            204.4033036173774747
    One-Electron Energy =               -1184.4504583866564644
    Two-Electron Energy =                 412.6704096859089077
    Total Energy =                       -567.3767450833701105
  Basis Set: (AUG-CC-PVTZ AUX)
    Blend: AUG-CC-PVTZ-RI
    Molecular point group: c1

    Geometry (in Angstrom), charge = 0, multiplicity = 1:

       Center              X                  Y                   Z               Mass
    ------------   -----------------  -----------------  -----------------  -----------------
         S            1.155441655683     0.056326677598    -0.000218635523    31.972071174400
         N           -1.293352344317    -0.763064322402     0.000255364477    14.003074004430
         C           -0.092013344317     1.231199677598    -0.000025635523    12.000000000000
         C           -1.318138344317     0.610010677598     0.000238364477    12.000000000000
         C            0.001307155683    -1.200293522402     0.000044664477    12.000000000000
         H            0.126583655683     2.290471677598    -0.000106635523     1.007825032230
         H           -2.272638344317     1.124179677598     0.000402364477     1.007825032230
         H            0.236179655683    -2.230553322402     0.000027364477     1.007825032230

  Basis Set: AUG-CC-PVTZ
    Blend: AUG-CC-PVTZ
  Basis Set: (AUG-CC-PVTZ AUX)
    Blend: AUG-CC-PVTZ-JKFIT
	 Reference Energy          =    -567.3767450833701105 [Eh]
	 Singles Energy            =      -0.0000000000000000 [Eh]
	 Same-Spin Energy          =      -0.2470752291353127 [Eh]
	 Opposite-Spin Energy      =      -0.7322314811286653 [Eh]
	 Correlation Energy        =      -0.9793067102639781 [Eh]
	 Total Energy              =    -568.3560517936340375 [Eh]

	 ================> DF-SCS-MP2 Energies <==================
	-----------------------------------------------------------
	 SCS Same-Spin Scale       =       0.3333333333333333 [-]
	 SCS Opposite-Spin Scale   =       1.2000000000000000 [-]
	 SCS Same-Spin Energy      =      -0.0823584097117709 [Eh]
	 SCS Opposite-Spin Energy  =      -0.8786777773543983 [Eh]
	 SCS Correlation Energy    =      -0.9610361870661692 [Eh]
	 SCS Total Energy          =    -568.3377812704362668 [Eh]
	-----------------------------------------------------------

  Dipole Moment: [D]
     X:     1.4598      Y:     1.2549      Z:    -0.0003     Total:     1.9251

*** Psi4 exiting successfully. Buy a developer a beer!
