                               Psi4 1.4a3.dev225

  ==> Input File <==

--------------------------------------------------------------------------
#psi4
#
memory 32 gb

molecule  {
0 1
  S        1.1830230     0.0407500    -0.0002230
  N       -1.2657710    -0.7786410     0.0002510
  C       -0.0280336     1.1813424    -0.0000356
  C       -1.2905570     0.5944340     0.0002340
  C       -0.0184830    -1.1998720     0.0000480
  H        0.1541650     2.2748950    -0.0001110
  H       -2.2450570     1.1086030     0.0003980
  H        0.2637610    -2.2461300     0.0000230
units angstrom
no_reorient  #important for SAPT in psi4, default
symmetry c1  #important for SAPT in psi4, default
}

set PROPERTIES_ORIGIN ["COM"]
properties('MP2/aug-cc-pvtz', properties = ['dipole'])
--------------------------------------------------------------------------

    Molecular point group: c1
  Charge       = 0
  Multiplicity = 1
  Basis Set: AUG-CC-PVTZ
    Blend: AUG-CC-PVTZ
  Basis Set: (AUG-CC-PVTZ AUX)
    Blend: AUG-CC-PVTZ-JKFIT

    Orbital Energies [Eh]
    ---------------------

    Doubly Occupied:

       1A    -92.004867     2A    -15.579163     3A    -11.311130
       4A    -11.275561     5A    -11.271364     6A     -9.006563
       7A     -6.687505     8A     -6.686953     9A     -6.686200
      10A     -1.281555    11A     -1.080054    12A     -0.998674
      13A     -0.799536    14A     -0.777715    15A     -0.695711
      16A     -0.594643    17A     -0.565633    18A     -0.564349
      19A     -0.516556    20A     -0.438155    21A     -0.398393
      22A     -0.337224

  @DF-RHF Final Energy:  -567.37869636618257

   => Energetics <=

    Nuclear Repulsion Energy =            205.6029545524299920
    One-Electron Energy =               -1186.8482942050973179
    Two-Electron Energy =                 413.8666432864848161
    Total Energy =                       -567.3786963661825666
  Basis Set: (AUG-CC-PVTZ AUX)
    Blend: AUG-CC-PVTZ-RI
    Molecular point group: c1

    Geometry (in Angstrom), charge = 0, multiplicity = 1:

       Center              X                  Y                   Z               Mass
    ------------   -----------------  -----------------  -----------------  -----------------
         S            1.156990824358     0.058907764200    -0.000218931998    31.972071174400
         N           -1.291803175642    -0.760483235800     0.000255068002    14.003074004430
         C           -0.054065775642     1.199500164200    -0.000031531998    12.000000000000
         C           -1.316589175642     0.612591764200     0.000238068002    12.000000000000
         C           -0.044515175642    -1.181714235800     0.000052068002    12.000000000000
         H            0.128132824358     2.293052764200    -0.000106931998     1.007825032230
         H           -2.271089175642     1.126760764200     0.000402068002     1.007825032230
         H            0.237728824358    -2.227972235800     0.000027068002     1.007825032230

  Basis Set: AUG-CC-PVTZ
    Blend: AUG-CC-PVTZ
  Basis Set: (AUG-CC-PVTZ AUX)
    Blend: AUG-CC-PVTZ-JKFIT
	 Reference Energy          =    -567.3786963661825666 [Eh]
	 Singles Energy            =      -0.0000000000000000 [Eh]
	 Same-Spin Energy          =      -0.2468738183990952 [Eh]
	 Opposite-Spin Energy      =      -0.7309958734606471 [Eh]
	 Correlation Energy        =      -0.9778696918597423 [Eh]
	 Total Energy              =    -568.3565660580422900 [Eh]

	 ================> DF-SCS-MP2 Energies <==================
	-----------------------------------------------------------
	 SCS Same-Spin Scale       =       0.3333333333333333 [-]
	 SCS Opposite-Spin Scale   =       1.2000000000000000 [-]
	 SCS Same-Spin Energy      =      -0.0822912727996984 [Eh]
	 SCS Opposite-Spin Energy  =      -0.8771950481527765 [Eh]
	 SCS Correlation Energy    =      -0.9594863209524749 [Eh]
	 SCS Total Energy          =    -568.3381826871350313 [Eh]
	-----------------------------------------------------------

  Dipole Moment: [D]
     X:     1.4208      Y:     1.1781      Z:    -0.0003     Total:     1.8457

*** Psi4 exiting successfully. Buy a developer a beer!
