                               Psi4 1.3.2 release

  ==> Input File <==

--------------------------------------------------------------------------
#psi4
#
memory 32 gb

molecule  {
0 1
  S        1.1830230     0.0407500    -0.0002230
  N       -1.2657710    -0.7786410     0.0002510
  C        0.0811615     1.0785007    -0.0000525
  C       -1.2905570     0.5944340     0.0002340
  C       -0.0184830    -1.1998720     0.0000480
  H        0.1541650     2.2748950    -0.0001110
  H       -2.2450570     1.1086030     0.0003980
  H        0.2637610    -2.2461300     0.0000230
units angstrom
no_reorient  #important for SAPT in psi4, default
symmetry c1  #important for SAPT in psi4, default
}

set PROPERTIES_ORIGIN ["COM"]
properties('MP2/aug-cc-pvtz', properties = ['dipole'])
--------------------------------------------------------------------------

    Molecular point group: c1
  Charge       = 0
  Multiplicity = 1
  Basis Set: AUG-CC-PVTZ
    Blend: AUG-CC-PVTZ
  Basis Set: (AUG-CC-PVTZ AUX)
    Blend: AUG-CC-PVTZ-JKFIT

    Orbital Energies [Eh]
    ---------------------

    Doubly Occupied:

       1A    -92.006684     2A    -15.580272     3A    -11.299049
       4A    -11.277500     5A    -11.273663     6A     -9.012994
       7A     -6.694622     8A     -6.692873     9A     -6.692244
      10A     -1.286349    11A     -1.116560    12A     -0.982000
      13A     -0.784575    14A     -0.780398    15A     -0.694578
      16A     -0.590405    17A     -0.573613    18A     -0.569814
      19A     -0.504935    20A     -0.439065    21A     -0.414136
      22A     -0.318728

  @DF-RHF Final Energy:  -567.32983252207828

   => Energetics <=

    Nuclear Repulsion Energy =            208.2447709809483172
    One-Electron Energy =               -1191.9790877451973756
    Two-Electron Energy =                 416.4044842421708381
    Total Energy =                       -567.3298325220782772
  Basis Set: (AUG-CC-PVTZ AUX)
    Blend: AUG-CC-PVTZ-RI
    Molecular point group: c1

    Geometry (in Angstrom), charge = 0, multiplicity = 1:

       Center              X                  Y                   Z               Mass
    ------------   -----------------  -----------------  -----------------  -----------------
         S            1.141574795301     0.073426828109    -0.000216546077    31.972071174400
         N           -1.307219204699    -0.745964171891     0.000257453923    14.003074004430
         C            0.039713295301     1.111177528109    -0.000046046077    12.000000000000
         C           -1.332005204699     0.627110828109     0.000240453923    12.000000000000
         C           -0.059931204699    -1.167195171891     0.000054453923    12.000000000000
         H            0.112716795301     2.307571828109    -0.000104546077     1.007825032230
         H           -2.286505204699     1.141279828109     0.000404453923     1.007825032230
         H            0.222312795301    -2.213453171891     0.000029453923     1.007825032230

  Basis Set: AUG-CC-PVTZ
    Blend: AUG-CC-PVTZ
  Basis Set: (AUG-CC-PVTZ AUX)
    Blend: AUG-CC-PVTZ-JKFIT
	 Reference Energy          =    -567.3298325220782772 [Eh]
	 Singles Energy            =      -0.0000000000000000 [Eh]
	 Same-Spin Energy          =      -0.2510781003698118 [Eh]
	 Opposite-Spin Energy      =      -0.7350732603014375 [Eh]
	 Correlation Energy        =      -0.9861513606712493 [Eh]
	 Total Energy              =    -568.3159838827494923 [Eh]

	 ================> DF-SCS-MP2 Energies <==================
	-----------------------------------------------------------
	 SCS Same-Spin Scale       =       0.3333333333333333 [-]
	 SCS Opposite-Spin Scale   =       1.2000000000000000 [-]
	 SCS Same-Spin Energy      =      -0.0836927001232706 [Eh]
	 SCS Opposite-Spin Energy  =      -0.8820879123617250 [Eh]
	 SCS Correlation Energy    =      -0.9657806124849956 [Eh]
	 SCS Total Energy          =    -568.2956131345632684 [Eh]
	-----------------------------------------------------------

  Dipole Moment: [D]
     X:     1.5483      Y:     1.2141      Z:    -0.0003     Total:     1.9676

*** Psi4 exiting successfully. Buy a developer a beer!
