                               Psi4 1.3.2 release

  ==> Input File <==

--------------------------------------------------------------------------
#psi4
#
memory 32 gb

molecule  {
0 1
  S        1.1830230     0.0407500    -0.0002230
  N       -1.2657710    -0.7786410     0.0002510
  C       -0.0644320     1.2156230    -0.0000300
  C       -1.3862775     0.5893603     0.0002502
  C       -0.0184830    -1.1998720     0.0000480
  H        0.1541650     2.2748950    -0.0001110
  H       -2.2450570     1.1086030     0.0003980
  H        0.2637610    -2.2461300     0.0000230
units angstrom
no_reorient  #important for SAPT in psi4, default
symmetry c1  #important for SAPT in psi4, default
}

set PROPERTIES_ORIGIN ["COM"]
properties('MP2/aug-cc-pvtz', properties = ['dipole'])
--------------------------------------------------------------------------

    Molecular point group: c1
  Charge       = 0
  Multiplicity = 1
  Basis Set: AUG-CC-PVTZ
    Blend: AUG-CC-PVTZ
  Basis Set: (AUG-CC-PVTZ AUX)
    Blend: AUG-CC-PVTZ-JKFIT

    Orbital Energies [Eh]
    ---------------------

    Doubly Occupied:

       1A    -92.007679     2A    -15.579942     3A    -11.312044
       4A    -11.282113     5A    -11.280854     6A     -9.007902
       7A     -6.688769     8A     -6.688222     9A     -6.687638
      10A     -1.272747    11A     -1.066204    12A     -0.998548
      13A     -0.802232    14A     -0.788949    15A     -0.689804
      16A     -0.620735    17A     -0.564467    18A     -0.556233
      19A     -0.511490    20A     -0.429668    21A     -0.395516
      22A     -0.330091

  @DF-RHF Final Energy:  -567.36545301952879

   => Energetics <=

    Nuclear Repulsion Energy =            203.2540418175034063
    One-Electron Energy =               -1182.1152957920373865
    Two-Electron Energy =                 411.4958009550052225
    Total Energy =                       -567.3654530195287862
  Basis Set: (AUG-CC-PVTZ AUX)
    Blend: AUG-CC-PVTZ-RI
    Molecular point group: c1

    Geometry (in Angstrom), charge = 0, multiplicity = 1:

       Center              X                  Y                   Z               Mass
    ------------   -----------------  -----------------  -----------------  -----------------
         S            1.175643207125     0.054784370210    -0.000222009695    31.972071174400
         N           -1.273150792875    -0.764606629790     0.000251990305    14.003074004430
         C           -0.071811792875     1.229657370210    -0.000029009695    12.000000000000
         C           -1.393657292875     0.603394670210     0.000251190305    12.000000000000
         C           -0.025862792875    -1.185837629790     0.000048990305    12.000000000000
         H            0.146785207125     2.288929370210    -0.000110009695     1.007825032230
         H           -2.252436792875     1.122637370210     0.000398990305     1.007825032230
         H            0.256381207125    -2.232095629790     0.000023990305     1.007825032230

  Basis Set: AUG-CC-PVTZ
    Blend: AUG-CC-PVTZ
  Basis Set: (AUG-CC-PVTZ AUX)
    Blend: AUG-CC-PVTZ-JKFIT
	 Reference Energy          =    -567.3654530195287862 [Eh]
	 Singles Energy            =      -0.0000000000000000 [Eh]
	 Same-Spin Energy          =      -0.2476370807192916 [Eh]
	 Opposite-Spin Energy      =      -0.7334470920405205 [Eh]
	 Correlation Energy        =      -0.9810841727598121 [Eh]
	 Total Energy              =    -568.3465371922885652 [Eh]

	 ================> DF-SCS-MP2 Energies <==================
	-----------------------------------------------------------
	 SCS Same-Spin Scale       =       0.3333333333333333 [-]
	 SCS Opposite-Spin Scale   =       1.2000000000000000 [-]
	 SCS Same-Spin Energy      =      -0.0825456935730972 [Eh]
	 SCS Opposite-Spin Energy  =      -0.8801365104486246 [Eh]
	 SCS Correlation Energy    =      -0.9626822040217218 [Eh]
	 SCS Total Energy          =    -568.3281352235504755 [Eh]
	-----------------------------------------------------------

  Dipole Moment: [D]
     X:     1.3290      Y:     1.1685      Z:    -0.0003     Total:     1.7696

*** Psi4 exiting successfully. Buy a developer a beer!
