                               Psi4 1.3.2 release

  ==> Input File <==

--------------------------------------------------------------------------
#psi4
#
memory 32 gb

molecule  {
0 1
  S        1.0980293    -0.0434061    -0.0002037
  N       -1.2657710    -0.7786410     0.0002510
  C       -0.0644320     1.2156230    -0.0000300
  C       -1.2905570     0.5944340     0.0002340
  C       -0.0184830    -1.1998720     0.0000480
  H        0.1541650     2.2748950    -0.0001110
  H       -2.2450570     1.1086030     0.0003980
  H        0.2637610    -2.2461300     0.0000230
units angstrom
no_reorient  #important for SAPT in psi4, default
symmetry c1  #important for SAPT in psi4, default
}

set PROPERTIES_ORIGIN ["COM"]
properties('MP2/aug-cc-pvtz', properties = ['dipole'])
--------------------------------------------------------------------------

    Molecular point group: c1
  Charge       = 0
  Multiplicity = 1
  Basis Set: AUG-CC-PVTZ
    Blend: AUG-CC-PVTZ
  Basis Set: (AUG-CC-PVTZ AUX)
    Blend: AUG-CC-PVTZ-JKFIT

    Orbital Energies [Eh]
    ---------------------

    Doubly Occupied:

       1A    -92.000087     2A    -15.570485     3A    -11.301387
       4A    -11.275270     5A    -11.268568     6A     -9.004140
       7A     -6.685325     8A     -6.684462     9A     -6.683751
      10A     -1.289102    11A     -1.076450    12A     -1.017662
      13A     -0.801679    14A     -0.783314    15A     -0.697797
      16A     -0.593272    17A     -0.588545    18A     -0.573020
      19A     -0.503394    20A     -0.434643    21A     -0.387328
      22A     -0.351781

  @DF-RHF Final Energy:  -567.37641436205524

   => Energetics <=

    Nuclear Repulsion Energy =            208.6376924430333872
    One-Electron Energy =               -1192.8852892884272023
    Two-Electron Energy =                 416.8711824833385435
    Total Energy =                       -567.3764143620552431
  Basis Set: (AUG-CC-PVTZ AUX)
    Blend: AUG-CC-PVTZ-RI
    Molecular point group: c1

    Geometry (in Angstrom), charge = 0, multiplicity = 1:

       Center              X                  Y                   Z               Mass
    ------------   -----------------  -----------------  -----------------  -----------------
         S            1.109106025839     0.001567130281    -0.000207682258    31.972071174400
         N           -1.254694274161    -0.733667769719     0.000247017742    14.003074004430
         C           -0.053355274161     1.260596230281    -0.000033982258    12.000000000000
         C           -1.279480274161     0.639407230281     0.000230017742    12.000000000000
         C           -0.007406274161    -1.154898769719     0.000044017742    12.000000000000
         H            0.165241725839     2.319868230281    -0.000114982258     1.007825032230
         H           -2.233980274161     1.153576230281     0.000394017742     1.007825032230
         H            0.274837725839    -2.201156769719     0.000019017742     1.007825032230

  Basis Set: AUG-CC-PVTZ
    Blend: AUG-CC-PVTZ
  Basis Set: (AUG-CC-PVTZ AUX)
    Blend: AUG-CC-PVTZ-JKFIT
	 Reference Energy          =    -567.3764143620552431 [Eh]
	 Singles Energy            =      -0.0000000000000000 [Eh]
	 Same-Spin Energy          =      -0.2465793562357416 [Eh]
	 Opposite-Spin Energy      =      -0.7287967333847358 [Eh]
	 Correlation Energy        =      -0.9753760896204774 [Eh]
	 Total Energy              =    -568.3517904516756971 [Eh]

	 ================> DF-SCS-MP2 Energies <==================
	-----------------------------------------------------------
	 SCS Same-Spin Scale       =       0.3333333333333333 [-]
	 SCS Opposite-Spin Scale   =       1.2000000000000000 [-]
	 SCS Same-Spin Energy      =      -0.0821931187452472 [Eh]
	 SCS Opposite-Spin Energy  =      -0.8745560800616829 [Eh]
	 SCS Correlation Energy    =      -0.9567491988069301 [Eh]
	 SCS Total Energy          =    -568.3331635608622037 [Eh]
	-----------------------------------------------------------

  Dipole Moment: [D]
     X:     1.4681      Y:     1.2332      Z:    -0.0003     Total:     1.9173

*** Psi4 exiting successfully. Buy a developer a beer!
