                               Psi4 1.3.2 release

  ==> Input File <==

--------------------------------------------------------------------------
#psi4
#
memory 32 gb

molecule  {
0 1
  S        1.1389940     0.0819262    -0.0002156
  N       -1.2657710    -0.7786410     0.0002510
  C       -0.0644320     1.2156230    -0.0000300
  C       -1.2905570     0.5944340     0.0002340
  C       -0.0184830    -1.1998720     0.0000480
  H        0.1541650     2.2748950    -0.0001110
  H       -2.2450570     1.1086030     0.0003980
  H        0.2637610    -2.2461300     0.0000230
units angstrom
no_reorient  #important for SAPT in psi4, default
symmetry c1  #important for SAPT in psi4, default
}

set PROPERTIES_ORIGIN ["COM"]
properties('MP2/aug-cc-pvtz', properties = ['dipole'])
--------------------------------------------------------------------------

    Molecular point group: c1
  Charge       = 0
  Multiplicity = 1
  Basis Set: AUG-CC-PVTZ
    Blend: AUG-CC-PVTZ
  Basis Set: (AUG-CC-PVTZ AUX)
    Blend: AUG-CC-PVTZ-JKFIT

    Orbital Energies [Eh]
    ---------------------

    Doubly Occupied:

       1A    -92.001068     2A    -15.579045     3A    -11.311776
       4A    -11.273075     5A    -11.266605     6A     -9.003307
       7A     -6.684265     8A     -6.683761     9A     -6.682966
      10A     -1.283737    11A     -1.083270    12A     -1.001011
      13A     -0.802283    14A     -0.780016    15A     -0.701303
      16A     -0.595259    17A     -0.575780    18A     -0.566570
      19A     -0.510415    20A     -0.437073    21A     -0.397718
      22A     -0.340169

  @DF-RHF Final Energy:  -567.38080908500149

   => Energetics <=

    Nuclear Repulsion Energy =            206.6536600697159258
    One-Electron Energy =               -1188.9479946410219782
    Two-Electron Energy =                 414.9135254863046498
    Total Energy =                       -567.3808090850013741
  Basis Set: (AUG-CC-PVTZ AUX)
    Blend: AUG-CC-PVTZ-RI
    Molecular point group: c1

    Geometry (in Angstrom), charge = 0, multiplicity = 1:

       Center              X                  Y                   Z               Mass
    ------------   -----------------  -----------------  -----------------  -----------------
         S            1.134661930969     0.079755921327    -0.000215106095    31.972071174400
         N           -1.270103069031    -0.780811278673     0.000251493905    14.003074004430
         C           -0.068764069031     1.213452721327    -0.000029506095    12.000000000000
         C           -1.294889069031     0.592263721327     0.000234493905    12.000000000000
         C           -0.022815069031    -1.202042278673     0.000048493905    12.000000000000
         H            0.149832930969     2.272724721327    -0.000110506095     1.007825032230
         H           -2.249389069031     1.106432721327     0.000398493905     1.007825032230
         H            0.259428930969    -2.248300278673     0.000023493905     1.007825032230

  Basis Set: AUG-CC-PVTZ
    Blend: AUG-CC-PVTZ
  Basis Set: (AUG-CC-PVTZ AUX)
    Blend: AUG-CC-PVTZ-JKFIT
	 Reference Energy          =    -567.3808090850014878 [Eh]
	 Singles Energy            =      -0.0000000000000000 [Eh]
	 Same-Spin Energy          =      -0.2466113578142629 [Eh]
	 Opposite-Spin Energy      =      -0.7299744689596066 [Eh]
	 Correlation Energy        =      -0.9765858267738694 [Eh]
	 Total Energy              =    -568.3573949117753727 [Eh]

	 ================> DF-SCS-MP2 Energies <==================
	-----------------------------------------------------------
	 SCS Same-Spin Scale       =       0.3333333333333333 [-]
	 SCS Opposite-Spin Scale   =       1.2000000000000000 [-]
	 SCS Same-Spin Energy      =      -0.0822037859380876 [Eh]
	 SCS Opposite-Spin Energy  =      -0.8759693627515279 [Eh]
	 SCS Correlation Energy    =      -0.9581731486896156 [Eh]
	 SCS Total Energy          =    -568.3389822336911266 [Eh]
	-----------------------------------------------------------

  Dipole Moment: [D]
     X:     1.3878      Y:     1.2111      Z:    -0.0003     Total:     1.8419

*** Psi4 exiting successfully. Buy a developer a beer!
