                               Psi4 1.3.2 release

  ==> Input File <==

--------------------------------------------------------------------------
#psi4
#
memory 32 gb

molecule  {
0 1
  S        1.1830230     0.0407500    -0.0002230
  N       -1.2657710    -0.7786410     0.0002510
  C       -0.0644320     1.2156230    -0.0000300
  C       -1.3487721     0.7260019     0.0002408
  C       -0.0184830    -1.1998720     0.0000480
  H        0.1541650     2.2748950    -0.0001110
  H       -2.2450570     1.1086030     0.0003980
  H        0.2637610    -2.2461300     0.0000230
units angstrom
no_reorient  #important for SAPT in psi4, default
symmetry c1  #important for SAPT in psi4, default
}

set PROPERTIES_ORIGIN ["COM"]
properties('MP2/aug-cc-pvtz', properties = ['dipole'])
--------------------------------------------------------------------------

    Molecular point group: c1
  Charge       = 0
  Multiplicity = 1
  Basis Set: AUG-CC-PVTZ
    Blend: AUG-CC-PVTZ
  Basis Set: (AUG-CC-PVTZ AUX)
    Blend: AUG-CC-PVTZ-JKFIT

    Orbital Energies [Eh]
    ---------------------

    Doubly Occupied:

       1A    -92.002189     2A    -15.582707     3A    -11.312862
       4A    -11.279386     5A    -11.277344     6A     -9.003258
       7A     -6.684254     8A     -6.683563     9A     -6.682806
      10A     -1.249755    11A     -1.062881    12A     -1.008227
      13A     -0.802913    14A     -0.788104    15A     -0.697722
      16A     -0.599145    17A     -0.560242    18A     -0.548375
      19A     -0.529615    20A     -0.421586    21A     -0.385430
      22A     -0.351295

  @DF-RHF Final Energy:  -567.35766523479742

   => Energetics <=

    Nuclear Repulsion Energy =            202.5126964413724693
    One-Electron Energy =               -1180.7134052984195023
    Two-Electron Energy =                 410.8430436222495246
    Total Energy =                       -567.3576652347975369
  Basis Set: (AUG-CC-PVTZ AUX)
    Blend: AUG-CC-PVTZ-RI
    Molecular point group: c1

    Geometry (in Angstrom), charge = 0, multiplicity = 1:

       Center              X                  Y                   Z               Mass
    ------------   -----------------  -----------------  -----------------  -----------------
         S            1.170348241176     0.035493478255    -0.000220682615    31.972071174400
         N           -1.278445758824    -0.783897521745     0.000253317385    14.003074004430
         C           -0.077106758824     1.210366478255    -0.000027682615    12.000000000000
         C           -1.361446858824     0.720745378255     0.000243117385    12.000000000000
         C           -0.031157758824    -1.205128521745     0.000050317385    12.000000000000
         H            0.141490241176     2.269638478255    -0.000108682615     1.007825032230
         H           -2.257731758824     1.103346478255     0.000400317385     1.007825032230
         H            0.251086241176    -2.251386521745     0.000025317385     1.007825032230

  Basis Set: AUG-CC-PVTZ
    Blend: AUG-CC-PVTZ
  Basis Set: (AUG-CC-PVTZ AUX)
    Blend: AUG-CC-PVTZ-JKFIT
	 Reference Energy          =    -567.3576652347974232 [Eh]
	 Singles Energy            =      -0.0000000000000000 [Eh]
	 Same-Spin Energy          =      -0.2444996839191804 [Eh]
	 Opposite-Spin Energy      =      -0.7323342449564780 [Eh]
	 Correlation Energy        =      -0.9768339288756585 [Eh]
	 Total Energy              =    -568.3344991636730583 [Eh]

	 ================> DF-SCS-MP2 Energies <==================
	-----------------------------------------------------------
	 SCS Same-Spin Scale       =       0.3333333333333333 [-]
	 SCS Opposite-Spin Scale   =       1.2000000000000000 [-]
	 SCS Same-Spin Energy      =      -0.0814998946397268 [Eh]
	 SCS Opposite-Spin Energy  =      -0.8788010939477736 [Eh]
	 SCS Correlation Energy    =      -0.9603009885875005 [Eh]
	 SCS Total Energy          =    -568.3179662233849285 [Eh]
	-----------------------------------------------------------

  Dipole Moment: [D]
     X:     1.3168      Y:     1.1819      Z:    -0.0003     Total:     1.7694

*** Psi4 exiting successfully. Buy a developer a beer!
