                               Psi4 1.3.2 release

  ==> Input File <==

--------------------------------------------------------------------------
#psi4
#
memory 32 gb

molecule  {
0 1
  S        1.1830230     0.0407500    -0.0002230
  N       -1.2657710    -0.7786410     0.0002510
  C       -0.1360808     1.3403850    -0.0000213
  C       -1.2905570     0.5944340     0.0002340
  C       -0.0184830    -1.1998720     0.0000480
  H        0.1541650     2.2748950    -0.0001110
  H       -2.2450570     1.1086030     0.0003980
  H        0.2637610    -2.2461300     0.0000230
units angstrom
no_reorient  #important for SAPT in psi4, default
symmetry c1  #important for SAPT in psi4, default
}

set PROPERTIES_ORIGIN ["COM"]
properties('MP2/aug-cc-pvtz', properties = ['dipole'])
--------------------------------------------------------------------------

    Molecular point group: c1
  Charge       = 0
  Multiplicity = 1
  Basis Set: AUG-CC-PVTZ
    Blend: AUG-CC-PVTZ
  Basis Set: (AUG-CC-PVTZ AUX)
    Blend: AUG-CC-PVTZ-JKFIT

    Orbital Energies [Eh]
    ---------------------

    Doubly Occupied:

       1A    -91.999005     2A    -15.580875     3A    -11.323368
       4A    -11.284000     5A    -11.276052     6A     -8.998103
       7A     -6.678979     8A     -6.678263     9A     -6.677793
      10A     -1.277716    11A     -1.053056    12A     -1.009973
      13A     -0.823787    14A     -0.779884    15A     -0.707531
      16A     -0.604164    17A     -0.583090    18A     -0.557054
      19A     -0.479105    20A     -0.437863    21A     -0.385175
      22A     -0.353092

  @DF-RHF Final Energy:  -567.36441060678669

   => Energetics <=

    Nuclear Repulsion Energy =            202.2383098200884035
    One-Electron Energy =               -1180.1095820872792501
    Two-Electron Energy =                 410.5068616604041267
    Total Energy =                       -567.3644106067868051
  Basis Set: (AUG-CC-PVTZ AUX)
    Blend: AUG-CC-PVTZ-RI
    Molecular point group: c1

    Geometry (in Angstrom), charge = 0, multiplicity = 1:

       Center              X                  Y                   Z               Mass
    ------------   -----------------  -----------------  -----------------  -----------------
         S            1.172244794314     0.036454326793    -0.000220950855    31.972071174400
         N           -1.276549205686    -0.782936673207     0.000253049145    14.003074004430
         C           -0.146859005686     1.336089326793    -0.000019250855    12.000000000000
         C           -1.301335205686     0.590138326793     0.000236049145    12.000000000000
         C           -0.029261205686    -1.204167673207     0.000050049145    12.000000000000
         H            0.143386794314     2.270599326793    -0.000108950855     1.007825032230
         H           -2.255835205686     1.104307326793     0.000400049145     1.007825032230
         H            0.252982794314    -2.250425673207     0.000025049145     1.007825032230

  Basis Set: AUG-CC-PVTZ
    Blend: AUG-CC-PVTZ
  Basis Set: (AUG-CC-PVTZ AUX)
    Blend: AUG-CC-PVTZ-JKFIT
	 Reference Energy          =    -567.3644106067866915 [Eh]
	 Singles Energy            =      -0.0000000000000000 [Eh]
	 Same-Spin Energy          =      -0.2443241267551013 [Eh]
	 Opposite-Spin Energy      =      -0.7304408610180054 [Eh]
	 Correlation Energy        =      -0.9747649877731068 [Eh]
	 Total Energy              =    -568.3391755945598334 [Eh]

	 ================> DF-SCS-MP2 Energies <==================
	-----------------------------------------------------------
	 SCS Same-Spin Scale       =       0.3333333333333333 [-]
	 SCS Opposite-Spin Scale   =       1.2000000000000000 [-]
	 SCS Same-Spin Energy      =      -0.0814413755850338 [Eh]
	 SCS Opposite-Spin Energy  =      -0.8765290332216065 [Eh]
	 SCS Correlation Energy    =      -0.9579704088066403 [Eh]
	 SCS Total Energy          =    -568.3223810155933506 [Eh]
	-----------------------------------------------------------

  Dipole Moment: [D]
     X:     1.2005      Y:     1.1850      Z:    -0.0003     Total:     1.6868

*** Psi4 exiting successfully. Buy a developer a beer!
