                               Psi4 1.4a3.dev225

  ==> Input File <==

--------------------------------------------------------------------------
#psi4
#
memory 32 gb

molecule  {
0 1
  S        1.1830230     0.0407500    -0.0002230
  N       -1.2657710    -0.7786410     0.0002510
  C       -0.0644320     1.2156230    -0.0000300
  C       -1.2905570     0.5944340     0.0002340
  C       -0.0184830    -1.1998720     0.0000480
  H        0.1541650     2.2748950    -0.0001110
  H       -2.2450570     1.1086030     0.0003980
  H        0.2585519    -2.2268203     0.0000235
units angstrom
no_reorient  #important for SAPT in psi4, default
symmetry c1  #important for SAPT in psi4, default
}

set PROPERTIES_ORIGIN ["COM"]
properties('MP2/aug-cc-pvtz', properties = ['dipole'])
--------------------------------------------------------------------------

    Molecular point group: c1
  Charge       = 0
  Multiplicity = 1
  Basis Set: AUG-CC-PVTZ
    Blend: AUG-CC-PVTZ
  Basis Set: (AUG-CC-PVTZ AUX)
    Blend: AUG-CC-PVTZ-JKFIT

    Orbital Energies [Eh]
    ---------------------

    Doubly Occupied:

       1A    -92.003338     2A    -15.578949     3A    -11.312413
       4A    -11.275240     5A    -11.271182     6A     -9.004131
       7A     -6.685016     8A     -6.684504     9A     -6.683805
      10A     -1.280603    11A     -1.070682    12A     -1.004645
      13A     -0.806251    14A     -0.778864    15A     -0.698542
      16A     -0.597726    17A     -0.570405    18A     -0.562340
      19A     -0.510141    20A     -0.438047    21A     -0.393964
      22A     -0.343302

  @DF-RHF Final Energy:  -567.38297424226403

   => Energetics <=

    Nuclear Repulsion Energy =            204.9209500773424395
    One-Electron Energy =               -1185.4996684115606058
    Two-Electron Energy =                 413.1957440919541682
    Total Energy =                       -567.3829742422640265
  Basis Set: (AUG-CC-PVTZ AUX)
    Blend: AUG-CC-PVTZ-RI
    Molecular point group: c1

    Geometry (in Angstrom), charge = 0, multiplicity = 1:

       Center              X                  Y                   Z               Mass
    ------------   -----------------  -----------------  -----------------  -----------------
         S            1.162191269494     0.053839117231    -0.000219728528    31.972071174400
         N           -1.286602730506    -0.765551882769     0.000254271472    14.003074004430
         C           -0.085263730506     1.228712117231    -0.000026728528    12.000000000000
         C           -1.311388730506     0.607523117231     0.000237271472    12.000000000000
         C           -0.039314730506    -1.186782882769     0.000051271472    12.000000000000
         H            0.133333269494     2.287984117231    -0.000107728528     1.007825032230
         H           -2.265888730506     1.121692117231     0.000401271472     1.007825032230
         H            0.237720169494    -2.213731182769     0.000026771472     1.007825032230

  Basis Set: AUG-CC-PVTZ
    Blend: AUG-CC-PVTZ
  Basis Set: (AUG-CC-PVTZ AUX)
    Blend: AUG-CC-PVTZ-JKFIT
	 Reference Energy          =    -567.3829742422640265 [Eh]
	 Singles Energy            =      -0.0000000000000000 [Eh]
	 Same-Spin Energy          =      -0.2457516182215801 [Eh]
	 Opposite-Spin Energy      =      -0.7301175786800729 [Eh]
	 Correlation Energy        =      -0.9758691969016531 [Eh]
	 Total Energy              =    -568.3588434391656392 [Eh]

	 ================> DF-SCS-MP2 Energies <==================
	-----------------------------------------------------------
	 SCS Same-Spin Scale       =       0.3333333333333333 [-]
	 SCS Opposite-Spin Scale   =       1.2000000000000000 [-]
	 SCS Same-Spin Energy      =      -0.0819172060738600 [Eh]
	 SCS Opposite-Spin Energy  =      -0.8761410944160875 [Eh]
	 SCS Correlation Energy    =      -0.9580583004899474 [Eh]
	 SCS Total Energy          =    -568.3410325427539647 [Eh]
	-----------------------------------------------------------

  Dipole Moment: [D]
     X:     1.3688      Y:     1.1803      Z:    -0.0003     Total:     1.8074

*** Psi4 exiting successfully. Buy a developer a beer!
