                               Psi4 1.4a3.dev225

  ==> Input File <==

--------------------------------------------------------------------------
#psi4
#
memory 32 gb

molecule  {
0 1
  S        1.1830230     0.0407500    -0.0002230
  N       -1.2657710    -0.7786410     0.0002510
  C       -0.0644320     1.2156230    -0.0000300
  C       -1.3351595     0.5718371     0.0002436
  C       -0.0184830    -1.1998720     0.0000480
  H        0.1541650     2.2748950    -0.0001110
  H       -2.2450570     1.1086030     0.0003980
  H        0.2637610    -2.2461300     0.0000230
units angstrom
no_reorient  #important for SAPT in psi4, default
symmetry c1  #important for SAPT in psi4, default
}

set PROPERTIES_ORIGIN ["COM"]
properties('MP2/aug-cc-pvtz', properties = ['dipole'])
--------------------------------------------------------------------------

    Molecular point group: c1
  Charge       = 0
  Multiplicity = 1
  Basis Set: AUG-CC-PVTZ
    Blend: AUG-CC-PVTZ
  Basis Set: (AUG-CC-PVTZ AUX)
    Blend: AUG-CC-PVTZ-JKFIT

    Orbital Energies [Eh]
    ---------------------

    Doubly Occupied:

       1A    -92.006185     2A    -15.578412     3A    -11.313254
       4A    -11.278369     5A    -11.276075     6A     -9.006575
       7A     -6.687431     8A     -6.686924     9A     -6.686305
      10A     -1.281987    11A     -1.069258    12A     -0.999767
      13A     -0.804251    14A     -0.780752    15A     -0.694548
      16A     -0.609302    17A     -0.567196    18A     -0.561399
      19A     -0.508485    20A     -0.435381    21A     -0.396603
      22A     -0.334196

  @DF-RHF Final Energy:  -567.37746835817870

   => Energetics <=

    Nuclear Repulsion Energy =            204.2963230418314424
    One-Electron Energy =               -1184.2222748561557637
    Two-Electron Energy =                 412.5484834561455614
    Total Energy =                       -567.3774683581787031
  Basis Set: (AUG-CC-PVTZ AUX)
    Blend: AUG-CC-PVTZ-RI
    Molecular point group: c1

    Geometry (in Angstrom), charge = 0, multiplicity = 1:

       Center              X                  Y                   Z               Mass
    ------------   -----------------  -----------------  -----------------  -----------------
         S            1.168426431158     0.057258273896    -0.000221077915    31.972071174400
         N           -1.280367568842    -0.762132726104     0.000252922085    14.003074004430
         C           -0.079028568842     1.232131273896    -0.000028077915    12.000000000000
         C           -1.349756068842     0.588345373896     0.000245522085    12.000000000000
         C           -0.033079568842    -1.183363726104     0.000049922085    12.000000000000
         H            0.139568431158     2.291403273896    -0.000109077915     1.007825032230
         H           -2.259653568842     1.125111273896     0.000399922085     1.007825032230
         H            0.249164431158    -2.229621726104     0.000024922085     1.007825032230

  Basis Set: AUG-CC-PVTZ
    Blend: AUG-CC-PVTZ
  Basis Set: (AUG-CC-PVTZ AUX)
    Blend: AUG-CC-PVTZ-JKFIT
	 Reference Energy          =    -567.3774683581787031 [Eh]
	 Singles Energy            =      -0.0000000000000000 [Eh]
	 Same-Spin Energy          =      -0.2470488262073284 [Eh]
	 Opposite-Spin Energy      =      -0.7317028335025946 [Eh]
	 Correlation Energy        =      -0.9787516597099229 [Eh]
	 Total Energy              =    -568.3562200178886314 [Eh]

	 ================> DF-SCS-MP2 Energies <==================
	-----------------------------------------------------------
	 SCS Same-Spin Scale       =       0.3333333333333333 [-]
	 SCS Opposite-Spin Scale   =       1.2000000000000000 [-]
	 SCS Same-Spin Energy      =      -0.0823496087357761 [Eh]
	 SCS Opposite-Spin Energy  =      -0.8780434002031134 [Eh]
	 SCS Correlation Energy    =      -0.9603930089388896 [Eh]
	 SCS Total Energy          =    -568.3378613671176254 [Eh]
	-----------------------------------------------------------

  Dipole Moment: [D]
     X:     1.3518      Y:     1.1744      Z:    -0.0003     Total:     1.7907

*** Psi4 exiting successfully. Buy a developer a beer!
