                               Psi4 1.3.2 release

  ==> Input File <==

--------------------------------------------------------------------------
#psi4
#
memory 32 gb

molecule  {
0 1
  S        1.1830230     0.0407500    -0.0002230
  N       -1.2149076    -0.6505714     0.0002395
  C       -0.0644320     1.2156230    -0.0000300
  C       -1.2905570     0.5944340     0.0002340
  C       -0.0184830    -1.1998720     0.0000480
  H        0.1541650     2.2748950    -0.0001110
  H       -2.2450570     1.1086030     0.0003980
  H        0.2637610    -2.2461300     0.0000230
units angstrom
no_reorient  #important for SAPT in psi4, default
symmetry c1  #important for SAPT in psi4, default
}

set PROPERTIES_ORIGIN ["COM"]
properties('MP2/aug-cc-pvtz', properties = ['dipole'])
--------------------------------------------------------------------------

    Molecular point group: c1
  Charge       = 0
  Multiplicity = 1
  Basis Set: AUG-CC-PVTZ
    Blend: AUG-CC-PVTZ
  Basis Set: (AUG-CC-PVTZ AUX)
    Blend: AUG-CC-PVTZ-JKFIT

    Orbital Energies [Eh]
    ---------------------

    Doubly Occupied:

       1A    -92.003906     2A    -15.561673     3A    -11.312032
       4A    -11.266242     5A    -11.260826     6A     -9.004250
       7A     -6.684991     8A     -6.684661     9A     -6.684060
      10A     -1.312670    11A     -1.068359    12A     -1.012769
      13A     -0.817340    14A     -0.774570    15A     -0.704147
      16A     -0.624045    17A     -0.578025    18A     -0.564251
      19A     -0.506345    20A     -0.415905    21A     -0.398693
      22A     -0.335331

  @DF-RHF Final Energy:  -567.36604728564055

   => Energetics <=

    Nuclear Repulsion Energy =            207.9172718851125694
    One-Electron Energy =               -1191.4164529639290322
    Two-Electron Energy =                 416.1331337931760004
    Total Energy =                       -567.3660472856404340
  Basis Set: (AUG-CC-PVTZ AUX)
    Blend: AUG-CC-PVTZ-RI
    Molecular point group: c1

    Geometry (in Angstrom), charge = 0, multiplicity = 1:

       Center              X                  Y                   Z               Mass
    ------------   -----------------  -----------------  -----------------  -----------------
         S            1.153750028761     0.032969280971    -0.000217828035    31.972071174400
         N           -1.244180571239    -0.658352119029     0.000244671965    14.003074004430
         C           -0.093704971239     1.207842280971    -0.000024828035    12.000000000000
         C           -1.319829971239     0.586653280971     0.000239171965    12.000000000000
         C           -0.047755971239    -1.207652719029     0.000053171965    12.000000000000
         H            0.124892028761     2.267114280971    -0.000105828035     1.007825032230
         H           -2.274329971239     1.100822280971     0.000403171965     1.007825032230
         H            0.234488028761    -2.253910719029     0.000028171965     1.007825032230

  Basis Set: AUG-CC-PVTZ
    Blend: AUG-CC-PVTZ
  Basis Set: (AUG-CC-PVTZ AUX)
    Blend: AUG-CC-PVTZ-JKFIT
	 Reference Energy          =    -567.3660472856405477 [Eh]
	 Singles Energy            =      -0.0000000000000000 [Eh]
	 Same-Spin Energy          =      -0.2481904672950686 [Eh]
	 Opposite-Spin Energy      =      -0.7302415870006040 [Eh]
	 Correlation Energy        =      -0.9784320542956726 [Eh]
	 Total Energy              =    -568.3444793399362425 [Eh]

	 ================> DF-SCS-MP2 Energies <==================
	-----------------------------------------------------------
	 SCS Same-Spin Scale       =       0.3333333333333333 [-]
	 SCS Opposite-Spin Scale   =       1.2000000000000000 [-]
	 SCS Same-Spin Energy      =      -0.0827301557650229 [Eh]
	 SCS Opposite-Spin Energy  =      -0.8762899044007249 [Eh]
	 SCS Correlation Energy    =      -0.9590200601657477 [Eh]
	 SCS Total Energy          =    -568.3250673458062465 [Eh]
	-----------------------------------------------------------

  Dipole Moment: [D]
     X:     1.1770      Y:     0.9215      Z:    -0.0002     Total:     1.4948

*** Psi4 exiting successfully. Buy a developer a beer!
