                               Psi4 1.3.2 release

  ==> Input File <==

--------------------------------------------------------------------------
#psi4
#
memory 32 gb

molecule  {
0 1
  S        1.1830230     0.0407500    -0.0002230
  N       -1.2657710    -0.7786410     0.0002510
  C       -0.1107507     1.2996400    -0.0000245
  C       -1.2905570     0.5944340     0.0002340
  C       -0.0184830    -1.1998720     0.0000480
  H        0.1541650     2.2748950    -0.0001110
  H       -2.2450570     1.1086030     0.0003980
  H        0.2637610    -2.2461300     0.0000230
units angstrom
no_reorient  #important for SAPT in psi4, default
symmetry c1  #important for SAPT in psi4, default
}

set PROPERTIES_ORIGIN ["COM"]
properties('MP2/aug-cc-pvtz', properties = ['dipole'])
--------------------------------------------------------------------------

    Molecular point group: c1
  Charge       = 0
  Multiplicity = 1
  Basis Set: AUG-CC-PVTZ
    Blend: AUG-CC-PVTZ
  Basis Set: (AUG-CC-PVTZ AUX)
    Blend: AUG-CC-PVTZ-JKFIT

    Orbital Energies [Eh]
    ---------------------

    Doubly Occupied:

       1A    -92.000936     2A    -15.580227     3A    -11.320530
       4A    -11.280682     5A    -11.273947     6A     -9.000431
       7A     -6.681304     8A     -6.680670     9A     -6.680132
      10A     -1.278322    11A     -1.057829    12A     -1.008107
      13A     -0.816736    14A     -0.778204    15A     -0.703932
      16A     -0.601209    17A     -0.580663    18A     -0.558442
      19A     -0.489891    20A     -0.438091    21A     -0.387968
      22A     -0.349735

  @DF-RHF Final Energy:  -567.37501190239414

   => Energetics <=

    Nuclear Repulsion Energy =            203.0568074988634351
    One-Electron Energy =               -1181.7676654081622019
    Two-Electron Energy =                 411.3358460069044895
    Total Energy =                       -567.3750119023942489
  Basis Set: (AUG-CC-PVTZ AUX)
    Blend: AUG-CC-PVTZ-RI
    Molecular point group: c1

    Geometry (in Angstrom), charge = 0, multiplicity = 1:

       Center              X                  Y                   Z               Mass
    ------------   -----------------  -----------------  -----------------  -----------------
         S            1.168668722150     0.042206655459    -0.000220499083    31.972071174400
         N           -1.280125277850    -0.777184344541     0.000253500917    14.003074004430
         C           -0.125104977850     1.301096655459    -0.000021999083    12.000000000000
         C           -1.304911277850     0.595890655459     0.000236500917    12.000000000000
         C           -0.032837277850    -1.198415344541     0.000050500917    12.000000000000
         H            0.139810722150     2.276351655459    -0.000108499083     1.007825032230
         H           -2.259411277850     1.110059655459     0.000400500917     1.007825032230
         H            0.249406722150    -2.244673344541     0.000025500917     1.007825032230

  Basis Set: AUG-CC-PVTZ
    Blend: AUG-CC-PVTZ
  Basis Set: (AUG-CC-PVTZ AUX)
    Blend: AUG-CC-PVTZ-JKFIT
	 Reference Energy          =    -567.3750119023941352 [Eh]
	 Singles Energy            =      -0.0000000000000000 [Eh]
	 Same-Spin Energy          =      -0.2446891187882226 [Eh]
	 Opposite-Spin Energy      =      -0.7301415621896299 [Eh]
	 Correlation Energy        =      -0.9748306809778525 [Eh]
	 Total Energy              =    -568.3498425833720376 [Eh]

	 ================> DF-SCS-MP2 Energies <==================
	-----------------------------------------------------------
	 SCS Same-Spin Scale       =       0.3333333333333333 [-]
	 SCS Opposite-Spin Scale   =       1.2000000000000000 [-]
	 SCS Same-Spin Energy      =      -0.0815630395960742 [Eh]
	 SCS Opposite-Spin Energy  =      -0.8761698746275558 [Eh]
	 SCS Correlation Energy    =      -0.9577329142236300 [Eh]
	 SCS Total Energy          =    -568.3327448166177192 [Eh]
	-----------------------------------------------------------

  Dipole Moment: [D]
     X:     1.2587      Y:     1.1805      Z:    -0.0003     Total:     1.7257

*** Psi4 exiting successfully. Buy a developer a beer!
