                               Psi4 1.4a3.dev225

  ==> Input File <==

--------------------------------------------------------------------------
#psi4
#
memory 32 gb

molecule  {
0 1
  S        1.1830230     0.0407500    -0.0002230
  N       -1.2657710    -0.7786410     0.0002510
  C       -0.0644320     1.2156230    -0.0000300
  C       -1.2727160     0.6034727     0.0002302
  C       -0.0184830    -1.1998720     0.0000480
  H        0.1541650     2.2748950    -0.0001110
  H       -2.2450570     1.1086030     0.0003980
  H        0.2637610    -2.2461300     0.0000230
units angstrom
no_reorient  #important for SAPT in psi4, default
symmetry c1  #important for SAPT in psi4, default
}

set PROPERTIES_ORIGIN ["COM"]
properties('MP2/aug-cc-pvtz', properties = ['dipole'])
--------------------------------------------------------------------------

    Molecular point group: c1
  Charge       = 0
  Multiplicity = 1
  Basis Set: AUG-CC-PVTZ
    Blend: AUG-CC-PVTZ
  Basis Set: (AUG-CC-PVTZ AUX)
    Blend: AUG-CC-PVTZ-JKFIT

    Orbital Energies [Eh]
    ---------------------

    Doubly Occupied:

       1A    -92.002396     2A    -15.579298     3A    -11.314953
       4A    -11.274071     5A    -11.269052     6A     -9.003332
       7A     -6.684223     8A     -6.683709     9A     -6.682976
      10A     -1.280085    11A     -1.071848    12A     -1.005203
      13A     -0.804764    14A     -0.775452    15A     -0.699202
      16A     -0.591263    17A     -0.570385    18A     -0.562919
      19A     -0.510451    20A     -0.438625    21A     -0.393126
      22A     -0.347081

  @DF-RHF Final Energy:  -567.38325170750613

   => Energetics <=

    Nuclear Repulsion Energy =            205.0334656361639816
    One-Electron Energy =               -1185.7446082939297867
    Two-Electron Energy =                 413.3278909502596434
    Total Energy =                       -567.3832517075061332
  Basis Set: (AUG-CC-PVTZ AUX)
    Blend: AUG-CC-PVTZ-RI
    Molecular point group: c1

    Geometry (in Angstrom), charge = 0, multiplicity = 1:

       Center              X                  Y                   Z               Mass
    ------------   -----------------  -----------------  -----------------  -----------------
         S            1.159610735120     0.052791999046    -0.000219186120    31.972071174400
         N           -1.289183264880    -0.766599000954     0.000254813880    14.003074004430
         C           -0.087844264880     1.227664999046    -0.000026186120    12.000000000000
         C           -1.296128264880     0.615514699046     0.000234013880    12.000000000000
         C           -0.041895264880    -1.187830000954     0.000051813880    12.000000000000
         H            0.130752735120     2.286936999046    -0.000107186120     1.007825032230
         H           -2.268469264880     1.120644999046     0.000401813880     1.007825032230
         H            0.240348735120    -2.234088000954     0.000026813880     1.007825032230

  Basis Set: AUG-CC-PVTZ
    Blend: AUG-CC-PVTZ
  Basis Set: (AUG-CC-PVTZ AUX)
    Blend: AUG-CC-PVTZ-JKFIT
	 Reference Energy          =    -567.3832517075061332 [Eh]
	 Singles Energy            =      -0.0000000000000000 [Eh]
	 Same-Spin Energy          =      -0.2453265234821778 [Eh]
	 Opposite-Spin Energy      =      -0.7296673808196757 [Eh]
	 Correlation Energy        =      -0.9749939043018536 [Eh]
	 Total Energy              =    -568.3582456118080017 [Eh]

	 ================> DF-SCS-MP2 Energies <==================
	-----------------------------------------------------------
	 SCS Same-Spin Scale       =       0.3333333333333333 [-]
	 SCS Opposite-Spin Scale   =       1.2000000000000000 [-]
	 SCS Same-Spin Energy      =      -0.0817755078273926 [Eh]
	 SCS Opposite-Spin Energy  =      -0.8756008569836109 [Eh]
	 SCS Correlation Energy    =      -0.9573763648110035 [Eh]
	 SCS Total Energy          =    -568.3406280723171449 [Eh]
	-----------------------------------------------------------

  Dipole Moment: [D]
     X:     1.3715      Y:     1.1775      Z:    -0.0003     Total:     1.8077

*** Psi4 exiting successfully. Buy a developer a beer!
