                               Psi4 1.3.2 release

  ==> Input File <==

--------------------------------------------------------------------------
#psi4
#
memory 32 gb

molecule  {
0 1
  S        1.1830230     0.0407500    -0.0002230
  N       -1.2657710    -0.7786410     0.0002510
  C       -0.0644320     1.2156230    -0.0000300
  C       -1.4339466     0.5843213     0.0002582
  C       -0.0184830    -1.1998720     0.0000480
  H        0.1541650     2.2748950    -0.0001110
  H       -2.2450570     1.1086030     0.0003980
  H        0.2637610    -2.2461300     0.0000230
units angstrom
no_reorient  #important for SAPT in psi4, default
symmetry c1  #important for SAPT in psi4, default
}

set PROPERTIES_ORIGIN ["COM"]
properties('MP2/aug-cc-pvtz', properties = ['dipole'])
--------------------------------------------------------------------------

    Molecular point group: c1
  Charge       = 0
  Multiplicity = 1
  Basis Set: AUG-CC-PVTZ
    Blend: AUG-CC-PVTZ
  Basis Set: (AUG-CC-PVTZ AUX)
    Blend: AUG-CC-PVTZ-JKFIT

    Orbital Energies [Eh]
    ---------------------

    Doubly Occupied:

       1A    -92.009930     2A    -15.580975     3A    -11.310822
       4A    -11.286975     5A    -11.284041     6A     -9.009885
       7A     -6.690735     8A     -6.690182     9A     -6.689651
      10A     -1.269332    11A     -1.065489    12A     -0.996576
      13A     -0.806580    14A     -0.791704    15A     -0.684940
      16A     -0.632341    17A     -0.562552    18A     -0.553829
      19A     -0.509610    20A     -0.425107    21A     -0.396597
      22A     -0.324025

  @DF-RHF Final Energy:  -567.34715529039954

   => Energetics <=

    Nuclear Repulsion Energy =            202.5348546393755669
    One-Electron Energy =               -1180.6202666770420819
    Two-Electron Energy =                 410.7382567472669734
    Total Energy =                       -567.3471552903995416
  Basis Set: (AUG-CC-PVTZ AUX)
    Blend: AUG-CC-PVTZ-RI
    Molecular point group: c1

    Geometry (in Angstrom), charge = 0, multiplicity = 1:

       Center              X                  Y                   Z               Mass
    ------------   -----------------  -----------------  -----------------  -----------------
         S            1.182373071658     0.055495769993    -0.000223139125    31.972071174400
         N           -1.266420928342    -0.763895230007     0.000250860875    14.003074004430
         C           -0.065081928342     1.230368769993    -0.000030139125    12.000000000000
         C           -1.434596528342     0.599067069993     0.000258060875    12.000000000000
         C           -0.019132928342    -1.185126230007     0.000047860875    12.000000000000
         H            0.153515071658     2.289640769993    -0.000111139125     1.007825032230
         H           -2.245706928342     1.123348769993     0.000397860875     1.007825032230
         H            0.263111071658    -2.231384230007     0.000022860875     1.007825032230

  Basis Set: AUG-CC-PVTZ
    Blend: AUG-CC-PVTZ
  Basis Set: (AUG-CC-PVTZ AUX)
    Blend: AUG-CC-PVTZ-JKFIT
	 Reference Energy          =    -567.3471552903995416 [Eh]
	 Singles Energy            =      -0.0000000000000000 [Eh]
	 Same-Spin Energy          =      -0.2487900717605392 [Eh]
	 Opposite-Spin Energy      =      -0.7355795701237220 [Eh]
	 Correlation Energy        =      -0.9843696418842611 [Eh]
	 Total Energy              =    -568.3315249322838554 [Eh]

	 ================> DF-SCS-MP2 Energies <==================
	-----------------------------------------------------------
	 SCS Same-Spin Scale       =       0.3333333333333333 [-]
	 SCS Opposite-Spin Scale   =       1.2000000000000000 [-]
	 SCS Same-Spin Energy      =      -0.0829300239201797 [Eh]
	 SCS Opposite-Spin Energy  =      -0.8826954841484663 [Eh]
	 SCS Correlation Energy    =      -0.9656255080686460 [Eh]
	 SCS Total Energy          =    -568.3127807984682249 [Eh]
	-----------------------------------------------------------

  Dipole Moment: [D]
     X:     1.3071      Y:     1.1476      Z:    -0.0003     Total:     1.7394

*** Psi4 exiting successfully. Buy a developer a beer!
