                               Psi4 1.3.2 release

  ==> Input File <==

--------------------------------------------------------------------------
#psi4
#
memory 32 gb

molecule  {
0 1
  S        1.0935548     0.1215407    -0.0002078
  N       -1.2657710    -0.7786410     0.0002510
  C       -0.0644320     1.2156230    -0.0000300
  C       -1.2905570     0.5944340     0.0002340
  C       -0.0184830    -1.1998720     0.0000480
  H        0.1541650     2.2748950    -0.0001110
  H       -2.2450570     1.1086030     0.0003980
  H        0.2637610    -2.2461300     0.0000230
units angstrom
no_reorient  #important for SAPT in psi4, default
symmetry c1  #important for SAPT in psi4, default
}

set PROPERTIES_ORIGIN ["COM"]
properties('MP2/aug-cc-pvtz', properties = ['dipole'])
--------------------------------------------------------------------------

    Molecular point group: c1
  Charge       = 0
  Multiplicity = 1
  Basis Set: AUG-CC-PVTZ
    Blend: AUG-CC-PVTZ
  Basis Set: (AUG-CC-PVTZ AUX)
    Blend: AUG-CC-PVTZ-JKFIT

    Orbital Energies [Eh]
    ---------------------

    Doubly Occupied:

       1A    -91.998208     2A    -15.579075     3A    -11.308758
       4A    -11.270921     5A    -11.261922     6A     -9.002289
       7A     -6.683473     8A     -6.682660     9A     -6.681872
      10A     -1.287724    11A     -1.097218    12A     -0.998211
      13A     -0.800142    14A     -0.783234    15A     -0.704814
      16A     -0.595893    17A     -0.581567    18A     -0.571616
      19A     -0.508605    20A     -0.435926    21A     -0.402383
      22A     -0.336468

  @DF-RHF Final Energy:  -567.37302499675047

   => Energetics <=

    Nuclear Repulsion Energy =            208.6126407652147634
    One-Electron Energy =               -1192.8253723997879661
    Two-Electron Energy =                 416.8397066378228146
    Total Energy =                       -567.3730249967503596
  Basis Set: (AUG-CC-PVTZ AUX)
    Blend: AUG-CC-PVTZ-RI
    Molecular point group: c1

    Geometry (in Angstrom), charge = 0, multiplicity = 1:

       Center              X                  Y                   Z               Mass
    ------------   -----------------  -----------------  -----------------  -----------------
         S            1.106314600599     0.104469501648    -0.000210240051    31.972071174400
         N           -1.253011199401    -0.795712198352     0.000248559949    14.003074004430
         C           -0.051672199401     1.198551801648    -0.000032440051    12.000000000000
         C           -1.277797199401     0.577362801648     0.000231559949    12.000000000000
         C           -0.005723199401    -1.216943198352     0.000045559949    12.000000000000
         H            0.166924800599     2.257823801648    -0.000113440051     1.007825032230
         H           -2.232297199401     1.091531801648     0.000395559949     1.007825032230
         H            0.276520800599    -2.263201198352     0.000020559949     1.007825032230

  Basis Set: AUG-CC-PVTZ
    Blend: AUG-CC-PVTZ
  Basis Set: (AUG-CC-PVTZ AUX)
    Blend: AUG-CC-PVTZ-JKFIT
	 Reference Energy          =    -567.3730249967504733 [Eh]
	 Singles Energy            =      -0.0000000000000000 [Eh]
	 Same-Spin Energy          =      -0.2475571135315991 [Eh]
	 Opposite-Spin Energy      =      -0.7299768424632795 [Eh]
	 Correlation Energy        =      -0.9775339559948786 [Eh]
	 Total Energy              =    -568.3505589527453594 [Eh]

	 ================> DF-SCS-MP2 Energies <==================
	-----------------------------------------------------------
	 SCS Same-Spin Scale       =       0.3333333333333333 [-]
	 SCS Opposite-Spin Scale   =       1.2000000000000000 [-]
	 SCS Same-Spin Energy      =      -0.0825190378438664 [Eh]
	 SCS Opposite-Spin Energy  =      -0.8759722109559355 [Eh]
	 SCS Correlation Energy    =      -0.9584912487998019 [Eh]
	 SCS Total Energy          =    -568.3315162455502332 [Eh]
	-----------------------------------------------------------

  Dipole Moment: [D]
     X:     1.3989      Y:     1.2565      Z:    -0.0003     Total:     1.8804

*** Psi4 exiting successfully. Buy a developer a beer!
