                               Psi4 1.3.2 release

  ==> Input File <==

--------------------------------------------------------------------------
#psi4
#
memory 32 gb

molecule  {
0 1
  S        1.2033374     0.0627000    -0.0002277
  N       -1.2657710    -0.7786410     0.0002510
  C       -0.0644320     1.2156230    -0.0000300
  C       -1.2905570     0.5944340     0.0002340
  C       -0.0184830    -1.1998720     0.0000480
  H        0.1541650     2.2748950    -0.0001110
  H       -2.2450570     1.1086030     0.0003980
  H        0.2637610    -2.2461300     0.0000230
units angstrom
no_reorient  #important for SAPT in psi4, default
symmetry c1  #important for SAPT in psi4, default
}

set PROPERTIES_ORIGIN ["COM"]
properties('MP2/aug-cc-pvtz', properties = ['dipole'])
--------------------------------------------------------------------------

    Molecular point group: c1
  Charge       = 0
  Multiplicity = 1
  Basis Set: AUG-CC-PVTZ
    Blend: AUG-CC-PVTZ
  Basis Set: (AUG-CC-PVTZ AUX)
    Blend: AUG-CC-PVTZ-JKFIT

    Orbital Energies [Eh]
    ---------------------

    Doubly Occupied:

       1A    -92.003996     2A    -15.581100     3A    -11.317553
       4A    -11.275380     5A    -11.271769     6A     -9.004170
       7A     -6.685034     8A     -6.684487     9A     -6.683822
      10A     -1.279216    11A     -1.069783    12A     -1.000337
      13A     -0.805481    14A     -0.775174    15A     -0.698095
      16A     -0.597148    17A     -0.564795    18A     -0.560284
      19A     -0.511457    20A     -0.438265    21A     -0.395775
      22A     -0.341291

  @DF-RHF Final Energy:  -567.38165909143447

   => Energetics <=

    Nuclear Repulsion Energy =            203.9350452133294596
    One-Electron Energy =               -1183.5445854153749679
    Two-Electron Energy =                 412.2278811106110652
    Total Energy =                       -567.3816590914344715
  Basis Set: (AUG-CC-PVTZ AUX)
    Blend: AUG-CC-PVTZ-RI
    Molecular point group: c1

    Geometry (in Angstrom), charge = 0, multiplicity = 1:

       Center              X                  Y                   Z               Mass
    ------------   -----------------  -----------------  -----------------  -----------------
         S            1.174802682058     0.067761620302    -0.000222654703    31.972071174400
         N           -1.294305717942    -0.773579379698     0.000256045297    14.003074004430
         C           -0.092966717942     1.220684620302    -0.000024954703    12.000000000000
         C           -1.319091717942     0.599495620302     0.000239045297    12.000000000000
         C           -0.047017717942    -1.194810379698     0.000053045297    12.000000000000
         H            0.125630282058     2.279956620302    -0.000105954703     1.007825032230
         H           -2.273591717942     1.113664620302     0.000403045297     1.007825032230
         H            0.235226282058    -2.241068379698     0.000028045297     1.007825032230

  Basis Set: AUG-CC-PVTZ
    Blend: AUG-CC-PVTZ
  Basis Set: (AUG-CC-PVTZ AUX)
    Blend: AUG-CC-PVTZ-JKFIT
	 Reference Energy          =    -567.3816590914344715 [Eh]
	 Singles Energy            =      -0.0000000000000000 [Eh]
	 Same-Spin Energy          =      -0.2456794485499094 [Eh]
	 Opposite-Spin Energy      =      -0.7306809601634280 [Eh]
	 Correlation Energy        =      -0.9763604087133374 [Eh]
	 Total Energy              =    -568.3580195001478614 [Eh]

	 ================> DF-SCS-MP2 Energies <==================
	-----------------------------------------------------------
	 SCS Same-Spin Scale       =       0.3333333333333333 [-]
	 SCS Opposite-Spin Scale   =       1.2000000000000000 [-]
	 SCS Same-Spin Energy      =      -0.0818931495166365 [Eh]
	 SCS Opposite-Spin Energy  =      -0.8768171521961136 [Eh]
	 SCS Correlation Energy    =      -0.9587103017127501 [Eh]
	 SCS Total Energy          =    -568.3403693931471707 [Eh]
	-----------------------------------------------------------

  Dipole Moment: [D]
     X:     1.3338      Y:     1.1552      Z:    -0.0003     Total:     1.7645

*** Psi4 exiting successfully. Buy a developer a beer!
