                               Psi4 1.3.2 release

  ==> Input File <==

--------------------------------------------------------------------------
#psi4
#
memory 32 gb

molecule  {
0 1
  S        1.1830230     0.0407500    -0.0002230
  N       -1.2333491    -0.6926607     0.0002436
  C       -0.0644320     1.2156230    -0.0000300
  C       -1.2905570     0.5944340     0.0002340
  C       -0.0184830    -1.1998720     0.0000480
  H        0.1541650     2.2748950    -0.0001110
  H       -2.2450570     1.1086030     0.0003980
  H        0.2637610    -2.2461300     0.0000230
units angstrom
no_reorient  #important for SAPT in psi4, default
symmetry c1  #important for SAPT in psi4, default
}

set PROPERTIES_ORIGIN ["COM"]
properties('MP2/aug-cc-pvtz', properties = ['dipole'])
--------------------------------------------------------------------------

    Molecular point group: c1
  Charge       = 0
  Multiplicity = 1
  Basis Set: AUG-CC-PVTZ
    Blend: AUG-CC-PVTZ
  Basis Set: (AUG-CC-PVTZ AUX)
    Blend: AUG-CC-PVTZ-JKFIT

    Orbital Energies [Eh]
    ---------------------

    Doubly Occupied:

       1A    -92.003713     2A    -15.567619     3A    -11.312989
       4A    -11.267982     5A    -11.265634     6A     -9.004210
       7A     -6.685003     8A     -6.684609     9A     -6.683974
      10A     -1.301038    11A     -1.068367    12A     -1.010178
      13A     -0.813270    14A     -0.775156    15A     -0.702110
      16A     -0.615000    17A     -0.572096    18A     -0.566150
      19A     -0.507452    20A     -0.424326    21A     -0.396663
      22A     -0.338257

  @DF-RHF Final Energy:  -567.37643013006971

   => Energetics <=

    Nuclear Repulsion Energy =            206.8385382948782762
    One-Electron Energy =               -1189.2983389759726833
    Two-Electron Energy =                 415.0833705510248137
    Total Energy =                       -567.3764301300695934
  Basis Set: (AUG-CC-PVTZ AUX)
    Blend: AUG-CC-PVTZ-RI
    Molecular point group: c1

    Geometry (in Angstrom), charge = 0, multiplicity = 1:

       Center              X                  Y                   Z               Mass
    ------------   -----------------  -----------------  -----------------  -----------------
         S            1.156788168538     0.039903270967    -0.000218503488    31.972071174400
         N           -1.259583931462    -0.693507429033     0.000248096512    14.003074004430
         C           -0.090666831462     1.214776270967    -0.000025503488    12.000000000000
         C           -1.316791831462     0.593587270967     0.000238496512    12.000000000000
         C           -0.044717831462    -1.200718729033     0.000052496512    12.000000000000
         H            0.127930168538     2.274048270967    -0.000106503488     1.007825032230
         H           -2.271291831462     1.107756270967     0.000402496512     1.007825032230
         H            0.237526168538    -2.246976729033     0.000027496512     1.007825032230

  Basis Set: AUG-CC-PVTZ
    Blend: AUG-CC-PVTZ
  Basis Set: (AUG-CC-PVTZ AUX)
    Blend: AUG-CC-PVTZ-JKFIT
	 Reference Energy          =    -567.3764301300697070 [Eh]
	 Singles Energy            =      -0.0000000000000000 [Eh]
	 Same-Spin Energy          =      -0.2472975297051886 [Eh]
	 Opposite-Spin Energy      =      -0.7299591149352072 [Eh]
	 Correlation Energy        =      -0.9772566446403959 [Eh]
	 Total Energy              =    -568.3536867747101269 [Eh]

	 ================> DF-SCS-MP2 Energies <==================
	-----------------------------------------------------------
	 SCS Same-Spin Scale       =       0.3333333333333333 [-]
	 SCS Opposite-Spin Scale   =       1.2000000000000000 [-]
	 SCS Same-Spin Energy      =      -0.0824325099017295 [Eh]
	 SCS Opposite-Spin Energy  =      -0.8759509379222485 [Eh]
	 SCS Correlation Energy    =      -0.9583834478239781 [Eh]
	 SCS Total Energy          =    -568.3348135778936694 [Eh]
	-----------------------------------------------------------

  Dipole Moment: [D]
     X:     1.2544      Y:     1.0172      Z:    -0.0003     Total:     1.6150

*** Psi4 exiting successfully. Buy a developer a beer!
