                               Psi4 1.4a3.dev225

  ==> Input File <==

--------------------------------------------------------------------------
#psi4
#
memory 32 gb

molecule  {
0 1
  S        1.1830230     0.0407500    -0.0002230
  N       -1.2657710    -0.7786410     0.0002510
  C       -0.0644320     1.2156230    -0.0000300
  C       -1.2905570     0.5944340     0.0002340
  C       -0.0184830    -1.1998720     0.0000480
  H        0.1541650     2.2748950    -0.0001110
  H       -2.2450570     1.1086030     0.0003980
  H        0.2767837    -2.2944043     0.0000218
units angstrom
no_reorient  #important for SAPT in psi4, default
symmetry c1  #important for SAPT in psi4, default
}

set PROPERTIES_ORIGIN ["COM"]
properties('MP2/aug-cc-pvtz', properties = ['dipole'])
--------------------------------------------------------------------------

    Molecular point group: c1
  Charge       = 0
  Multiplicity = 1
  Basis Set: AUG-CC-PVTZ
    Blend: AUG-CC-PVTZ
  Basis Set: (AUG-CC-PVTZ AUX)
    Blend: AUG-CC-PVTZ-JKFIT

    Orbital Energies [Eh]
    ---------------------

    Doubly Occupied:

       1A    -92.003794     2A    -15.579184     3A    -11.319605
       4A    -11.275592     5A    -11.271217     6A     -9.004544
       7A     -6.685420     8A     -6.684908     9A     -6.684201
      10A     -1.280649    11A     -1.070956    12A     -1.001628
      13A     -0.801501    14A     -0.771780    15A     -0.696708
      16A     -0.592820    17A     -0.566834    18A     -0.562557
      19A     -0.510240    20A     -0.437480    21A     -0.394234
      22A     -0.343315

  @DF-RHF Final Energy:  -567.38039257942478

   => Energetics <=

    Nuclear Repulsion Energy =            204.5682172946555113
    One-Electron Energy =               -1184.8188864523053780
    Two-Electron Energy =                 412.8702765782251163
    Total Energy =                       -567.3803925794247789
  Basis Set: (AUG-CC-PVTZ AUX)
    Blend: AUG-CC-PVTZ-RI
    Molecular point group: c1

    Geometry (in Angstrom), charge = 0, multiplicity = 1:

       Center              X                  Y                   Z               Mass
    ------------   -----------------  -----------------  -----------------  -----------------
         S            1.161975095815     0.054640457850    -0.000219708371    31.972071174400
         N           -1.286818904185    -0.764750542150     0.000254291629    14.003074004430
         C           -0.085479904185     1.229513457850    -0.000026708371    12.000000000000
         C           -1.311604904185     0.608324457850     0.000237291629    12.000000000000
         C           -0.039530904185    -1.185981542150     0.000051291629    12.000000000000
         H            0.133117095815     2.288785457850    -0.000107708371     1.007825032230
         H           -2.266104904185     1.122493457850     0.000401291629     1.007825032230
         H            0.255735795815    -2.280513842150     0.000025091629     1.007825032230

  Basis Set: AUG-CC-PVTZ
    Blend: AUG-CC-PVTZ
  Basis Set: (AUG-CC-PVTZ AUX)
    Blend: AUG-CC-PVTZ-JKFIT
	 Reference Energy          =    -567.3803925794247789 [Eh]
	 Singles Energy            =      -0.0000000000000000 [Eh]
	 Same-Spin Energy          =      -0.2459023681442719 [Eh]
	 Opposite-Spin Energy      =      -0.7304351590944373 [Eh]
	 Correlation Energy        =      -0.9763375272387091 [Eh]
	 Total Energy              =    -568.3567301066634627 [Eh]

	 ================> DF-SCS-MP2 Energies <==================
	-----------------------------------------------------------
	 SCS Same-Spin Scale       =       0.3333333333333333 [-]
	 SCS Opposite-Spin Scale   =       1.2000000000000000 [-]
	 SCS Same-Spin Energy      =      -0.0819674560480906 [Eh]
	 SCS Opposite-Spin Energy  =      -0.8765221909133248 [Eh]
	 SCS Correlation Energy    =      -0.9584896469614155 [Eh]
	 SCS Total Energy          =    -568.3388822263862039 [Eh]
	-----------------------------------------------------------

  Dipole Moment: [D]
     X:     1.3665      Y:     1.1743      Z:    -0.0003     Total:     1.8018

*** Psi4 exiting successfully. Buy a developer a beer!
