                               Psi4 1.3.2 release

  ==> Input File <==

--------------------------------------------------------------------------
#psi4
#
memory 32 gb

molecule  {
0 1
  S        1.1830230     0.0407500    -0.0002230
  N       -1.2657710    -0.7786410     0.0002510
  C       -0.0644320     1.2156230    -0.0000300
  C       -1.2665898     0.5946574     0.0002300
  C       -0.0184830    -1.1998720     0.0000480
  H        0.1541650     2.2748950    -0.0001110
  H       -2.2450570     1.1086030     0.0003980
  H        0.2637610    -2.2461300     0.0000230
units angstrom
no_reorient  #important for SAPT in psi4, default
symmetry c1  #important for SAPT in psi4, default
}

set PROPERTIES_ORIGIN ["COM"]
properties('MP2/aug-cc-pvtz', properties = ['dipole'])
--------------------------------------------------------------------------

    Molecular point group: c1
  Charge       = 0
  Multiplicity = 1
  Basis Set: AUG-CC-PVTZ
    Blend: AUG-CC-PVTZ
  Basis Set: (AUG-CC-PVTZ AUX)
    Blend: AUG-CC-PVTZ-JKFIT

    Orbital Energies [Eh]
    ---------------------

    Doubly Occupied:

       1A    -92.002491     2A    -15.579001     3A    -11.315163
       4A    -11.273930     5A    -11.268489     6A     -9.003416
       7A     -6.684297     8A     -6.683798     9A     -6.683066
      10A     -1.282799    11A     -1.072764    12A     -1.005005
      13A     -0.805934    14A     -0.774098    15A     -0.699684
      16A     -0.590491    17A     -0.571084    18A     -0.564260
      19A     -0.508327    20A     -0.439783    21A     -0.393848
      22A     -0.346772

  @DF-RHF Final Energy:  -567.38299007761429

   => Energetics <=

    Nuclear Repulsion Energy =            205.2346064439178122
    One-Electron Energy =               -1186.1381895042388805
    Two-Electron Energy =                 413.5205929827068303
    Total Energy =                       -567.3829900776142949
  Basis Set: (AUG-CC-PVTZ AUX)
    Blend: AUG-CC-PVTZ-RI
    Molecular point group: c1

    Geometry (in Angstrom), charge = 0, multiplicity = 1:

       Center              X                  Y                   Z               Mass
    ------------   -----------------  -----------------  -----------------  -----------------
         S            1.158745845787     0.054036532189    -0.000219157884    31.972071174400
         N           -1.290048154213    -0.765354467811     0.000254842116    14.003074004430
         C           -0.088709154213     1.228909532189    -0.000026157884    12.000000000000
         C           -1.290866954213     0.607943932189     0.000233842116    12.000000000000
         C           -0.042760154213    -1.186585467811     0.000051842116    12.000000000000
         H            0.129887845787     2.288181532189    -0.000107157884     1.007825032230
         H           -2.269334154213     1.121889532189     0.000401842116     1.007825032230
         H            0.239483845787    -2.232843467811     0.000026842116     1.007825032230

  Basis Set: AUG-CC-PVTZ
    Blend: AUG-CC-PVTZ
  Basis Set: (AUG-CC-PVTZ AUX)
    Blend: AUG-CC-PVTZ-JKFIT
	 Reference Energy          =    -567.3829900776142949 [Eh]
	 Singles Energy            =      -0.0000000000000000 [Eh]
	 Same-Spin Energy          =      -0.2454326093398184 [Eh]
	 Opposite-Spin Energy      =      -0.7295948345089417 [Eh]
	 Correlation Energy        =      -0.9750274438487601 [Eh]
	 Total Energy              =    -568.3580175214630117 [Eh]

	 ================> DF-SCS-MP2 Energies <==================
	-----------------------------------------------------------
	 SCS Same-Spin Scale       =       0.3333333333333333 [-]
	 SCS Opposite-Spin Scale   =       1.2000000000000000 [-]
	 SCS Same-Spin Energy      =      -0.0818108697799395 [Eh]
	 SCS Opposite-Spin Energy  =      -0.8755138014107300 [Eh]
	 SCS Correlation Energy    =      -0.9573246711906694 [Eh]
	 SCS Total Energy          =    -568.3403147488049854 [Eh]
	-----------------------------------------------------------

  Dipole Moment: [D]
     X:     1.3793      Y:     1.1745      Z:    -0.0003     Total:     1.8116

*** Psi4 exiting successfully. Buy a developer a beer!
