                               Psi4 1.3.2 release

  ==> Input File <==

--------------------------------------------------------------------------
#psi4
#
memory 32 gb

molecule  {
0 1
  S        1.0467607     0.1595453    -0.0001998
  N       -1.2657710    -0.7786410     0.0002510
  C       -0.0644320     1.2156230    -0.0000300
  C       -1.2905570     0.5944340     0.0002340
  C       -0.0184830    -1.1998720     0.0000480
  H        0.1541650     2.2748950    -0.0001110
  H       -2.2450570     1.1086030     0.0003980
  H        0.2637610    -2.2461300     0.0000230
units angstrom
no_reorient  #important for SAPT in psi4, default
symmetry c1  #important for SAPT in psi4, default
}

set PROPERTIES_ORIGIN ["COM"]
properties('MP2/aug-cc-pvtz', properties = ['dipole'])
--------------------------------------------------------------------------

    Molecular point group: c1
  Charge       = 0
  Multiplicity = 1
  Basis Set: AUG-CC-PVTZ
    Blend: AUG-CC-PVTZ
  Basis Set: (AUG-CC-PVTZ AUX)
    Blend: AUG-CC-PVTZ-JKFIT

    Orbital Energies [Eh]
    ---------------------

    Doubly Occupied:

       1A    -91.994826     2A    -15.579097     3A    -11.305430
       4A    -11.268877     5A    -11.257185     6A     -9.001224
       7A     -6.682760     8A     -6.681365     9A     -6.680642
      10A     -1.292815    11A     -1.112303    12A     -0.995311
      13A     -0.798210    14A     -0.786573    15A     -0.708450
      16A     -0.600157    17A     -0.584366    18A     -0.577717
      19A     -0.505254    20A     -0.434324    21A     -0.407909
      22A     -0.332324

  @DF-RHF Final Energy:  -567.35780135183052

   => Energetics <=

    Nuclear Repulsion Energy =            210.7038344115595692
    One-Electron Energy =               -1196.9490313525391230
    Two-Electron Energy =                 418.8873955891490937
    Total Energy =                       -567.3578013518304033
  Basis Set: (AUG-CC-PVTZ AUX)
    Blend: AUG-CC-PVTZ-RI
    Molecular point group: c1

    Geometry (in Angstrom), charge = 0, multiplicity = 1:

       Center              X                  Y                   Z               Mass
    ------------   -----------------  -----------------  -----------------  -----------------
         S            1.077122013317     0.128178742827    -0.000205249236    31.972071174400
         N           -1.235409686683    -0.810007557173     0.000245550764    14.003074004430
         C           -0.034070686683     1.184256442827    -0.000035449236    12.000000000000
         C           -1.260195686683     0.563067442827     0.000228550764    12.000000000000
         C            0.011878313317    -1.231238557173     0.000042550764    12.000000000000
         H            0.184526313317     2.243528442827    -0.000116449236     1.007825032230
         H           -2.214695686683     1.077236442827     0.000392550764     1.007825032230
         H            0.294122313317    -2.277496557173     0.000017550764     1.007825032230

  Basis Set: AUG-CC-PVTZ
    Blend: AUG-CC-PVTZ
  Basis Set: (AUG-CC-PVTZ AUX)
    Blend: AUG-CC-PVTZ-JKFIT
	 Reference Energy          =    -567.3578013518305170 [Eh]
	 Singles Energy            =      -0.0000000000000000 [Eh]
	 Same-Spin Energy          =      -0.2486125163371654 [Eh]
	 Opposite-Spin Energy      =      -0.7302044198196291 [Eh]
	 Correlation Energy        =      -0.9788169361567945 [Eh]
	 Total Energy              =    -568.3366182879873350 [Eh]

	 ================> DF-SCS-MP2 Energies <==================
	-----------------------------------------------------------
	 SCS Same-Spin Scale       =       0.3333333333333333 [-]
	 SCS Opposite-Spin Scale   =       1.2000000000000000 [-]
	 SCS Same-Spin Energy      =      -0.0828708387790551 [Eh]
	 SCS Opposite-Spin Energy  =      -0.8762453037835549 [Eh]
	 SCS Correlation Energy    =      -0.9591161425626100 [Eh]
	 SCS Total Energy          =    -568.3169174943931239 [Eh]
	-----------------------------------------------------------

  Dipole Moment: [D]
     X:     1.4004      Y:     1.3150      Z:    -0.0003     Total:     1.9210

*** Psi4 exiting successfully. Buy a developer a beer!
