                               Psi4 1.3.2 release

  ==> Input File <==

--------------------------------------------------------------------------
#psi4
#
memory 32 gb

molecule  {
0 1
  S        1.1412606    -0.0020699    -0.0002135
  N       -1.2657710    -0.7786410     0.0002510
  C       -0.0644320     1.2156230    -0.0000300
  C       -1.2905570     0.5944340     0.0002340
  C       -0.0184830    -1.1998720     0.0000480
  H        0.1541650     2.2748950    -0.0001110
  H       -2.2450570     1.1086030     0.0003980
  H        0.2637610    -2.2461300     0.0000230
units angstrom
no_reorient  #important for SAPT in psi4, default
symmetry c1  #important for SAPT in psi4, default
}

set PROPERTIES_ORIGIN ["COM"]
properties('MP2/aug-cc-pvtz', properties = ['dipole'])
--------------------------------------------------------------------------

    Molecular point group: c1
  Charge       = 0
  Multiplicity = 1
  Basis Set: AUG-CC-PVTZ
    Blend: AUG-CC-PVTZ
  Basis Set: (AUG-CC-PVTZ AUX)
    Blend: AUG-CC-PVTZ-JKFIT

    Orbital Energies [Eh]
    ---------------------

    Doubly Occupied:

       1A    -92.002027     2A    -15.574764     3A    -11.308142
       4A    -11.275275     5A    -11.269933     6A     -9.004260
       7A     -6.685239     8A     -6.684669     9A     -6.683931
      10A     -1.284195    11A     -1.073180    12A     -1.010652
      13A     -0.802860    14A     -0.780354    15A     -0.697915
      16A     -0.594614    17A     -0.579100    18A     -0.567239
      19A     -0.507124    20A     -0.436605    21A     -0.390570
      22A     -0.347491

  @DF-RHF Final Energy:  -567.38221830112923

   => Energetics <=

    Nuclear Repulsion Energy =            206.6666870950236898
    One-Electron Energy =               -1188.9775347061249704
    Two-Electron Energy =                 414.9286293099721092
    Total Energy =                       -567.3822183011291145
  Basis Set: (AUG-CC-PVTZ AUX)
    Blend: AUG-CC-PVTZ-RI
    Molecular point group: c1

    Geometry (in Angstrom), charge = 0, multiplicity = 1:

       Center              X                  Y                   Z               Mass
    ------------   -----------------  -----------------  -----------------  -----------------
         S            1.136075953641     0.027354796385    -0.000213796006    31.972071174400
         N           -1.270955646359    -0.749216303615     0.000250703994    14.003074004430
         C           -0.069616646359     1.245047696385    -0.000030296006    12.000000000000
         C           -1.295741646359     0.623858696385     0.000233703994    12.000000000000
         C           -0.023667646359    -1.170447303615     0.000047703994    12.000000000000
         H            0.148980353641     2.304319696385    -0.000111296006     1.007825032230
         H           -2.250241646359     1.138027696385     0.000397703994     1.007825032230
         H            0.258576353641    -2.216705303615     0.000022703994     1.007825032230

  Basis Set: AUG-CC-PVTZ
    Blend: AUG-CC-PVTZ
  Basis Set: (AUG-CC-PVTZ AUX)
    Blend: AUG-CC-PVTZ-JKFIT
	 Reference Energy          =    -567.3822183011292282 [Eh]
	 Singles Energy            =      -0.0000000000000000 [Eh]
	 Same-Spin Energy          =      -0.2461165418698946 [Eh]
	 Opposite-Spin Energy      =      -0.7293677831062637 [Eh]
	 Correlation Energy        =      -0.9754843249761583 [Eh]
	 Total Energy              =    -568.3577026261053788 [Eh]

	 ================> DF-SCS-MP2 Energies <==================
	-----------------------------------------------------------
	 SCS Same-Spin Scale       =       0.3333333333333333 [-]
	 SCS Opposite-Spin Scale   =       1.2000000000000000 [-]
	 SCS Same-Spin Energy      =      -0.0820388472899649 [Eh]
	 SCS Opposite-Spin Energy  =      -0.8752413397275164 [Eh]
	 SCS Correlation Energy    =      -0.9572801870174813 [Eh]
	 SCS Total Energy          =    -568.3394984881466598 [Eh]
	-----------------------------------------------------------

  Dipole Moment: [D]
     X:     1.4260      Y:     1.2130      Z:    -0.0003     Total:     1.8721

*** Psi4 exiting successfully. Buy a developer a beer!
