                               Psi4 1.3.2 release

  ==> Input File <==

--------------------------------------------------------------------------
#psi4
#
memory 32 gb

molecule  {
0 1
  S        1.1830230     0.0407500    -0.0002230
  N       -1.2657710    -0.7786410     0.0002510
  C       -0.0434997     1.1724534    -0.0000323
  C       -1.2905570     0.5944340     0.0002340
  C       -0.0184830    -1.1998720     0.0000480
  H        0.1541650     2.2748950    -0.0001110
  H       -2.2450570     1.1086030     0.0003980
  H        0.2637610    -2.2461300     0.0000230
units angstrom
no_reorient  #important for SAPT in psi4, default
symmetry c1  #important for SAPT in psi4, default
}

set PROPERTIES_ORIGIN ["COM"]
properties('MP2/aug-cc-pvtz', properties = ['dipole'])
--------------------------------------------------------------------------

    Molecular point group: c1
  Charge       = 0
  Multiplicity = 1
  Basis Set: AUG-CC-PVTZ
    Blend: AUG-CC-PVTZ
  Basis Set: (AUG-CC-PVTZ AUX)
    Blend: AUG-CC-PVTZ-JKFIT

    Orbital Energies [Eh]
    ---------------------

    Doubly Occupied:

       1A    -92.004150     2A    -15.578466     3A    -11.311382
       4A    -11.273262     5A    -11.270383     6A     -9.005852
       7A     -6.686789     8A     -6.686226     9A     -6.685467
      10A     -1.282402    11A     -1.078723    12A     -1.001314
      13A     -0.799553    14A     -0.776944    15A     -0.696375
      16A     -0.594559    17A     -0.565066    18A     -0.561132
      19A     -0.518705    20A     -0.437648    21A     -0.397341
      22A     -0.340184

  @DF-RHF Final Energy:  -567.37937077957645

   => Energetics <=

    Nuclear Repulsion Energy =            205.7620930382888673
    One-Electron Energy =               -1187.1790819247148647
    Two-Electron Energy =                 414.0376181068494930
    Total Energy =                       -567.3793707795764476
  Basis Set: (AUG-CC-PVTZ AUX)
    Blend: AUG-CC-PVTZ-RI
    Molecular point group: c1

    Geometry (in Angstrom), charge = 0, multiplicity = 1:

       Center              X                  Y                   Z               Mass
    ------------   -----------------  -----------------  -----------------  -----------------
         S            1.159174309212     0.060162702217    -0.000219397888    31.972071174400
         N           -1.289619690788    -0.759228297783     0.000254602112    14.003074004430
         C           -0.067348390788     1.191866102217    -0.000028697888    12.000000000000
         C           -1.314405690788     0.613846702217     0.000237602112    12.000000000000
         C           -0.042331690788    -1.180459297783     0.000051602112    12.000000000000
         H            0.130316309212     2.294307702217    -0.000107397888     1.007825032230
         H           -2.268905690788     1.128015702217     0.000401602112     1.007825032230
         H            0.239912309212    -2.226717297783     0.000026602112     1.007825032230

  Basis Set: AUG-CC-PVTZ
    Blend: AUG-CC-PVTZ
  Basis Set: (AUG-CC-PVTZ AUX)
    Blend: AUG-CC-PVTZ-JKFIT
	 Reference Energy          =    -567.3793707795764476 [Eh]
	 Singles Energy            =      -0.0000000000000000 [Eh]
	 Same-Spin Energy          =      -0.2465347231600047 [Eh]
	 Opposite-Spin Energy      =      -0.7305878848190426 [Eh]
	 Correlation Energy        =      -0.9771226079790474 [Eh]
	 Total Energy              =    -568.3564933875554743 [Eh]

	 ================> DF-SCS-MP2 Energies <==================
	-----------------------------------------------------------
	 SCS Same-Spin Scale       =       0.3333333333333333 [-]
	 SCS Opposite-Spin Scale   =       1.2000000000000000 [-]
	 SCS Same-Spin Energy      =      -0.0821782410533349 [Eh]
	 SCS Opposite-Spin Energy  =      -0.8767054617828510 [Eh]
	 SCS Correlation Energy    =      -0.9588837028361860 [Eh]
	 SCS Total Energy          =    -568.3382544824125944 [Eh]
	-----------------------------------------------------------

  Dipole Moment: [D]
     X:     1.4197      Y:     1.1776      Z:    -0.0003     Total:     1.8446

*** Psi4 exiting successfully. Buy a developer a beer!
