                               Psi4 1.3.2 release

  ==> Input File <==

--------------------------------------------------------------------------
#psi4
#
memory 32 gb

molecule  {
0 1
  S        1.1830230     0.0407500    -0.0002230
  N       -1.2657710    -0.7786410     0.0002510
  C       -0.0644320     1.2156230    -0.0000300
  C       -1.2905570     0.5944340     0.0002340
  C       -0.1576213    -1.3435401     0.0000794
  H        0.1541650     2.2748950    -0.0001110
  H       -2.2450570     1.1086030     0.0003980
  H        0.2637610    -2.2461300     0.0000230
units angstrom
no_reorient  #important for SAPT in psi4, default
symmetry c1  #important for SAPT in psi4, default
}

set PROPERTIES_ORIGIN ["COM"]
properties('MP2/aug-cc-pvtz', properties = ['dipole'])
--------------------------------------------------------------------------

    Molecular point group: c1
  Charge       = 0
  Multiplicity = 1
  Basis Set: AUG-CC-PVTZ
    Blend: AUG-CC-PVTZ
  Basis Set: (AUG-CC-PVTZ AUX)
    Blend: AUG-CC-PVTZ-JKFIT

    Orbital Energies [Eh]
    ---------------------

    Doubly Occupied:

       1A    -91.982697     2A    -15.586934     3A    -11.323219
       4A    -11.279913     5A    -11.276060     6A     -8.982253
       7A     -6.663133     8A     -6.662384     9A     -6.661867
      10A     -1.296190    11A     -1.068524    12A     -0.993383
      13A     -0.822821    14A     -0.794128    15A     -0.697488
      16A     -0.637335    17A     -0.564018    18A     -0.559550
      19A     -0.498465    20A     -0.404912    21A     -0.404309
      22A     -0.334534

  @DF-RHF Final Energy:  -567.35868100874177

   => Energetics <=

    Nuclear Repulsion Energy =            202.3444882626417893
    One-Electron Energy =               -1180.4181021346707894
    Two-Electron Energy =                 410.7149328632871175
    Total Energy =                       -567.3586810087418826
  Basis Set: (AUG-CC-PVTZ AUX)
    Blend: AUG-CC-PVTZ-RI
    Molecular point group: c1

    Geometry (in Angstrom), charge = 0, multiplicity = 1:

       Center              X                  Y                   Z               Mass
    ------------   -----------------  -----------------  -----------------  -----------------
         S            1.181772878386     0.074350956051    -0.000224155612    31.972071174400
         N           -1.267021121614    -0.745040043949     0.000249844388    14.003074004430
         C           -0.065682121614     1.249223956051    -0.000031155612    12.000000000000
         C           -1.291807121614     0.628034956051     0.000232844388    12.000000000000
         C           -0.158871421614    -1.309939143949     0.000078244388    12.000000000000
         H            0.152914878386     2.308495956051    -0.000112155612     1.007825032230
         H           -2.246307121614     1.142203956051     0.000396844388     1.007825032230
         H            0.262510878386    -2.212529043949     0.000021844388     1.007825032230

  Basis Set: AUG-CC-PVTZ
    Blend: AUG-CC-PVTZ
  Basis Set: (AUG-CC-PVTZ AUX)
    Blend: AUG-CC-PVTZ-JKFIT
	 Reference Energy          =    -567.3586810087417689 [Eh]
	 Singles Energy            =      -0.0000000000000000 [Eh]
	 Same-Spin Energy          =      -0.2447142671608712 [Eh]
	 Opposite-Spin Energy      =      -0.7302805395559421 [Eh]
	 Correlation Energy        =      -0.9749948067168133 [Eh]
	 Total Energy              =    -568.3336758154586050 [Eh]

	 ================> DF-SCS-MP2 Energies <==================
	-----------------------------------------------------------
	 SCS Same-Spin Scale       =       0.3333333333333333 [-]
	 SCS Opposite-Spin Scale   =       1.2000000000000000 [-]
	 SCS Same-Spin Energy      =      -0.0815714223869571 [Eh]
	 SCS Opposite-Spin Energy  =      -0.8763366474671305 [Eh]
	 SCS Correlation Energy    =      -0.9579080698540876 [Eh]
	 SCS Total Energy          =    -568.3165890785958254 [Eh]
	-----------------------------------------------------------

  Dipole Moment: [D]
     X:     0.5870      Y:     0.6616      Z:    -0.0001     Total:     0.8845

*** Psi4 exiting successfully. Buy a developer a beer!
