                               Psi4 1.4a3.dev225

  ==> Input File <==

--------------------------------------------------------------------------
#psi4
#
memory 32 gb

molecule  {
0 1
  S        1.1830230     0.0407500    -0.0002230
  N       -1.2657710    -0.7786410     0.0002510
  C       -0.0644320     1.2156230    -0.0000300
  C       -1.2905570     0.5944340     0.0002340
  C       -0.0184830    -1.1998720     0.0000480
  H        0.1501229     2.2553077    -0.0001095
  H       -2.2450570     1.1086030     0.0003980
  H        0.2637610    -2.2461300     0.0000230
units angstrom
no_reorient  #important for SAPT in psi4, default
symmetry c1  #important for SAPT in psi4, default
}

set PROPERTIES_ORIGIN ["COM"]
properties('MP2/aug-cc-pvtz', properties = ['dipole'])
--------------------------------------------------------------------------

    Molecular point group: c1
  Charge       = 0
  Multiplicity = 1
  Basis Set: AUG-CC-PVTZ
    Blend: AUG-CC-PVTZ
  Basis Set: (AUG-CC-PVTZ AUX)
    Blend: AUG-CC-PVTZ-JKFIT

    Orbital Energies [Eh]
    ---------------------

    Doubly Occupied:

       1A    -92.003344     2A    -15.578919     3A    -11.314494
       4A    -11.275255     5A    -11.269088     6A     -9.004135
       7A     -6.685020     8A     -6.684506     9A     -6.683808
      10A     -1.280546    11A     -1.071231    12A     -1.003997
      13A     -0.806352    14A     -0.777627    15A     -0.699816
      16A     -0.596425    17A     -0.571714    18A     -0.562335
      19A     -0.510096    20A     -0.437862    21A     -0.393999
      22A     -0.343284

  @DF-RHF Final Energy:  -567.38298844666554

   => Energetics <=

    Nuclear Repulsion Energy =            204.9194307117897438
    One-Electron Energy =               -1185.4971355323173157
    Two-Electron Energy =                 413.1947163738619224
    Total Energy =                       -567.3829884466656495
  Basis Set: (AUG-CC-PVTZ AUX)
    Blend: AUG-CC-PVTZ-RI
    Molecular point group: c1

    Geometry (in Angstrom), charge = 0, multiplicity = 1:

       Center              X                  Y                   Z               Mass
    ------------   -----------------  -----------------  -----------------  -----------------
         S            1.162177432425     0.054300317309    -0.000219740385    31.972071174400
         N           -1.286616567575    -0.765090682691     0.000254259615    14.003074004430
         C           -0.085277567575     1.229173317309    -0.000026740385    12.000000000000
         C           -1.311402567575     0.607984317309     0.000237259615    12.000000000000
         C           -0.039328567575    -1.186321682691     0.000051259615    12.000000000000
         H            0.129277332425     2.268858017309    -0.000106240385     1.007825032230
         H           -2.265902567575     1.122153317309     0.000401259615     1.007825032230
         H            0.242915432425    -2.232579682691     0.000026259615     1.007825032230

  Basis Set: AUG-CC-PVTZ
    Blend: AUG-CC-PVTZ
  Basis Set: (AUG-CC-PVTZ AUX)
    Blend: AUG-CC-PVTZ-JKFIT
	 Reference Energy          =    -567.3829884466655358 [Eh]
	 Singles Energy            =      -0.0000000000000000 [Eh]
	 Same-Spin Energy          =      -0.2457488898784840 [Eh]
	 Opposite-Spin Energy      =      -0.7301018433352466 [Eh]
	 Correlation Energy        =      -0.9758507332137306 [Eh]
	 Total Energy              =    -568.3588391798792827 [Eh]

	 ================> DF-SCS-MP2 Energies <==================
	-----------------------------------------------------------
	 SCS Same-Spin Scale       =       0.3333333333333333 [-]
	 SCS Opposite-Spin Scale   =       1.2000000000000000 [-]
	 SCS Same-Spin Energy      =      -0.0819162966261613 [Eh]
	 SCS Opposite-Spin Energy  =      -0.8761222120022959 [Eh]
	 SCS Correlation Energy    =      -0.9580385086284572 [Eh]
	 SCS Total Energy          =    -568.3410269552939553 [Eh]
	-----------------------------------------------------------

  Dipole Moment: [D]
     X:     1.3667      Y:     1.1745      Z:    -0.0003     Total:     1.8020

*** Psi4 exiting successfully. Buy a developer a beer!
