                               Psi4 1.4a3.dev225

  ==> Input File <==

--------------------------------------------------------------------------
#psi4
#
memory 32 gb

molecule  {
0 1
  S        1.1830230     0.0407500    -0.0002230
  N       -1.2657710    -0.7786410     0.0002510
  C       -0.0644320     1.2156230    -0.0000300
  C       -1.2905570     0.5944340     0.0002340
  C       -0.0184830    -1.1998720     0.0000480
  H        0.1582071     2.2944823    -0.0001125
  H       -2.2450570     1.1086030     0.0003980
  H        0.2637610    -2.2461300     0.0000230
units angstrom
no_reorient  #important for SAPT in psi4, default
symmetry c1  #important for SAPT in psi4, default
}

set PROPERTIES_ORIGIN ["COM"]
properties('MP2/aug-cc-pvtz', properties = ['dipole'])
--------------------------------------------------------------------------

    Molecular point group: c1
  Charge       = 0
  Multiplicity = 1
  Basis Set: AUG-CC-PVTZ
    Blend: AUG-CC-PVTZ
  Basis Set: (AUG-CC-PVTZ AUX)
    Blend: AUG-CC-PVTZ-JKFIT

    Orbital Energies [Eh]
    ---------------------

    Doubly Occupied:

       1A    -92.003574     2A    -15.579090     3A    -11.314538
       4A    -11.275487     5A    -11.273173     6A     -9.004345
       7A     -6.685225     8A     -6.684714     9A     -6.684011
      10A     -1.280657    11A     -1.070320    12A     -1.003398
      13A     -0.802925    14A     -0.776267    15A     -0.696243
      16A     -0.596091    17A     -0.567274    18A     -0.562456
      19A     -0.510239    20A     -0.437925    21A     -0.394073
      22A     -0.343315

  @DF-RHF Final Energy:  -567.38220878930144

   => Energetics <=

    Nuclear Repulsion Energy =            204.7172429893044523
    One-Electron Energy =               -1185.1082233668569188
    Two-Electron Energy =                 413.0087715882510793
    Total Energy =                       -567.3822087893014441
  Basis Set: (AUG-CC-PVTZ AUX)
    Blend: AUG-CC-PVTZ-RI
    Molecular point group: c1

    Geometry (in Angstrom), charge = 0, multiplicity = 1:

       Center              X                  Y                   Z               Mass
    ------------   -----------------  -----------------  -----------------  -----------------
         S            1.162081578408     0.053835825739    -0.000219704814    31.972071174400
         N           -1.286712421592    -0.765555174261     0.000254295186    14.003074004430
         C           -0.085373421592     1.228708825739    -0.000026704814    12.000000000000
         C           -1.311498421592     0.607519825739     0.000237295186    12.000000000000
         C           -0.039424421592    -1.186786174261     0.000051295186    12.000000000000
         H            0.137265678408     2.307568125739    -0.000109204814     1.007825032230
         H           -2.265998421592     1.121688825739     0.000401295186     1.007825032230
         H            0.242819578408    -2.233044174261     0.000026295186     1.007825032230

  Basis Set: AUG-CC-PVTZ
    Blend: AUG-CC-PVTZ
  Basis Set: (AUG-CC-PVTZ AUX)
    Blend: AUG-CC-PVTZ-JKFIT
	 Reference Energy          =    -567.3822087893014441 [Eh]
	 Singles Energy            =      -0.0000000000000000 [Eh]
	 Same-Spin Energy          =      -0.2458340783098548 [Eh]
	 Opposite-Spin Energy      =      -0.7302872304639939 [Eh]
	 Correlation Energy        =      -0.9761213087738487 [Eh]
	 Total Energy              =    -568.3583300980752711 [Eh]

	 ================> DF-SCS-MP2 Energies <==================
	-----------------------------------------------------------
	 SCS Same-Spin Scale       =       0.3333333333333333 [-]
	 SCS Opposite-Spin Scale   =       1.2000000000000000 [-]
	 SCS Same-Spin Energy      =      -0.0819446927699516 [Eh]
	 SCS Opposite-Spin Energy  =      -0.8763446765567927 [Eh]
	 SCS Correlation Energy    =      -0.9582893693267442 [Eh]
	 SCS Total Energy          =    -568.3404981586281792 [Eh]
	-----------------------------------------------------------

  Dipole Moment: [D]
     X:     1.3698      Y:     1.1809      Z:    -0.0003     Total:     1.8086

*** Psi4 exiting successfully. Buy a developer a beer!
