                               Psi4 1.3.2 release

  ==> Input File <==

--------------------------------------------------------------------------
#psi4
#
memory 32 gb

molecule  {
0 1
  S        1.1830230     0.0407500    -0.0002230
  N       -1.2657710    -0.7786410     0.0002510
  C       -0.0062169     1.0840551    -0.0000358
  C       -1.2905570     0.5944340     0.0002340
  C       -0.0184830    -1.1998720     0.0000480
  H        0.1541650     2.2748950    -0.0001110
  H       -2.2450570     1.1086030     0.0003980
  H        0.2637610    -2.2461300     0.0000230
units angstrom
no_reorient  #important for SAPT in psi4, default
symmetry c1  #important for SAPT in psi4, default
}

set PROPERTIES_ORIGIN ["COM"]
properties('MP2/aug-cc-pvtz', properties = ['dipole'])
--------------------------------------------------------------------------

    Molecular point group: c1
  Charge       = 0
  Multiplicity = 1
  Basis Set: AUG-CC-PVTZ
    Blend: AUG-CC-PVTZ
  Basis Set: (AUG-CC-PVTZ AUX)
    Blend: AUG-CC-PVTZ-JKFIT

    Orbital Energies [Eh]
    ---------------------

    Doubly Occupied:

       1A    -92.004706     2A    -15.577654     3A    -11.305046
       4A    -11.270669     5A    -11.269263     6A     -9.008875
       7A     -6.690092     8A     -6.689051     9A     -6.688270
      10A     -1.287750    11A     -1.097222    12A     -0.996518
      13A     -0.792939    14A     -0.776243    15A     -0.695936
      16A     -0.592016    17A     -0.572130    18A     -0.551343
      19A     -0.521436    20A     -0.437024    21A     -0.404516
      22A     -0.334163

  @DF-RHF Final Energy:  -567.35609595259382

   => Energetics <=

    Nuclear Repulsion Energy =            207.7843984086518105
    One-Electron Energy =               -1191.1552671639560685
    Two-Electron Energy =                 416.0147728027104677
    Total Energy =                       -567.3560959525938188
  Basis Set: (AUG-CC-PVTZ AUX)
    Blend: AUG-CC-PVTZ-RI
    Molecular point group: c1

    Geometry (in Angstrom), charge = 0, multiplicity = 1:

       Center              X                  Y                   Z               Mass
    ------------   -----------------  -----------------  -----------------  -----------------
         S            1.153910769657     0.072642664792    -0.000218903762    31.972071174400
         N           -1.294883230343    -0.746748335208     0.000255096238    14.003074004430
         C           -0.035329130343     1.115947764792    -0.000031703762    12.000000000000
         C           -1.319669230343     0.626326664792     0.000238096238    12.000000000000
         C           -0.047595230343    -1.167979335208     0.000052096238    12.000000000000
         H            0.125052769657     2.306787664792    -0.000106903762     1.007825032230
         H           -2.274169230343     1.140495664792     0.000402096238     1.007825032230
         H            0.234648769657    -2.214237335208     0.000027096238     1.007825032230

  Basis Set: AUG-CC-PVTZ
    Blend: AUG-CC-PVTZ
  Basis Set: (AUG-CC-PVTZ AUX)
    Blend: AUG-CC-PVTZ-JKFIT
	 Reference Energy          =    -567.3560959525938188 [Eh]
	 Singles Energy            =      -0.0000000000000000 [Eh]
	 Same-Spin Energy          =      -0.2484074673701892 [Eh]
	 Opposite-Spin Energy      =      -0.7322502807403894 [Eh]
	 Correlation Energy        =      -0.9806577481105787 [Eh]
	 Total Energy              =    -568.3367537007044348 [Eh]

	 ================> DF-SCS-MP2 Energies <==================
	-----------------------------------------------------------
	 SCS Same-Spin Scale       =       0.3333333333333333 [-]
	 SCS Opposite-Spin Scale   =       1.2000000000000000 [-]
	 SCS Same-Spin Energy      =      -0.0828024891233964 [Eh]
	 SCS Opposite-Spin Energy  =      -0.8787003368884673 [Eh]
	 SCS Correlation Energy    =      -0.9615028260118637 [Eh]
	 SCS Total Energy          =    -568.3175987786056567 [Eh]
	-----------------------------------------------------------

  Dipole Moment: [D]
     X:     1.5179      Y:     1.1713      Z:    -0.0003     Total:     1.9173

*** Psi4 exiting successfully. Buy a developer a beer!
