                               Psi4 1.4a3.dev225

  ==> Input File <==

--------------------------------------------------------------------------
#psi4
#
memory 32 gb

molecule  {
0 1
  S        1.1830230     0.0407500    -0.0002230
  N       -1.2657710    -0.7786410     0.0002510
  C       -0.0644320     1.2156230    -0.0000300
  C       -1.2905570     0.5944340     0.0002340
  C       -0.0184830    -1.1998720     0.0000480
  H        0.1440597     2.2259268    -0.0001073
  H       -2.2450570     1.1086030     0.0003980
  H        0.2637610    -2.2461300     0.0000230
units angstrom
no_reorient  #important for SAPT in psi4, default
symmetry c1  #important for SAPT in psi4, default
}

set PROPERTIES_ORIGIN ["COM"]
properties('MP2/aug-cc-pvtz', properties = ['dipole'])
--------------------------------------------------------------------------

    Molecular point group: c1
  Charge       = 0
  Multiplicity = 1
  Basis Set: AUG-CC-PVTZ
    Blend: AUG-CC-PVTZ
  Basis Set: (AUG-CC-PVTZ AUX)
    Blend: AUG-CC-PVTZ-JKFIT

    Orbital Energies [Eh]
    ---------------------

    Doubly Occupied:

       1A    -92.003192     2A    -15.578805     3A    -11.314480
       4A    -11.275189     5A    -11.265857     6A     -9.003997
       7A     -6.684885     8A     -6.684370     9A     -6.683674
      10A     -1.280482    11A     -1.072048    12A     -1.004523
      13A     -0.809535    14A     -0.778571    15A     -0.702469
      16A     -0.596760    17A     -0.574721    18A     -0.562261
      19A     -0.510005    20A     -0.437824    21A     -0.393959
      22A     -0.343281

  @DF-RHF Final Energy:  -567.38201791066149

   => Energetics <=

    Nuclear Repulsion Energy =            205.0779251197172357
    One-Electron Energy =               -1185.7981127297805415
    Two-Electron Energy =                 413.3381696994016465
    Total Energy =                       -567.3820179106616024
  Basis Set: (AUG-CC-PVTZ AUX)
    Blend: AUG-CC-PVTZ-RI
    Molecular point group: c1

    Geometry (in Angstrom), charge = 0, multiplicity = 1:

       Center              X                  Y                   Z               Mass
    ------------   -----------------  -----------------  -----------------  -----------------
         S            1.162249323530     0.054648685393    -0.000219766470    31.972071174400
         N           -1.286544676470    -0.764742314607     0.000254233530    14.003074004430
         C           -0.085205676470     1.229521685393    -0.000026766470    12.000000000000
         C           -1.311330676470     0.608332685393     0.000237233530    12.000000000000
         C           -0.039256676470    -1.185973314607     0.000051233530    12.000000000000
         H            0.123286023530     2.239825485393    -0.000104066470     1.007825032230
         H           -2.265830676470     1.122501685393     0.000401233530     1.007825032230
         H            0.242987323530    -2.232231314607     0.000026233530     1.007825032230

  Basis Set: AUG-CC-PVTZ
    Blend: AUG-CC-PVTZ
  Basis Set: (AUG-CC-PVTZ AUX)
    Blend: AUG-CC-PVTZ-JKFIT
	 Reference Energy          =    -567.3820179106614887 [Eh]
	 Singles Energy            =      -0.0000000000000000 [Eh]
	 Same-Spin Energy          =      -0.2456933423999516 [Eh]
	 Opposite-Spin Energy      =      -0.7300136388465697 [Eh]
	 Correlation Energy        =      -0.9757069812465212 [Eh]
	 Total Energy              =    -568.3577248919079921 [Eh]

	 ================> DF-SCS-MP2 Energies <==================
	-----------------------------------------------------------
	 SCS Same-Spin Scale       =       0.3333333333333333 [-]
	 SCS Opposite-Spin Scale   =       1.2000000000000000 [-]
	 SCS Same-Spin Energy      =      -0.0818977807999838 [Eh]
	 SCS Opposite-Spin Energy  =      -0.8760163666158836 [Eh]
	 SCS Correlation Energy    =      -0.9579141474158674 [Eh]
	 SCS Total Energy          =    -568.3399320580773519 [Eh]
	-----------------------------------------------------------

  Dipole Moment: [D]
     X:     1.3643      Y:     1.1688      Z:    -0.0003     Total:     1.7966

*** Psi4 exiting successfully. Buy a developer a beer!
