                               Psi4 1.3.2 release

  ==> Input File <==

--------------------------------------------------------------------------
#psi4
#
memory 32 gb

molecule  {
0 1
  S        1.1830230     0.0407500    -0.0002230
  N       -1.2657710    -0.7786410     0.0002510
  C       -0.0644320     1.2156230    -0.0000300
  C       -1.3384615     0.5927325     0.0002421
  C       -0.0184830    -1.1998720     0.0000480
  H        0.1541650     2.2748950    -0.0001110
  H       -2.2450570     1.1086030     0.0003980
  H        0.2637610    -2.2461300     0.0000230
units angstrom
no_reorient  #important for SAPT in psi4, default
symmetry c1  #important for SAPT in psi4, default
}

set PROPERTIES_ORIGIN ["COM"]
properties('MP2/aug-cc-pvtz', properties = ['dipole'])
--------------------------------------------------------------------------

    Molecular point group: c1
  Charge       = 0
  Multiplicity = 1
  Basis Set: AUG-CC-PVTZ
    Blend: AUG-CC-PVTZ
  Basis Set: (AUG-CC-PVTZ AUX)
    Blend: AUG-CC-PVTZ-JKFIT

    Orbital Energies [Eh]
    ---------------------

    Doubly Occupied:

       1A    -92.005506     2A    -15.579285     3A    -11.313260
       4A    -11.278289     5A    -11.276475     6A     -9.006005
       7A     -6.686882     8A     -6.686350     9A     -6.685709
      10A     -1.276491    11A     -1.067855    12A     -1.001007
      13A     -0.802375    14A     -0.783180    15A     -0.694213
      16A     -0.608452    17A     -0.566802    18A     -0.559067
      19A     -0.511850    20A     -0.433918    21A     -0.394645
      22A     -0.336532

  @DF-RHF Final Energy:  -567.37746937946895

   => Energetics <=

    Nuclear Repulsion Energy =            204.0143374254159596
    One-Electron Energy =               -1183.6753161496455959
    Two-Electron Energy =                 412.2835093447606027
    Total Energy =                       -567.3774693794689483
  Basis Set: (AUG-CC-PVTZ AUX)
    Blend: AUG-CC-PVTZ-RI
    Molecular point group: c1

    Geometry (in Angstrom), charge = 0, multiplicity = 1:

       Center              X                  Y                   Z               Mass
    ------------   -----------------  -----------------  -----------------  -----------------
         S            1.168892603431     0.054308287188    -0.000220866147    31.972071174400
         N           -1.279901396569    -0.765082712812     0.000253133853    14.003074004430
         C           -0.078562396569     1.229181287188    -0.000027866147    12.000000000000
         C           -1.352591896569     0.606290787188     0.000244233853    12.000000000000
         C           -0.032613396569    -1.186313712812     0.000050133853    12.000000000000
         H            0.140034603431     2.288453287188    -0.000108866147     1.007825032230
         H           -2.259187396569     1.122161287188     0.000400133853     1.007825032230
         H            0.249630603431    -2.232571712812     0.000025133853     1.007825032230

  Basis Set: AUG-CC-PVTZ
    Blend: AUG-CC-PVTZ
  Basis Set: (AUG-CC-PVTZ AUX)
    Blend: AUG-CC-PVTZ-JKFIT
	 Reference Energy          =    -567.3774693794689483 [Eh]
	 Singles Energy            =      -0.0000000000000000 [Eh]
	 Same-Spin Energy          =      -0.2466328536545505 [Eh]
	 Opposite-Spin Energy      =      -0.7316399659319218 [Eh]
	 Correlation Energy        =      -0.9782728195864723 [Eh]
	 Total Energy              =    -568.3557421990553848 [Eh]

	 ================> DF-SCS-MP2 Energies <==================
	-----------------------------------------------------------
	 SCS Same-Spin Scale       =       0.3333333333333333 [-]
	 SCS Opposite-Spin Scale   =       1.2000000000000000 [-]
	 SCS Same-Spin Energy      =      -0.0822109512181835 [Eh]
	 SCS Opposite-Spin Energy  =      -0.8779679591183062 [Eh]
	 SCS Correlation Energy    =      -0.9601789103364896 [Eh]
	 SCS Total Energy          =    -568.3376482898054292 [Eh]
	-----------------------------------------------------------

  Dipole Moment: [D]
     X:     1.3484      Y:     1.1781      Z:    -0.0003     Total:     1.7905

*** Psi4 exiting successfully. Buy a developer a beer!
