                               Psi4 1.3.2 release

  ==> Input File <==

--------------------------------------------------------------------------
#psi4
#
memory 32 gb

molecule  {
0 1
  S        1.1830230     0.0407500    -0.0002230
  N       -1.2657710    -0.7786410     0.0002510
  C       -0.0240868     1.1285797    -0.0000342
  C       -1.2905570     0.5944340     0.0002340
  C       -0.0184830    -1.1998720     0.0000480
  H        0.1541650     2.2748950    -0.0001110
  H       -2.2450570     1.1086030     0.0003980
  H        0.2637610    -2.2461300     0.0000230
units angstrom
no_reorient  #important for SAPT in psi4, default
symmetry c1  #important for SAPT in psi4, default
}

set PROPERTIES_ORIGIN ["COM"]
properties('MP2/aug-cc-pvtz', properties = ['dipole'])
--------------------------------------------------------------------------

    Molecular point group: c1
  Charge       = 0
  Multiplicity = 1
  Basis Set: AUG-CC-PVTZ
    Blend: AUG-CC-PVTZ
  Basis Set: (AUG-CC-PVTZ AUX)
    Blend: AUG-CC-PVTZ-JKFIT

    Orbital Energies [Eh]
    ---------------------

    Doubly Occupied:

       1A    -92.004546     2A    -15.578010     3A    -11.308213
       4A    -11.271621     5A    -11.269845     6A     -9.007373
       7A     -6.688423     8A     -6.687680     9A     -6.686898
      10A     -1.284756    11A     -1.087584    12A     -0.998914
      13A     -0.795586    14A     -0.776858    15A     -0.695712
      16A     -0.593204    17A     -0.568289    18A     -0.553251
      19A     -0.524106    20A     -0.437356    21A     -0.400837
      22A     -0.337137

  @DF-RHF Final Energy:  -567.37053023677959

   => Energetics <=

    Nuclear Repulsion Energy =            206.7512951901972542
    One-Electron Energy =               -1189.1312555575611896
    Two-Electron Energy =                 415.0094301305844056
    Total Energy =                       -567.3705302367795866
  Basis Set: (AUG-CC-PVTZ AUX)
    Blend: AUG-CC-PVTZ-RI
    Molecular point group: c1

    Geometry (in Angstrom), charge = 0, multiplicity = 1:

       Center              X                  Y                   Z               Mass
    ------------   -----------------  -----------------  -----------------  -----------------
         S            1.156433620019     0.066356736877    -0.000219129649    31.972071174400
         N           -1.292360379981    -0.753034263123     0.000254870351    14.003074004430
         C           -0.050676179981     1.154186436877    -0.000030329649    12.000000000000
         C           -1.317146379981     0.620040736877     0.000237870351    12.000000000000
         C           -0.045072379981    -1.174265263123     0.000051870351    12.000000000000
         H            0.127575620019     2.300501736877    -0.000107129649     1.007825032230
         H           -2.271646379981     1.134209736877     0.000401870351     1.007825032230
         H            0.237171620019    -2.220523263123     0.000026870351     1.007825032230

  Basis Set: AUG-CC-PVTZ
    Blend: AUG-CC-PVTZ
  Basis Set: (AUG-CC-PVTZ AUX)
    Blend: AUG-CC-PVTZ-JKFIT
	 Reference Energy          =    -567.3705302367795866 [Eh]
	 Singles Energy            =      -0.0000000000000000 [Eh]
	 Same-Spin Energy          =      -0.2474084184011800 [Eh]
	 Opposite-Spin Energy      =      -0.7312728744313628 [Eh]
	 Correlation Energy        =      -0.9786812928325428 [Eh]
	 Total Energy              =    -568.3492115296121483 [Eh]

	 ================> DF-SCS-MP2 Energies <==================
	-----------------------------------------------------------
	 SCS Same-Spin Scale       =       0.3333333333333333 [-]
	 SCS Opposite-Spin Scale   =       1.2000000000000000 [-]
	 SCS Same-Spin Energy      =      -0.0824694728003933 [Eh]
	 SCS Opposite-Spin Energy  =      -0.8775274493176354 [Eh]
	 SCS Correlation Energy    =      -0.9599969221180287 [Eh]
	 SCS Total Energy          =    -568.3305271588976666 [Eh]
	-----------------------------------------------------------

  Dipole Moment: [D]
     X:     1.4695      Y:     1.1760      Z:    -0.0003     Total:     1.8821

*** Psi4 exiting successfully. Buy a developer a beer!
