                               Psi4 1.4a3.dev225

  ==> Input File <==

--------------------------------------------------------------------------
#psi4
#
memory 32 gb

molecule  {
0 1
  S        1.1830230     0.0407500    -0.0002230
  N       -1.2657710    -0.7786410     0.0002510
  C       -0.0644320     1.2156230    -0.0000300
  C       -1.2905570     0.5944340     0.0002340
  C        0.0004656    -1.2062713     0.0000449
  H        0.1541650     2.2748950    -0.0001110
  H       -2.2450570     1.1086030     0.0003980
  H        0.2637610    -2.2461300     0.0000230
units angstrom
no_reorient  #important for SAPT in psi4, default
symmetry c1  #important for SAPT in psi4, default
}

set PROPERTIES_ORIGIN ["COM"]
properties('MP2/aug-cc-pvtz', properties = ['dipole'])
--------------------------------------------------------------------------

    Molecular point group: c1
  Charge       = 0
  Multiplicity = 1
  Basis Set: AUG-CC-PVTZ
    Blend: AUG-CC-PVTZ
  Basis Set: (AUG-CC-PVTZ AUX)
    Blend: AUG-CC-PVTZ-JKFIT

    Orbital Energies [Eh]
    ---------------------

    Doubly Occupied:

       1A    -92.005246     2A    -15.580010     3A    -11.314970
       4A    -11.275416     5A    -11.270906     6A     -9.005979
       7A     -6.686864     8A     -6.686368     9A     -6.685681
      10A     -1.274876    11A     -1.069722    12A     -1.004636
      13A     -0.804647    14A     -0.777651    15A     -0.697481
      16A     -0.594758    17A     -0.571754    18A     -0.560360
      19A     -0.510500    20A     -0.438150    21A     -0.392057
      22A     -0.343218

  @DF-RHF Final Energy:  -567.38107853069232

   => Energetics <=

    Nuclear Repulsion Energy =            204.6472729741255989
    One-Electron Energy =               -1184.9542020569265333
    Two-Electron Energy =                 412.9258505521086136
    Total Energy =                       -567.3810785306923208
  Basis Set: (AUG-CC-PVTZ AUX)
    Blend: AUG-CC-PVTZ-RI
    Molecular point group: c1

    Geometry (in Angstrom), charge = 0, multiplicity = 1:

       Center              X                  Y                   Z               Mass
    ------------   -----------------  -----------------  -----------------  -----------------
         S            1.159454365523     0.054971516777    -0.000219284945    31.972071174400
         N           -1.289339634477    -0.764419483223     0.000254715055    14.003074004430
         C           -0.088000634477     1.229844516777    -0.000026284945    12.000000000000
         C           -1.314125634477     0.608655516777     0.000237715055    12.000000000000
         C           -0.023103034477    -1.192049783223     0.000048615055    12.000000000000
         H            0.130596365523     2.289116516777    -0.000107284945     1.007825032230
         H           -2.268625634477     1.122824516777     0.000401715055     1.007825032230
         H            0.240192365523    -2.231908483223     0.000026715055     1.007825032230

  Basis Set: AUG-CC-PVTZ
    Blend: AUG-CC-PVTZ
  Basis Set: (AUG-CC-PVTZ AUX)
    Blend: AUG-CC-PVTZ-JKFIT
	 Reference Energy          =    -567.3810785306923208 [Eh]
	 Singles Energy            =      -0.0000000000000000 [Eh]
	 Same-Spin Energy          =      -0.2462943109974345 [Eh]
	 Opposite-Spin Energy      =      -0.7309723776231508 [Eh]
	 Correlation Energy        =      -0.9772666886205853 [Eh]
	 Total Energy              =    -568.3583452193129233 [Eh]

	 ================> DF-SCS-MP2 Energies <==================
	-----------------------------------------------------------
	 SCS Same-Spin Scale       =       0.3333333333333333 [-]
	 SCS Opposite-Spin Scale   =       1.2000000000000000 [-]
	 SCS Same-Spin Energy      =      -0.0820981036658115 [Eh]
	 SCS Opposite-Spin Energy  =      -0.8771668531477810 [Eh]
	 SCS Correlation Energy    =      -0.9592649568135925 [Eh]
	 SCS Total Energy          =    -568.3403434875059475 [Eh]
	-----------------------------------------------------------

  Dipole Moment: [D]
     X:     1.4087      Y:     1.2087      Z:    -0.0003     Total:     1.8562

*** Psi4 exiting successfully. Buy a developer a beer!
