                               Psi4 1.3.2 release

  ==> Input File <==

--------------------------------------------------------------------------
#psi4
#
memory 32 gb

molecule  {
0 1
  S        1.2989970     0.1775806    -0.0002501
  N       -1.2657710    -0.7786410     0.0002510
  C       -0.0644320     1.2156230    -0.0000300
  C       -1.2905570     0.5944340     0.0002340
  C       -0.0184830    -1.1998720     0.0000480
  H        0.1541650     2.2748950    -0.0001110
  H       -2.2450570     1.1086030     0.0003980
  H        0.2637610    -2.2461300     0.0000230
units angstrom
no_reorient  #important for SAPT in psi4, default
symmetry c1  #important for SAPT in psi4, default
}

set PROPERTIES_ORIGIN ["COM"]
properties('MP2/aug-cc-pvtz', properties = ['dipole'])
--------------------------------------------------------------------------

    Molecular point group: c1
  Charge       = 0
  Multiplicity = 1
  Basis Set: AUG-CC-PVTZ
    Blend: AUG-CC-PVTZ
  Basis Set: (AUG-CC-PVTZ AUX)
    Blend: AUG-CC-PVTZ-JKFIT

    Orbital Energies [Eh]
    ---------------------

    Doubly Occupied:

       1A    -92.005228     2A    -15.591410     3A    -11.331426
       4A    -11.275924     5A    -11.274319     6A     -9.003281
       7A     -6.684100     8A     -6.683281     9A     -6.682750
      10A     -1.275498    11A     -1.066586    12A     -0.986075
      13A     -0.810862    14A     -0.766233    15A     -0.698586
      16A     -0.602297    17A     -0.552445    18A     -0.542215
      19A     -0.516131    20A     -0.437021    21A     -0.404016
      22A     -0.332533

  @DF-RHF Final Energy:  -567.36497965680496

   => Energetics <=

    Nuclear Repulsion Energy =            199.9129777483553028
    One-Electron Energy =               -1175.5114798192626040
    Two-Electron Energy =                 408.2335224141024241
    Total Energy =                       -567.3649796568049624
  Basis Set: (AUG-CC-PVTZ AUX)
    Blend: AUG-CC-PVTZ-RI
    Molecular point group: c1

    Geometry (in Angstrom), charge = 0, multiplicity = 1:

       Center              X                  Y                   Z               Mass
    ------------   -----------------  -----------------  -----------------  -----------------
         S            1.234480103409     0.139430098648    -0.000236628985    31.972071174400
         N           -1.330287896591    -0.816791501352     0.000264471015    14.003074004430
         C           -0.128948896591     1.177472498648    -0.000016528985    12.000000000000
         C           -1.355073896591     0.556283498648     0.000247471015    12.000000000000
         C           -0.082999896591    -1.238022501352     0.000061471015    12.000000000000
         H            0.089648103409     2.236744498648    -0.000097528985     1.007825032230
         H           -2.309573896591     1.070452498648     0.000411471015     1.007825032230
         H            0.199244103409    -2.284280501352     0.000036471015     1.007825032230

  Basis Set: AUG-CC-PVTZ
    Blend: AUG-CC-PVTZ
  Basis Set: (AUG-CC-PVTZ AUX)
    Blend: AUG-CC-PVTZ-JKFIT
	 Reference Energy          =    -567.3649796568049624 [Eh]
	 Singles Energy            =      -0.0000000000000000 [Eh]
	 Same-Spin Energy          =      -0.2456554303128842 [Eh]
	 Opposite-Spin Energy      =      -0.7339674860883645 [Eh]
	 Correlation Energy        =      -0.9796229164012487 [Eh]
	 Total Energy              =    -568.3446025732062026 [Eh]

	 ================> DF-SCS-MP2 Energies <==================
	-----------------------------------------------------------
	 SCS Same-Spin Scale       =       0.3333333333333333 [-]
	 SCS Opposite-Spin Scale   =       1.2000000000000000 [-]
	 SCS Same-Spin Energy      =      -0.0818851434376281 [Eh]
	 SCS Opposite-Spin Energy  =      -0.8807609833060374 [Eh]
	 SCS Correlation Energy    =      -0.9626461267436655 [Eh]
	 SCS Total Energy          =    -568.3276257835486831 [Eh]
	-----------------------------------------------------------

  Dipole Moment: [D]
     X:     1.1110      Y:     0.9967      Z:    -0.0002     Total:     1.4926

*** Psi4 exiting successfully. Buy a developer a beer!
