                               Psi4 1.3.2 release

  ==> Input File <==

--------------------------------------------------------------------------
#psi4
#
memory 32 gb

molecule  {
0 1
  S        1.1830230     0.0407500    -0.0002230
  N       -1.2582295    -0.7569370     0.0002492
  C       -0.0644320     1.2156230    -0.0000300
  C       -1.2905570     0.5944340     0.0002340
  C       -0.0184830    -1.1998720     0.0000480
  H        0.1541650     2.2748950    -0.0001110
  H       -2.2450570     1.1086030     0.0003980
  H        0.2637610    -2.2461300     0.0000230
units angstrom
no_reorient  #important for SAPT in psi4, default
symmetry c1  #important for SAPT in psi4, default
}

set PROPERTIES_ORIGIN ["COM"]
properties('MP2/aug-cc-pvtz', properties = ['dipole'])
--------------------------------------------------------------------------

    Molecular point group: c1
  Charge       = 0
  Multiplicity = 1
  Basis Set: AUG-CC-PVTZ
    Blend: AUG-CC-PVTZ
  Basis Set: (AUG-CC-PVTZ AUX)
    Blend: AUG-CC-PVTZ-JKFIT

    Orbital Energies [Eh]
    ---------------------

    Doubly Occupied:

       1A    -92.003499     2A    -15.576238     3A    -11.314174
       4A    -11.273138     5A    -11.270214     6A     -9.004213
       7A     -6.685074     8A     -6.684590     9A     -6.683906
      10A     -1.285350    11A     -1.069922    12A     -1.005395
      13A     -0.806765    14A     -0.776435    15A     -0.699048
      16A     -0.600986    17A     -0.568756    18A     -0.564573
      19A     -0.509412    20A     -0.434944    21A     -0.394490
      22A     -0.342166

  @DF-RHF Final Energy:  -567.38281548131624

   => Energetics <=

    Nuclear Repulsion Energy =            205.3054868622762683
    One-Electron Energy =               -1186.2700304760185190
    Two-Electron Energy =                 413.5817281324260648
    Total Energy =                       -567.3828154813162428
  Basis Set: (AUG-CC-PVTZ AUX)
    Blend: AUG-CC-PVTZ-RI
    Molecular point group: c1

    Geometry (in Angstrom), charge = 0, multiplicity = 1:

       Center              X                  Y                   Z               Mass
    ------------   -----------------  -----------------  -----------------  -----------------
         S            1.160887083101     0.050492452094    -0.000219426059    31.972071174400
         N           -1.280365416899    -0.747194547906     0.000252773941    14.003074004430
         C           -0.086567916899     1.225365452094    -0.000026426059    12.000000000000
         C           -1.312692916899     0.604176452094     0.000237573941    12.000000000000
         C           -0.040618916899    -1.190129547906     0.000051573941    12.000000000000
         H            0.132029083101     2.284637452094    -0.000107426059     1.007825032230
         H           -2.267192916899     1.118345452094     0.000401573941     1.007825032230
         H            0.241625083101    -2.236387547906     0.000026573941     1.007825032230

  Basis Set: AUG-CC-PVTZ
    Blend: AUG-CC-PVTZ
  Basis Set: (AUG-CC-PVTZ AUX)
    Blend: AUG-CC-PVTZ-JKFIT
	 Reference Energy          =    -567.3828154813162428 [Eh]
	 Singles Energy            =      -0.0000000000000000 [Eh]
	 Same-Spin Energy          =      -0.2461261806801772 [Eh]
	 Opposite-Spin Energy      =      -0.7300279378278649 [Eh]
	 Correlation Energy        =      -0.9761541185080420 [Eh]
	 Total Energy              =    -568.3589695998242632 [Eh]

	 ================> DF-SCS-MP2 Energies <==================
	-----------------------------------------------------------
	 SCS Same-Spin Scale       =       0.3333333333333333 [-]
	 SCS Opposite-Spin Scale   =       1.2000000000000000 [-]
	 SCS Same-Spin Energy      =      -0.0820420602267257 [Eh]
	 SCS Opposite-Spin Energy  =      -0.8760335253934378 [Eh]
	 SCS Correlation Energy    =      -0.9580755856201635 [Eh]
	 SCS Total Energy          =    -568.3408910669363650 [Eh]
	-----------------------------------------------------------

  Dipole Moment: [D]
     X:     1.3448      Y:     1.1408      Z:    -0.0003     Total:     1.7635

*** Psi4 exiting successfully. Buy a developer a beer!
