                               Psi4 1.3.2 release

  ==> Input File <==

--------------------------------------------------------------------------
#psi4
#
memory 32 gb

molecule  {
0 1
  S        1.1830230     0.0407500    -0.0002230
  N       -1.2657710    -0.7786410     0.0002510
  C       -0.0644320     1.2156230    -0.0000300
  C       -1.2905570     0.5944340     0.0002340
  C        0.0762600    -1.2318684     0.0000326
  H        0.1541650     2.2748950    -0.0001110
  H       -2.2450570     1.1086030     0.0003980
  H        0.2637610    -2.2461300     0.0000230
units angstrom
no_reorient  #important for SAPT in psi4, default
symmetry c1  #important for SAPT in psi4, default
}

set PROPERTIES_ORIGIN ["COM"]
properties('MP2/aug-cc-pvtz', properties = ['dipole'])
--------------------------------------------------------------------------

    Molecular point group: c1
  Charge       = 0
  Multiplicity = 1
  Basis Set: AUG-CC-PVTZ
    Blend: AUG-CC-PVTZ
  Basis Set: (AUG-CC-PVTZ AUX)
    Blend: AUG-CC-PVTZ-JKFIT

    Orbital Energies [Eh]
    ---------------------

    Doubly Occupied:

       1A    -92.012406     2A    -15.583297     3A    -11.316300
       4A    -11.276171     5A    -11.269972     6A     -9.012909
       7A     -6.693822     8A     -6.693345     9A     -6.692739
      10A     -1.255760    11A     -1.067290    12A     -1.007165
      13A     -0.809632    14A     -0.776250    15A     -0.695661
      16A     -0.594294    17A     -0.575715    18A     -0.554256
      19A     -0.511613    20A     -0.436152    21A     -0.386957
      22A     -0.341160

  @DF-RHF Final Energy:  -567.36573158292993

   => Energetics <=

    Nuclear Repulsion Energy =            204.0212973668067207
    One-Electron Energy =               -1183.6483280611462305
    Two-Electron Energy =                 412.2612991114096417
    Total Energy =                       -567.3657315829298113
  Basis Set: (AUG-CC-PVTZ AUX)
    Blend: AUG-CC-PVTZ-RI
    Molecular point group: c1

    Geometry (in Angstrom), charge = 0, multiplicity = 1:

       Center              X                  Y                   Z               Mass
    ------------   -----------------  -----------------  -----------------  -----------------
         S            1.148753805949     0.058585283671    -0.000217548446    31.972071174400
         N           -1.300040194051    -0.760805716329     0.000256451554    14.003074004430
         C           -0.098701194051     1.233458283671    -0.000024548446    12.000000000000
         C           -1.324826194051     0.612269283671     0.000239451554    12.000000000000
         C            0.041990805949    -1.214033116329     0.000038051554    12.000000000000
         H            0.119895805949     2.292730283671    -0.000105548446     1.007825032230
         H           -2.279326194051     1.126438283671     0.000403451554     1.007825032230
         H            0.229491805949    -2.228294716329     0.000028451554     1.007825032230

  Basis Set: AUG-CC-PVTZ
    Blend: AUG-CC-PVTZ
  Basis Set: (AUG-CC-PVTZ AUX)
    Blend: AUG-CC-PVTZ-JKFIT
	 Reference Energy          =    -567.3657315829299250 [Eh]
	 Singles Energy            =      -0.0000000000000000 [Eh]
	 Same-Spin Energy          =      -0.2484218157384717 [Eh]
	 Opposite-Spin Energy      =      -0.7345155942020128 [Eh]
	 Correlation Energy        =      -0.9829374099404846 [Eh]
	 Total Energy              =    -568.3486689928704436 [Eh]

	 ================> DF-SCS-MP2 Energies <==================
	-----------------------------------------------------------
	 SCS Same-Spin Scale       =       0.3333333333333333 [-]
	 SCS Opposite-Spin Scale   =       1.2000000000000000 [-]
	 SCS Same-Spin Energy      =      -0.0828072719128239 [Eh]
	 SCS Opposite-Spin Energy  =      -0.8814187130424154 [Eh]
	 SCS Correlation Energy    =      -0.9642259849552393 [Eh]
	 SCS Total Energy          =    -568.3299575678851170 [Eh]
	-----------------------------------------------------------

  Dipole Moment: [D]
     X:     1.5209      Y:     1.3311      Z:    -0.0003     Total:     2.0212

*** Psi4 exiting successfully. Buy a developer a beer!
