                               Psi4 1.3.2 release

  ==> Input File <==

--------------------------------------------------------------------------
#psi4
#
memory 32 gb

molecule  {
0 1
  S        1.1830230     0.0407500    -0.0002230
  N       -1.3029689    -0.9113256     0.0002603
  C       -0.0644320     1.2156230    -0.0000300
  C       -1.2905570     0.5944340     0.0002340
  C       -0.0184830    -1.1998720     0.0000480
  H        0.1541650     2.2748950    -0.0001110
  H       -2.2450570     1.1086030     0.0003980
  H        0.2637610    -2.2461300     0.0000230
units angstrom
no_reorient  #important for SAPT in psi4, default
symmetry c1  #important for SAPT in psi4, default
}

set PROPERTIES_ORIGIN ["COM"]
properties('MP2/aug-cc-pvtz', properties = ['dipole'])
--------------------------------------------------------------------------

    Molecular point group: c1
  Charge       = 0
  Multiplicity = 1
  Basis Set: AUG-CC-PVTZ
    Blend: AUG-CC-PVTZ
  Basis Set: (AUG-CC-PVTZ AUX)
    Blend: AUG-CC-PVTZ-JKFIT

    Orbital Energies [Eh]
    ---------------------

    Doubly Occupied:

       1A    -92.003569     2A    -15.594259     3A    -11.316212
       4A    -11.287033     5A    -11.276825     6A     -9.004695
       7A     -6.685678     8A     -6.685012     9A     -6.684220
      10A     -1.256921    11A     -1.077623    12A     -0.993772
      13A     -0.791029    14A     -0.780872    15A     -0.692214
      16A     -0.573836    17A     -0.568372    18A     -0.552138
      19A     -0.515649    20A     -0.448453    21A     -0.394353
      22A     -0.347823

  @DF-RHF Final Energy:  -567.36708491251898

   => Energetics <=

    Nuclear Repulsion Energy =            202.1175536790817944
    One-Electron Energy =               -1179.9081560994127358
    Two-Electron Energy =                 410.4235175078119369
    Total Energy =                       -567.3670849125189761
  Basis Set: (AUG-CC-PVTZ AUX)
    Blend: AUG-CC-PVTZ-RI
    Molecular point group: c1

    Geometry (in Angstrom), charge = 0, multiplicity = 1:

       Center              X                  Y                   Z               Mass
    ------------   -----------------  -----------------  -----------------  -----------------
         S            1.168257663083     0.075927158966    -0.000221254725    31.972071174400
         N           -1.317734236917    -0.876148441034     0.000262045275    14.003074004430
         C           -0.079197336917     1.250800158966    -0.000028254725    12.000000000000
         C           -1.305322336917     0.629611158966     0.000235745275    12.000000000000
         C           -0.033248336917    -1.164694841034     0.000049745275    12.000000000000
         H            0.139399663083     2.310072158966    -0.000109254725     1.007825032230
         H           -2.259822336917     1.143780158966     0.000399745275     1.007825032230
         H            0.248995663083    -2.210952841034     0.000024745275     1.007825032230

  Basis Set: AUG-CC-PVTZ
    Blend: AUG-CC-PVTZ
  Basis Set: (AUG-CC-PVTZ AUX)
    Blend: AUG-CC-PVTZ-JKFIT
	 Reference Energy          =    -567.3670849125189761 [Eh]
	 Singles Energy            =      -0.0000000000000000 [Eh]
	 Same-Spin Energy          =      -0.2444592753650292 [Eh]
	 Opposite-Spin Energy      =      -0.7324985837512246 [Eh]
	 Correlation Energy        =      -0.9769578591162538 [Eh]
	 Total Energy              =    -568.3440427716352588 [Eh]

	 ================> DF-SCS-MP2 Energies <==================
	-----------------------------------------------------------
	 SCS Same-Spin Scale       =       0.3333333333333333 [-]
	 SCS Opposite-Spin Scale   =       1.2000000000000000 [-]
	 SCS Same-Spin Energy      =      -0.0814864251216764 [Eh]
	 SCS Opposite-Spin Energy  =      -0.8789983005014694 [Eh]
	 SCS Correlation Energy    =      -0.9604847256231458 [Eh]
	 SCS Total Energy          =    -568.3275696381421085 [Eh]
	-----------------------------------------------------------

  Dipole Moment: [D]
     X:     1.4506      Y:     1.3726      Z:    -0.0003     Total:     1.9970

*** Psi4 exiting successfully. Buy a developer a beer!
