                               Psi4 1.3.2 release

  ==> Input File <==

--------------------------------------------------------------------------
#psi4
#
memory 32 gb

molecule  {
0 1
  S        1.1830230     0.0407500    -0.0002230
  N       -1.2657710    -0.7786410     0.0002510
  C       -0.0644320     1.2156230    -0.0000300
  C       -1.3114893     0.6376036     0.0002366
  C       -0.0184830    -1.1998720     0.0000480
  H        0.1541650     2.2748950    -0.0001110
  H       -2.2450570     1.1086030     0.0003980
  H        0.2637610    -2.2461300     0.0000230
units angstrom
no_reorient  #important for SAPT in psi4, default
symmetry c1  #important for SAPT in psi4, default
}

set PROPERTIES_ORIGIN ["COM"]
properties('MP2/aug-cc-pvtz', properties = ['dipole'])
--------------------------------------------------------------------------

    Molecular point group: c1
  Charge       = 0
  Multiplicity = 1
  Basis Set: AUG-CC-PVTZ
    Blend: AUG-CC-PVTZ
  Basis Set: (AUG-CC-PVTZ AUX)
    Blend: AUG-CC-PVTZ-JKFIT

    Orbital Energies [Eh]
    ---------------------

    Doubly Occupied:

       1A    -92.002810     2A    -15.580520     3A    -11.313900
       4A    -11.275894     5A    -11.273358     6A     -9.003698
       7A     -6.684623     8A     -6.684048     9A     -6.683329
      10A     -1.268885    11A     -1.067437    12A     -1.005190
      13A     -0.799896    14A     -0.783344    15A     -0.696807
      16A     -0.598074    17A     -0.566711    18A     -0.556977
      19A     -0.518244    20A     -0.432843    21A     -0.390633
      22A     -0.346042

  @DF-RHF Final Energy:  -567.37992459119698

   => Energetics <=

    Nuclear Repulsion Energy =            204.0059860820497875
    One-Electron Energy =               -1183.7052941790700515
    Two-Electron Energy =                 412.3193835058233390
    Total Energy =                       -567.3799245911969820
  Basis Set: (AUG-CC-PVTZ AUX)
    Blend: AUG-CC-PVTZ-RI
    Molecular point group: c1

    Geometry (in Angstrom), charge = 0, multiplicity = 1:

       Center              X                  Y                   Z               Mass
    ------------   -----------------  -----------------  -----------------  -----------------
         S            1.165084701621     0.047973440831    -0.000220089664    31.972071174400
         N           -1.283709298379    -0.771417559169     0.000253910336    14.003074004430
         C           -0.082370298379     1.222846440831    -0.000027089664    12.000000000000
         C           -1.329427598379     0.644827040831     0.000239510336    12.000000000000
         C           -0.036421298379    -1.192648559169     0.000050910336    12.000000000000
         H            0.136226701621     2.282118440831    -0.000108089664     1.007825032230
         H           -2.262995298379     1.115826440831     0.000400910336     1.007825032230
         H            0.245822701621    -2.238906559169     0.000025910336     1.007825032230

  Basis Set: AUG-CC-PVTZ
    Blend: AUG-CC-PVTZ
  Basis Set: (AUG-CC-PVTZ AUX)
    Blend: AUG-CC-PVTZ-JKFIT
	 Reference Energy          =    -567.3799245911969820 [Eh]
	 Singles Energy            =      -0.0000000000000000 [Eh]
	 Same-Spin Energy          =      -0.2452304148485015 [Eh]
	 Opposite-Spin Energy      =      -0.7305800377431935 [Eh]
	 Correlation Energy        =      -0.9758104525916950 [Eh]
	 Total Energy              =    -568.3557350437886271 [Eh]

	 ================> DF-SCS-MP2 Energies <==================
	-----------------------------------------------------------
	 SCS Same-Spin Scale       =       0.3333333333333333 [-]
	 SCS Opposite-Spin Scale   =       1.2000000000000000 [-]
	 SCS Same-Spin Energy      =      -0.0817434716161672 [Eh]
	 SCS Opposite-Spin Energy  =      -0.8766960452918321 [Eh]
	 SCS Correlation Energy    =      -0.9584395169079992 [Eh]
	 SCS Total Energy          =    -568.3383641081049973 [Eh]
	-----------------------------------------------------------

  Dipole Moment: [D]
     X:     1.3445      Y:     1.1851      Z:    -0.0003     Total:     1.7922

*** Psi4 exiting successfully. Buy a developer a beer!
