                               Psi4 1.3.2 release

  ==> Input File <==

--------------------------------------------------------------------------
#psi4
#
memory 32 gb

molecule  {
0 1
  S        1.1830230     0.0407500    -0.0002230
  N       -1.2657710    -0.7786410     0.0002510
  C       -0.0644320     1.2156230    -0.0000300
  C       -1.2905570     0.5944340     0.0002340
  C       -0.0184830    -1.1998720     0.0000480
  H        0.1541650     2.2748950    -0.0001110
  H       -2.2450570     1.1086030     0.0003980
  H        0.3158519    -2.4392272     0.0000184
units angstrom
no_reorient  #important for SAPT in psi4, default
symmetry c1  #important for SAPT in psi4, default
}

set PROPERTIES_ORIGIN ["COM"]
properties('MP2/aug-cc-pvtz', properties = ['dipole'])
--------------------------------------------------------------------------

    Molecular point group: c1
  Charge       = 0
  Multiplicity = 1
  Basis Set: AUG-CC-PVTZ
    Blend: AUG-CC-PVTZ
  Basis Set: (AUG-CC-PVTZ AUX)
    Blend: AUG-CC-PVTZ-JKFIT

    Orbital Energies [Eh]
    ---------------------

    Doubly Occupied:

       1A    -92.005195     2A    -15.580145     3A    -11.333353
       4A    -11.276645     5A    -11.271624     6A     -9.005819
       7A     -6.686676     8A     -6.686165     9A     -6.685437
      10A     -1.281281    11A     -1.071837    12A     -0.997735
      13A     -0.798246    14A     -0.757620    15A     -0.692677
      16A     -0.586502    17A     -0.563345    18A     -0.552793
      19A     -0.510554    20A     -0.435910    21A     -0.395068
      22A     -0.343684

  @DF-RHF Final Energy:  -567.36023632372360

   => Energetics <=

    Nuclear Repulsion Energy =            203.9009655991488330
    One-Electron Energy =               -1183.4857843122706527
    Two-Electron Energy =                 412.2245823893982788
    Total Energy =                       -567.3602363237235977
  Basis Set: (AUG-CC-PVTZ AUX)
    Blend: AUG-CC-PVTZ-RI
    Molecular point group: c1

    Geometry (in Angstrom), charge = 0, multiplicity = 1:

       Center              X                  Y                   Z               Mass
    ------------   -----------------  -----------------  -----------------  -----------------
         S            1.161511865827     0.056357616827    -0.000219668057    31.972071174400
         N           -1.287282134173    -0.763033383173     0.000254331943    14.003074004430
         C           -0.085943134173     1.231230616827    -0.000026668057    12.000000000000
         C           -1.312068134173     0.610041616827     0.000237331943    12.000000000000
         C           -0.039994134173    -1.184264383173     0.000051331943    12.000000000000
         H            0.132653865827     2.290502616827    -0.000107668057     1.007825032230
         H           -2.266568134173     1.124210616827     0.000401331943     1.007825032230
         H            0.294340765827    -2.423619583173     0.000021731943     1.007825032230

  Basis Set: AUG-CC-PVTZ
    Blend: AUG-CC-PVTZ
  Basis Set: (AUG-CC-PVTZ AUX)
    Blend: AUG-CC-PVTZ-JKFIT
	 Reference Energy          =    -567.3602363237235977 [Eh]
	 Singles Energy            =      -0.0000000000000000 [Eh]
	 Same-Spin Energy          =      -0.2463451071776686 [Eh]
	 Opposite-Spin Energy      =      -0.7318607930471536 [Eh]
	 Correlation Energy        =      -0.9782059002248222 [Eh]
	 Total Energy              =    -568.3384422239483911 [Eh]

	 ================> DF-SCS-MP2 Energies <==================
	-----------------------------------------------------------
	 SCS Same-Spin Scale       =       0.3333333333333333 [-]
	 SCS Opposite-Spin Scale   =       1.2000000000000000 [-]
	 SCS Same-Spin Energy      =      -0.0821150357258895 [Eh]
	 SCS Opposite-Spin Energy  =      -0.8782329516565842 [Eh]
	 SCS Correlation Energy    =      -0.9603479873824737 [Eh]
	 SCS Total Energy          =    -568.3205843111060176 [Eh]
	-----------------------------------------------------------

  Dipole Moment: [D]
     X:     1.3565      Y:     1.1860      Z:    -0.0003     Total:     1.8019

*** Psi4 exiting successfully. Buy a developer a beer!
