                               Psi4 1.3.2 release

  ==> Input File <==

--------------------------------------------------------------------------
#psi4
#
memory 32 gb

molecule  {
0 1
  S        1.1623286     0.0191578    -0.0002181
  N       -1.2657710    -0.7786410     0.0002510
  C       -0.0644320     1.2156230    -0.0000300
  C       -1.2905570     0.5944340     0.0002340
  C       -0.0184830    -1.1998720     0.0000480
  H        0.1541650     2.2748950    -0.0001110
  H       -2.2450570     1.1086030     0.0003980
  H        0.2637610    -2.2461300     0.0000230
units angstrom
no_reorient  #important for SAPT in psi4, default
symmetry c1  #important for SAPT in psi4, default
}

set PROPERTIES_ORIGIN ["COM"]
properties('MP2/aug-cc-pvtz', properties = ['dipole'])
--------------------------------------------------------------------------

    Molecular point group: c1
  Charge       = 0
  Multiplicity = 1
  Basis Set: AUG-CC-PVTZ
    Blend: AUG-CC-PVTZ
  Basis Set: (AUG-CC-PVTZ AUX)
    Blend: AUG-CC-PVTZ-JKFIT

    Orbital Energies [Eh]
    ---------------------

    Doubly Occupied:

       1A    -92.002801     2A    -15.576889     3A    -11.311376
       4A    -11.275297     5A    -11.270571     6A     -9.004267
       7A     -6.685185     8A     -6.684670     9A     -6.683943
      10A     -1.282248    11A     -1.071875    12A     -1.007136
      13A     -0.803647    14A     -0.778694    15A     -0.697971
      16A     -0.595396    17A     -0.574330    18A     -0.564706
      19A     -0.508725    20A     -0.437335    21A     -0.392291
      22A     -0.345368

  @DF-RHF Final Energy:  -567.38310281106646

   => Energetics <=

    Nuclear Repulsion Energy =            205.7272750103446697
    One-Electron Energy =               -1187.1113176786889198
    Two-Electron Energy =                 414.0009398572777854
    Total Energy =                       -567.3831028110664647
  Basis Set: (AUG-CC-PVTZ AUX)
    Blend: AUG-CC-PVTZ-RI
    Molecular point group: c1

    Geometry (in Angstrom), charge = 0, multiplicity = 1:

       Center              X                  Y                   Z               Mass
    ------------   -----------------  -----------------  -----------------  -----------------
         S            1.149219265060     0.040597736949    -0.000216665725    31.972071174400
         N           -1.278880334940    -0.757201063051     0.000252434275    14.003074004430
         C           -0.077541334940     1.237062936949    -0.000028565725    12.000000000000
         C           -1.303666334940     0.615873936949     0.000235434275    12.000000000000
         C           -0.031592334940    -1.178432063051     0.000049434275    12.000000000000
         H            0.141055665060     2.296334936949    -0.000109565725     1.007825032230
         H           -2.258166334940     1.130042936949     0.000399434275     1.007825032230
         H            0.250651665060    -2.224690063051     0.000024434275     1.007825032230

  Basis Set: AUG-CC-PVTZ
    Blend: AUG-CC-PVTZ
  Basis Set: (AUG-CC-PVTZ AUX)
    Blend: AUG-CC-PVTZ-JKFIT
	 Reference Energy          =    -567.3831028110664647 [Eh]
	 Singles Energy            =      -0.0000000000000000 [Eh]
	 Same-Spin Energy          =      -0.2459358615129904 [Eh]
	 Opposite-Spin Energy      =      -0.7297463900945313 [Eh]
	 Correlation Energy        =      -0.9756822516075216 [Eh]
	 Total Energy              =    -568.3587850626739737 [Eh]

	 ================> DF-SCS-MP2 Energies <==================
	-----------------------------------------------------------
	 SCS Same-Spin Scale       =       0.3333333333333333 [-]
	 SCS Opposite-Spin Scale   =       1.2000000000000000 [-]
	 SCS Same-Spin Energy      =      -0.0819786205043301 [Eh]
	 SCS Opposite-Spin Energy  =      -0.8756956681134376 [Eh]
	 SCS Correlation Energy    =      -0.9576742886177677 [Eh]
	 SCS Total Energy          =    -568.3407770996842601 [Eh]
	-----------------------------------------------------------

  Dipole Moment: [D]
     X:     1.3990      Y:     1.1972      Z:    -0.0003     Total:     1.8413

*** Psi4 exiting successfully. Buy a developer a beer!
