                               Psi4 1.4a3.dev225

  ==> Input File <==

--------------------------------------------------------------------------
#psi4
#
memory 32 gb

molecule  {
0 1
  S        1.1830230     0.0407500    -0.0002230
  N       -1.2657710    -0.7786410     0.0002510
  C       -0.0644320     1.2156230    -0.0000300
  C       -1.2905570     0.5944340     0.0002340
  C       -0.0184830    -1.1998720     0.0000480
  H        0.1541650     2.2748950    -0.0001110
  H       -2.2450570     1.1086030     0.0003980
  H        0.2689701    -2.2654397     0.0000225
units angstrom
no_reorient  #important for SAPT in psi4, default
symmetry c1  #important for SAPT in psi4, default
}

set PROPERTIES_ORIGIN ["COM"]
properties('MP2/aug-cc-pvtz', properties = ['dipole'])
--------------------------------------------------------------------------

    Molecular point group: c1
  Charge       = 0
  Multiplicity = 1
  Basis Set: AUG-CC-PVTZ
    Blend: AUG-CC-PVTZ
  Basis Set: (AUG-CC-PVTZ AUX)
    Blend: AUG-CC-PVTZ-JKFIT

    Orbital Energies [Eh]
    ---------------------

    Doubly Occupied:

       1A    -92.003583     2A    -15.579066     3A    -11.316577
       4A    -11.275430     5A    -11.271190     6A     -9.004352
       7A     -6.685232     8A     -6.684720     9A     -6.684017
      10A     -1.280608    11A     -1.070828    12A     -1.002805
      13A     -0.803119    14A     -0.774935    15A     -0.697507
      16A     -0.594816    17A     -0.568575    18A     -0.562452
      19A     -0.510192    20A     -0.437731    21A     -0.394109
      22A     -0.343297

  @DF-RHF Final Energy:  -567.38222882884338

   => Energetics <=

    Nuclear Repulsion Energy =            204.7157397240853811
    One-Electron Energy =               -1185.1056549468933099
    Two-Electron Energy =                 413.0076863939646046
    Total Energy =                       -567.3822288288433811
  Basis Set: (AUG-CC-PVTZ AUX)
    Blend: AUG-CC-PVTZ-RI
    Molecular point group: c1

    Geometry (in Angstrom), charge = 0, multiplicity = 1:

       Center              X                  Y                   Z               Mass
    ------------   -----------------  -----------------  -----------------  -----------------
         S            1.162067741339     0.054297025817    -0.000219716671    31.972071174400
         N           -1.286726258661    -0.765093974183     0.000254283329    14.003074004430
         C           -0.085387258661     1.229170025817    -0.000026716671    12.000000000000
         C           -1.311512258661     0.607981025817     0.000237283329    12.000000000000
         C           -0.039438258661    -1.186324974183     0.000051283329    12.000000000000
         H            0.133209741339     2.288442025817    -0.000107716671     1.007825032230
         H           -2.266012258661     1.122150025817     0.000401283329     1.007825032230
         H            0.248014841339    -2.251892674183     0.000025783329     1.007825032230

  Basis Set: AUG-CC-PVTZ
    Blend: AUG-CC-PVTZ
  Basis Set: (AUG-CC-PVTZ AUX)
    Blend: AUG-CC-PVTZ-JKFIT
	 Reference Energy          =    -567.3822288288433811 [Eh]
	 Singles Energy            =      -0.0000000000000000 [Eh]
	 Same-Spin Energy          =      -0.2458322890521299 [Eh]
	 Opposite-Spin Energy      =      -0.7302706709380039 [Eh]
	 Correlation Energy        =      -0.9761029599901339 [Eh]
	 Total Energy              =    -568.3583317888335387 [Eh]

	 ================> DF-SCS-MP2 Energies <==================
	-----------------------------------------------------------
	 SCS Same-Spin Scale       =       0.3333333333333333 [-]
	 SCS Opposite-Spin Scale   =       1.2000000000000000 [-]
	 SCS Same-Spin Energy      =      -0.0819440963507100 [Eh]
	 SCS Opposite-Spin Energy  =      -0.8763248051256046 [Eh]
	 SCS Correlation Energy    =      -0.9582689014763146 [Eh]
	 SCS Total Energy          =    -568.3404977303197256 [Eh]
	-----------------------------------------------------------

  Dipole Moment: [D]
     X:     1.3677      Y:     1.1760      Z:    -0.0003     Total:     1.8038

*** Psi4 exiting successfully. Buy a developer a beer!
