                               Psi4 1.3.2 release

  ==> Input File <==

--------------------------------------------------------------------------
#psi4
#
memory 32 gb

molecule  {
0 1
  S        1.1830230     0.0407500    -0.0002230
  N       -1.2657710    -0.7786410     0.0002510
  C       -0.0644320     1.2156230    -0.0000300
  C       -1.2887521     0.4944503     0.0002352
  C       -0.0184830    -1.1998720     0.0000480
  H        0.1541650     2.2748950    -0.0001110
  H       -2.2450570     1.1086030     0.0003980
  H        0.2637610    -2.2461300     0.0000230
units angstrom
no_reorient  #important for SAPT in psi4, default
symmetry c1  #important for SAPT in psi4, default
}

set PROPERTIES_ORIGIN ["COM"]
properties('MP2/aug-cc-pvtz', properties = ['dipole'])
--------------------------------------------------------------------------

    Molecular point group: c1
  Charge       = 0
  Multiplicity = 1
  Basis Set: AUG-CC-PVTZ
    Blend: AUG-CC-PVTZ
  Basis Set: (AUG-CC-PVTZ AUX)
    Blend: AUG-CC-PVTZ-JKFIT

    Orbital Energies [Eh]
    ---------------------

    Doubly Occupied:

       1A    -92.008061     2A    -15.574538     3A    -11.314481
       4A    -11.277428     5A    -11.271875     6A     -9.008189
       7A     -6.688955     8A     -6.688563     9A     -6.687987
      10A     -1.309486    11A     -1.077429    12A     -0.996840
      13A     -0.814254    14A     -0.768085    15A     -0.701246
      16A     -0.604383    17A     -0.574586    18A     -0.568729
      19A     -0.493440    20A     -0.441663    21A     -0.404617
      22A     -0.329638

  @DF-RHF Final Energy:  -567.36803798495134

   => Energetics <=

    Nuclear Repulsion Energy =            205.9885743759510035
    One-Electron Energy =               -1187.5042788617677161
    Two-Electron Energy =                 414.1476665008653981
    Total Energy =                       -567.3680379849513429
  Basis Set: (AUG-CC-PVTZ AUX)
    Blend: AUG-CC-PVTZ-RI
    Molecular point group: c1

    Geometry (in Angstrom), charge = 0, multiplicity = 1:

       Center              X                  Y                   Z               Mass
    ------------   -----------------  -----------------  -----------------  -----------------
         S            1.161874691869     0.068183646531    -0.000219892014    31.972071174400
         N           -1.286919308131    -0.751207353469     0.000254107986    14.003074004430
         C           -0.085580308131     1.243056646531    -0.000026892014    12.000000000000
         C           -1.309900408131     0.521883946531     0.000238307986    12.000000000000
         C           -0.039631308131    -1.172438353469     0.000051107986    12.000000000000
         H            0.133016691869     2.302328646531    -0.000107892014     1.007825032230
         H           -2.266205308131     1.136036646531     0.000401107986     1.007825032230
         H            0.242612691869    -2.218696353469     0.000026107986     1.007825032230

  Basis Set: AUG-CC-PVTZ
    Blend: AUG-CC-PVTZ
  Basis Set: (AUG-CC-PVTZ AUX)
    Blend: AUG-CC-PVTZ-JKFIT
	 Reference Energy          =    -567.3680379849513429 [Eh]
	 Singles Energy            =      -0.0000000000000000 [Eh]
	 Same-Spin Energy          =      -0.2482225278193000 [Eh]
	 Opposite-Spin Energy      =      -0.7316348845311407 [Eh]
	 Correlation Energy        =      -0.9798574123504407 [Eh]
	 Total Energy              =    -568.3478953973017269 [Eh]

	 ================> DF-SCS-MP2 Energies <==================
	-----------------------------------------------------------
	 SCS Same-Spin Scale       =       0.3333333333333333 [-]
	 SCS Opposite-Spin Scale   =       1.2000000000000000 [-]
	 SCS Same-Spin Energy      =      -0.0827408426064333 [Eh]
	 SCS Opposite-Spin Energy  =      -0.8779618614373688 [Eh]
	 SCS Correlation Energy    =      -0.9607027040438021 [Eh]
	 SCS Total Energy          =    -568.3287406889951399 [Eh]
	-----------------------------------------------------------

  Dipole Moment: [D]
     X:     1.4011      Y:     1.1415      Z:    -0.0003     Total:     1.8072

*** Psi4 exiting successfully. Buy a developer a beer!
