                               Psi4 1.4a3.dev225

  ==> Input File <==

--------------------------------------------------------------------------
#psi4
#
memory 32 gb

molecule  {
0 1
  S        1.1830230     0.0407500    -0.0002230
  N       -1.2657710    -0.7786410     0.0002510
  C       -0.0644320     1.2156230    -0.0000300
  C       -1.2905570     0.5944340     0.0002340
  C       -0.0184830    -1.1998720     0.0000480
  H        0.1541650     2.2748950    -0.0001110
  H       -2.2450570     1.1086030     0.0003980
  H        0.2507383    -2.1978557     0.0000242
units angstrom
no_reorient  #important for SAPT in psi4, default
symmetry c1  #important for SAPT in psi4, default
}

set PROPERTIES_ORIGIN ["COM"]
properties('MP2/aug-cc-pvtz', properties = ['dipole'])
--------------------------------------------------------------------------

    Molecular point group: c1
  Charge       = 0
  Multiplicity = 1
  Basis Set: AUG-CC-PVTZ
    Blend: AUG-CC-PVTZ
  Basis Set: (AUG-CC-PVTZ AUX)
    Blend: AUG-CC-PVTZ-JKFIT

    Orbital Energies [Eh]
    ---------------------

    Doubly Occupied:

       1A    -92.003184     2A    -15.578891     3A    -11.309209
       4A    -11.275117     5A    -11.271197     6A     -9.003992
       7A     -6.684880     8A     -6.684368     9A     -6.683673
      10A     -1.280640    11A     -1.070592    12A     -1.006256
      13A     -0.809511    14A     -0.781408    15A     -0.699287
      16A     -0.600012    17A     -0.571480    18A     -0.562276
      19A     -0.510113    20A     -0.438275    21A     -0.393870
      22A     -0.343328

  @DF-RHF Final Energy:  -567.38199457673943

   => Energetics <=

    Nuclear Repulsion Energy =            205.0817526230081000
    One-Electron Energy =               -1185.8043776236270332
    Two-Electron Energy =                 413.3406304238794178
    Total Energy =                       -567.3819945767395438
  Basis Set: (AUG-CC-PVTZ AUX)
    Blend: AUG-CC-PVTZ-RI
    Molecular point group: c1

    Geometry (in Angstrom), charge = 0, multiplicity = 1:

       Center              X                  Y                   Z               Mass
    ------------   -----------------  -----------------  -----------------  -----------------
         S            1.162283915018     0.053495685198    -0.000219736828    31.972071174400
         N           -1.286510084982    -0.765895314802     0.000254263172    14.003074004430
         C           -0.085171084982     1.228368685198    -0.000026736828    12.000000000000
         C           -1.311296084982     0.607179685198     0.000237263172    12.000000000000
         C           -0.039222084982    -1.187126314802     0.000051263172    12.000000000000
         H            0.133425915018     2.287640685198    -0.000107736828     1.007825032230
         H           -2.265796084982     1.121348685198     0.000401263172     1.007825032230
         H            0.229999215018    -2.185110014802     0.000027463172     1.007825032230

  Basis Set: AUG-CC-PVTZ
    Blend: AUG-CC-PVTZ
  Basis Set: (AUG-CC-PVTZ AUX)
    Blend: AUG-CC-PVTZ-JKFIT
	 Reference Energy          =    -567.3819945767394302 [Eh]
	 Singles Energy            =      -0.0000000000000000 [Eh]
	 Same-Spin Energy          =      -0.2457018668466349 [Eh]
	 Opposite-Spin Energy      =      -0.7300513376330526 [Eh]
	 Correlation Energy        =      -0.9757532044796875 [Eh]
	 Total Energy              =    -568.3577477812191319 [Eh]

	 ================> DF-SCS-MP2 Energies <==================
	-----------------------------------------------------------
	 SCS Same-Spin Scale       =       0.3333333333333333 [-]
	 SCS Opposite-Spin Scale   =       1.2000000000000000 [-]
	 SCS Same-Spin Energy      =      -0.0819006222822116 [Eh]
	 SCS Opposite-Spin Energy  =      -0.8760616051596631 [Eh]
	 SCS Correlation Energy    =      -0.9579622274418748 [Eh]
	 SCS Total Energy          =    -568.3399568041812699 [Eh]
	-----------------------------------------------------------

  Dipole Moment: [D]
     X:     1.3694      Y:     1.1850      Z:    -0.0003     Total:     1.8109

*** Psi4 exiting successfully. Buy a developer a beer!
