                               Psi4 1.3.2 release

  ==> Input File <==

--------------------------------------------------------------------------
#psi4
#
memory 32 gb

molecule  {
0 1
  S        1.1830230     0.0407500    -0.0002230
  N       -1.4094322    -0.7737100     0.0002768
  C       -0.0644320     1.2156230    -0.0000300
  C       -1.2905570     0.5944340     0.0002340
  C       -0.0184830    -1.1998720     0.0000480
  H        0.1541650     2.2748950    -0.0001110
  H       -2.2450570     1.1086030     0.0003980
  H        0.2637610    -2.2461300     0.0000230
units angstrom
no_reorient  #important for SAPT in psi4, default
symmetry c1  #important for SAPT in psi4, default
}

set PROPERTIES_ORIGIN ["COM"]
properties('MP2/aug-cc-pvtz', properties = ['dipole'])
--------------------------------------------------------------------------

    Molecular point group: c1
  Charge       = 0
  Multiplicity = 1
  Basis Set: AUG-CC-PVTZ
    Blend: AUG-CC-PVTZ
  Basis Set: (AUG-CC-PVTZ AUX)
    Blend: AUG-CC-PVTZ-JKFIT

    Orbital Energies [Eh]
    ---------------------

    Doubly Occupied:

       1A    -92.017784     2A    -15.596642     3A    -11.332439
       4A    -11.276122     5A    -11.268464     6A     -9.017297
       7A     -6.698116     8A     -6.697576     9A     -6.697050
      10A     -1.249501    11A     -1.075075    12A     -0.992693
      13A     -0.802038    14A     -0.771419    15A     -0.697314
      16A     -0.567678    17A     -0.565362    18A     -0.550208
      19A     -0.513245    20A     -0.458106    21A     -0.393229
      22A     -0.334708

  @DF-RHF Final Energy:  -567.35318147321163

   => Energetics <=

    Nuclear Repulsion Energy =            201.7321087501371437
    One-Electron Energy =               -1179.0264525238690112
    Two-Electron Energy =                 409.9411623005201477
    Total Energy =                       -567.3531814732116345
  Basis Set: (AUG-CC-PVTZ AUX)
    Blend: AUG-CC-PVTZ-RI
    Molecular point group: c1

    Geometry (in Angstrom), charge = 0, multiplicity = 1:

       Center              X                  Y                   Z               Mass
    ------------   -----------------  -----------------  -----------------  -----------------
         S            1.185796929766     0.053255715303    -0.000223973013    31.972071174400
         N           -1.406658270234    -0.761204284697     0.000275826987    14.003074004430
         C           -0.061658070234     1.228128715303    -0.000030973013    12.000000000000
         C           -1.287783070234     0.606939715303     0.000233026987    12.000000000000
         C           -0.015709070234    -1.187366284697     0.000047026987    12.000000000000
         H            0.156938929766     2.287400715303    -0.000111973013     1.007825032230
         H           -2.242283070234     1.121108715303     0.000397026987     1.007825032230
         H            0.266534929766    -2.233624284697     0.000022026987     1.007825032230

  Basis Set: AUG-CC-PVTZ
    Blend: AUG-CC-PVTZ
  Basis Set: (AUG-CC-PVTZ AUX)
    Blend: AUG-CC-PVTZ-JKFIT
	 Reference Energy          =    -567.3531814732116345 [Eh]
	 Singles Energy            =      -0.0000000000000000 [Eh]
	 Same-Spin Energy          =      -0.2495794126412823 [Eh]
	 Opposite-Spin Energy      =      -0.7380545204101903 [Eh]
	 Correlation Energy        =      -0.9876339330514725 [Eh]
	 Total Energy              =    -568.3408154062631183 [Eh]

	 ================> DF-SCS-MP2 Energies <==================
	-----------------------------------------------------------
	 SCS Same-Spin Scale       =       0.3333333333333333 [-]
	 SCS Opposite-Spin Scale   =       1.2000000000000000 [-]
	 SCS Same-Spin Energy      =      -0.0831931375470941 [Eh]
	 SCS Opposite-Spin Energy  =      -0.8856654244922283 [Eh]
	 SCS Correlation Energy    =      -0.9688585620393224 [Eh]
	 SCS Total Energy          =    -568.3220400352510069 [Eh]
	-----------------------------------------------------------

  Dipole Moment: [D]
     X:     1.7659      Y:     1.3373      Z:    -0.0004     Total:     2.2151

*** Psi4 exiting successfully. Buy a developer a beer!
