                               Psi4 1.4a3.dev225

  ==> Input File <==

--------------------------------------------------------------------------
#psi4
#
memory 32 gb

molecule  {
0 1
  S        1.1830230     0.0407500    -0.0002230
  N       -1.2657710    -0.7786410     0.0002510
  C       -0.0644320     1.2156230    -0.0000300
  C       -1.2905570     0.5944340     0.0002340
  C       -0.0184830    -1.1998720     0.0000480
  H        0.1541650     2.2748950    -0.0001110
  H       -2.2890766     1.1323154     0.0004056
  H        0.2637610    -2.2461300     0.0000230
units angstrom
no_reorient  #important for SAPT in psi4, default
symmetry c1  #important for SAPT in psi4, default
}

set PROPERTIES_ORIGIN ["COM"]
properties('MP2/aug-cc-pvtz', properties = ['dipole'])
--------------------------------------------------------------------------

    Molecular point group: c1
  Charge       = 0
  Multiplicity = 1
  Basis Set: AUG-CC-PVTZ
    Blend: AUG-CC-PVTZ
  Basis Set: (AUG-CC-PVTZ AUX)
    Blend: AUG-CC-PVTZ-JKFIT

    Orbital Energies [Eh]
    ---------------------

    Doubly Occupied:

       1A    -92.003727     2A    -15.579505     3A    -11.314898
       4A    -11.280739     5A    -11.271537     6A     -9.004502
       7A     -6.685383     8A     -6.684871     9A     -6.684167
      10A     -1.280871    11A     -1.071063    12A     -1.001718
      13A     -0.804609    14A     -0.771838    15A     -0.695464
      16A     -0.590816    17A     -0.569793    18A     -0.562712
      19A     -0.507911    20A     -0.438088    21A     -0.394303
      22A     -0.343463

  @DF-RHF Final Energy:  -567.38035748113157

   => Energetics <=

    Nuclear Repulsion Energy =            204.5767309949422668
    One-Electron Energy =               -1184.8302241136045723
    Two-Electron Energy =                 412.8731356375307655
    Total Energy =                       -567.3803574811315684
  Basis Set: (AUG-CC-PVTZ AUX)
    Blend: AUG-CC-PVTZ-RI
    Molecular point group: c1

    Geometry (in Angstrom), charge = 0, multiplicity = 1:

       Center              X                  Y                   Z               Mass
    ------------   -----------------  -----------------  -----------------  -----------------
         S            1.162651443945     0.053786914604    -0.000219812712    31.972071174400
         N           -1.286142556055    -0.765604085396     0.000254187288    14.003074004430
         C           -0.084803556055     1.228659914604    -0.000026812712    12.000000000000
         C           -1.310928556055     0.607470914604     0.000237187288    12.000000000000
         C           -0.038854556055    -1.186835085396     0.000051187288    12.000000000000
         H            0.133793443945     2.287931914604    -0.000107812712     1.007825032230
         H           -2.309448156055     1.145352314604     0.000408787288     1.007825032230
         H            0.243389443945    -2.233093085396     0.000026187288     1.007825032230

  Basis Set: AUG-CC-PVTZ
    Blend: AUG-CC-PVTZ
  Basis Set: (AUG-CC-PVTZ AUX)
    Blend: AUG-CC-PVTZ-JKFIT
	 Reference Energy          =    -567.3803574811315684 [Eh]
	 Singles Energy            =      -0.0000000000000000 [Eh]
	 Same-Spin Energy          =      -0.2459049038493882 [Eh]
	 Opposite-Spin Energy      =      -0.7305144191358441 [Eh]
	 Correlation Energy        =      -0.9764193229852323 [Eh]
	 Total Energy              =    -568.3567768041167483 [Eh]

	 ================> DF-SCS-MP2 Energies <==================
	-----------------------------------------------------------
	 SCS Same-Spin Scale       =       0.3333333333333333 [-]
	 SCS Opposite-Spin Scale   =       1.2000000000000000 [-]
	 SCS Same-Spin Energy      =      -0.0819683012831294 [Eh]
	 SCS Opposite-Spin Energy  =      -0.8766173029630130 [Eh]
	 SCS Correlation Energy    =      -0.9585856042461424 [Eh]
	 SCS Total Energy          =    -568.3389430853777640 [Eh]
	-----------------------------------------------------------

  Dipole Moment: [D]
     X:     1.3717      Y:     1.1683      Z:    -0.0003     Total:     1.8018

*** Psi4 exiting successfully. Buy a developer a beer!
