                               Psi4 1.3.2 release

  ==> Input File <==

--------------------------------------------------------------------------
#psi4
#
memory 32 gb

molecule  {
0 1
  S        1.1830230     0.0407500    -0.0002230
  N       -1.2657710    -0.7786410     0.0002510
  C        0.0205617     1.2997791    -0.0000490
  C       -1.2905570     0.5944340     0.0002340
  C       -0.0184830    -1.1998720     0.0000480
  H        0.1541650     2.2748950    -0.0001110
  H       -2.2450570     1.1086030     0.0003980
  H        0.2637610    -2.2461300     0.0000230
units angstrom
no_reorient  #important for SAPT in psi4, default
symmetry c1  #important for SAPT in psi4, default
}

set PROPERTIES_ORIGIN ["COM"]
properties('MP2/aug-cc-pvtz', properties = ['dipole'])
--------------------------------------------------------------------------

    Molecular point group: c1
  Charge       = 0
  Multiplicity = 1
  Basis Set: AUG-CC-PVTZ
    Blend: AUG-CC-PVTZ
  Basis Set: (AUG-CC-PVTZ AUX)
    Blend: AUG-CC-PVTZ-JKFIT

    Orbital Energies [Eh]
    ---------------------

    Doubly Occupied:

       1A    -92.008875     2A    -15.584354     3A    -11.315950
       4A    -11.291484     5A    -11.277044     6A     -9.008712
       7A     -6.689542     8A     -6.689214     9A     -6.688558
      10A     -1.276621    11A     -1.072290    12A     -0.991972
      13A     -0.820560    14A     -0.775749    15A     -0.692457
      16A     -0.606012    17A     -0.589822    18A     -0.557670
      19A     -0.493714    20A     -0.441147    21A     -0.398381
      22A     -0.327777

  @DF-RHF Final Energy:  -567.35920089471074

   => Energetics <=

    Nuclear Repulsion Energy =            203.2472402940504139
    One-Electron Energy =               -1182.0170710344398231
    Two-Electron Energy =                 411.4106298456786135
    Total Energy =                       -567.3592008947107388
  Basis Set: (AUG-CC-PVTZ AUX)
    Blend: AUG-CC-PVTZ-RI
    Molecular point group: c1

    Geometry (in Angstrom), charge = 0, multiplicity = 1:

       Center              X                  Y                   Z               Mass
    ------------   -----------------  -----------------  -----------------  -----------------
         S            1.150130200055     0.042187017494    -0.000217040203    31.972071174400
         N           -1.298663799945    -0.777203982506     0.000256959797    14.003074004430
         C           -0.012331099945     1.301216117494    -0.000043040203    12.000000000000
         C           -1.323449799945     0.595871017494     0.000239959797    12.000000000000
         C           -0.051375799945    -1.198434982506     0.000053959797    12.000000000000
         H            0.121272200055     2.276332017494    -0.000105040203     1.007825032230
         H           -2.277949799945     1.110040017494     0.000403959797     1.007825032230
         H            0.230868200055    -2.244692982506     0.000028959797     1.007825032230

  Basis Set: AUG-CC-PVTZ
    Blend: AUG-CC-PVTZ
  Basis Set: (AUG-CC-PVTZ AUX)
    Blend: AUG-CC-PVTZ-JKFIT
	 Reference Energy          =    -567.3592008947107388 [Eh]
	 Singles Energy            =      -0.0000000000000000 [Eh]
	 Same-Spin Energy          =      -0.2477747058069140 [Eh]
	 Opposite-Spin Energy      =      -0.7338368142738443 [Eh]
	 Correlation Energy        =      -0.9816115200807584 [Eh]
	 Total Energy              =    -568.3408124147914577 [Eh]

	 ================> DF-SCS-MP2 Energies <==================
	-----------------------------------------------------------
	 SCS Same-Spin Scale       =       0.3333333333333333 [-]
	 SCS Opposite-Spin Scale   =       1.2000000000000000 [-]
	 SCS Same-Spin Energy      =      -0.0825915686023047 [Eh]
	 SCS Opposite-Spin Energy  =      -0.8806041771286132 [Eh]
	 SCS Correlation Energy    =      -0.9631957457309178 [Eh]
	 SCS Total Energy          =    -568.3223966404416387 [Eh]
	-----------------------------------------------------------

  Dipole Moment: [D]
     X:     1.3320      Y:     1.1301      Z:    -0.0003     Total:     1.7468

*** Psi4 exiting successfully. Buy a developer a beer!
