                               Psi4 1.4a3.dev225

  ==> Input File <==

--------------------------------------------------------------------------
#psi4
#
memory 32 gb

molecule  {
0 1
  S        1.1830230     0.0407500    -0.0002230
  N       -1.2657710    -0.7786410     0.0002510
  C       -0.0644320     1.2156230    -0.0000300
  C       -1.2909180     0.6144307     0.0002338
  C       -0.0184830    -1.1998720     0.0000480
  H        0.1541650     2.2748950    -0.0001110
  H       -2.2450570     1.1086030     0.0003980
  H        0.2637610    -2.2461300     0.0000230
units angstrom
no_reorient  #important for SAPT in psi4, default
symmetry c1  #important for SAPT in psi4, default
}

set PROPERTIES_ORIGIN ["COM"]
properties('MP2/aug-cc-pvtz', properties = ['dipole'])
--------------------------------------------------------------------------

    Molecular point group: c1
  Charge       = 0
  Multiplicity = 1
  Basis Set: AUG-CC-PVTZ
    Blend: AUG-CC-PVTZ
  Basis Set: (AUG-CC-PVTZ AUX)
    Blend: AUG-CC-PVTZ-JKFIT

    Orbital Energies [Eh]
    ---------------------

    Doubly Occupied:

       1A    -92.002731     2A    -15.579691     3A    -11.314444
       4A    -11.274943     5A    -11.271041     6A     -9.003618
       7A     -6.684521     8A     -6.683984     9A     -6.683263
      10A     -1.275835    11A     -1.069862    12A     -1.004889
      13A     -0.802749    14A     -0.778606    15A     -0.697967
      16A     -0.594812    17A     -0.568853    18A     -0.560489
      19A     -0.513614    20A     -0.436345    21A     -0.392323
      22A     -0.345930

  @DF-RHF Final Energy:  -567.38282485478703

   => Energetics <=

    Nuclear Repulsion Energy =            204.6001536218619492
    One-Electron Energy =               -1184.8849398584525261
    Two-Electron Energy =                 412.9019613818035168
    Total Energy =                       -567.3828248547870317
  Basis Set: (AUG-CC-PVTZ AUX)
    Blend: AUG-CC-PVTZ-RI
    Molecular point group: c1

    Geometry (in Angstrom), charge = 0, multiplicity = 1:

       Center              X                  Y                   Z               Mass
    ------------   -----------------  -----------------  -----------------  -----------------
         S            1.162180470950     0.051244962170    -0.000219694364    31.972071174400
         N           -1.286613529050    -0.768146037830     0.000254305636    14.003074004430
         C           -0.085274529050     1.226117962170    -0.000026694364    12.000000000000
         C           -1.311760529050     0.624925662170     0.000237105636    12.000000000000
         C           -0.039325529050    -1.189377037830     0.000051305636    12.000000000000
         H            0.133322470950     2.285389962170    -0.000107694364     1.007825032230
         H           -2.265899529050     1.119097962170     0.000401305636     1.007825032230
         H            0.242918470950    -2.235635037830     0.000026305636     1.007825032230

  Basis Set: AUG-CC-PVTZ
    Blend: AUG-CC-PVTZ
  Basis Set: (AUG-CC-PVTZ AUX)
    Blend: AUG-CC-PVTZ-JKFIT
	 Reference Energy          =    -567.3828248547870317 [Eh]
	 Singles Energy            =      -0.0000000000000000 [Eh]
	 Same-Spin Energy          =      -0.2453649541851837 [Eh]
	 Opposite-Spin Energy      =      -0.7300617048503442 [Eh]
	 Correlation Energy        =      -0.9754266590355278 [Eh]
	 Total Energy              =    -568.3582515138225517 [Eh]

	 ================> DF-SCS-MP2 Energies <==================
	-----------------------------------------------------------
	 SCS Same-Spin Scale       =       0.3333333333333333 [-]
	 SCS Opposite-Spin Scale   =       1.2000000000000000 [-]
	 SCS Same-Spin Energy      =      -0.0817883180617279 [Eh]
	 SCS Opposite-Spin Energy  =      -0.8760740458204129 [Eh]
	 SCS Correlation Energy    =      -0.9578623638821409 [Eh]
	 SCS Total Energy          =    -568.3406872186691317 [Eh]
	-----------------------------------------------------------

  Dipole Moment: [D]
     X:     1.3592      Y:     1.1816      Z:    -0.0003     Total:     1.8010

*** Psi4 exiting successfully. Buy a developer a beer!
