                               Psi4 1.3.2 release

  ==> Input File <==

--------------------------------------------------------------------------
#psi4
#
memory 32 gb

molecule  {
0 1
  S        1.1830230     0.0407500    -0.0002230
  N       -1.2657710    -0.7786410     0.0002510
  C       -0.0644320     1.2156230    -0.0000300
  C       -1.2905570     0.5944340     0.0002340
  C        0.0510862    -1.1280380     0.0000323
  H        0.1541650     2.2748950    -0.0001110
  H       -2.2450570     1.1086030     0.0003980
  H        0.2637610    -2.2461300     0.0000230
units angstrom
no_reorient  #important for SAPT in psi4, default
symmetry c1  #important for SAPT in psi4, default
}

set PROPERTIES_ORIGIN ["COM"]
properties('MP2/aug-cc-pvtz', properties = ['dipole'])
--------------------------------------------------------------------------

    Molecular point group: c1
  Charge       = 0
  Multiplicity = 1
  Basis Set: AUG-CC-PVTZ
    Blend: AUG-CC-PVTZ
  Basis Set: (AUG-CC-PVTZ AUX)
    Blend: AUG-CC-PVTZ-JKFIT

    Orbital Energies [Eh]
    ---------------------

    Doubly Occupied:

       1A    -92.010010     2A    -15.577538     3A    -11.312816
       4A    -11.275204     5A    -11.266149     6A     -9.012721
       7A     -6.693825     8A     -6.692963     9A     -6.692317
      10A     -1.275402    11A     -1.081097    12A     -1.005168
      13A     -0.795783    14A     -0.773526    15A     -0.697555
      16A     -0.580535    17A     -0.565922    18A     -0.563844
      19A     -0.515390    20A     -0.447601    21A     -0.391664
      22A     -0.344230

  @DF-RHF Final Energy:  -567.36978083975384

   => Energetics <=

    Nuclear Repulsion Energy =            206.2335293519679169
    One-Electron Energy =               -1188.0640980876987669
    Two-Electron Energy =                 414.4607878959769778
    Total Energy =                       -567.3697808397538438
  Basis Set: (AUG-CC-PVTZ AUX)
    Blend: AUG-CC-PVTZ-RI
    Molecular point group: c1

    Geometry (in Angstrom), charge = 0, multiplicity = 1:

       Center              X                  Y                   Z               Mass
    ------------   -----------------  -----------------  -----------------  -----------------
         S            1.152307811873     0.043926636319    -0.000217506093    31.972071174400
         N           -1.296486188127    -0.775464363681     0.000256493907    14.003074004430
         C           -0.095147188127     1.218799636319    -0.000024506093    12.000000000000
         C           -1.321272188127     0.597610636319     0.000239493907    12.000000000000
         C            0.020371011873    -1.124861363681     0.000037793907    12.000000000000
         H            0.123449811873     2.278071636319    -0.000105506093     1.007825032230
         H           -2.275772188127     1.111779636319     0.000403493907     1.007825032230
         H            0.233045811873    -2.242953363681     0.000028493907     1.007825032230

  Basis Set: AUG-CC-PVTZ
    Blend: AUG-CC-PVTZ
  Basis Set: (AUG-CC-PVTZ AUX)
    Blend: AUG-CC-PVTZ-JKFIT
	 Reference Energy          =    -567.3697808397538438 [Eh]
	 Singles Energy            =      -0.0000000000000000 [Eh]
	 Same-Spin Energy          =      -0.2476469290058685 [Eh]
	 Opposite-Spin Energy      =      -0.7320068017886323 [Eh]
	 Correlation Energy        =      -0.9796537307945008 [Eh]
	 Total Energy              =    -568.3494345705483966 [Eh]

	 ================> DF-SCS-MP2 Energies <==================
	-----------------------------------------------------------
	 SCS Same-Spin Scale       =       0.3333333333333333 [-]
	 SCS Opposite-Spin Scale   =       1.2000000000000000 [-]
	 SCS Same-Spin Energy      =      -0.0825489763352895 [Eh]
	 SCS Opposite-Spin Energy  =      -0.8784081621463588 [Eh]
	 SCS Correlation Energy    =      -0.9609571384816482 [Eh]
	 SCS Total Energy          =    -568.3307379782354474 [Eh]
	-----------------------------------------------------------

  Dipole Moment: [D]
     X:     1.6259      Y:     1.3377      Z:    -0.0003     Total:     2.1054

*** Psi4 exiting successfully. Buy a developer a beer!
