                               Psi4 1.3.2 release

  ==> Input File <==

--------------------------------------------------------------------------
#psi4
#
memory 32 gb

molecule  {
0 1
  S        1.1830230     0.0407500    -0.0002230
  N       -1.2657710    -0.7786410     0.0002510
  C       -0.0644320     1.2156230    -0.0000300
  C       -1.3012115     0.6159274     0.0002353
  C       -0.0184830    -1.1998720     0.0000480
  H        0.1541650     2.2748950    -0.0001110
  H       -2.2450570     1.1086030     0.0003980
  H        0.2637610    -2.2461300     0.0000230
units angstrom
no_reorient  #important for SAPT in psi4, default
symmetry c1  #important for SAPT in psi4, default
}

set PROPERTIES_ORIGIN ["COM"]
properties('MP2/aug-cc-pvtz', properties = ['dipole'])
--------------------------------------------------------------------------

    Molecular point group: c1
  Charge       = 0
  Multiplicity = 1
  Basis Set: AUG-CC-PVTZ
    Blend: AUG-CC-PVTZ
  Basis Set: (AUG-CC-PVTZ AUX)
    Blend: AUG-CC-PVTZ-JKFIT

    Orbital Energies [Eh]
    ---------------------

    Doubly Occupied:

       1A    -92.003101     2A    -15.579786     3A    -11.314191
       4A    -11.275563     5A    -11.272237     6A     -9.003938
       7A     -6.684842     8A     -6.684298     9A     -6.683588
      10A     -1.274548    11A     -1.069005    12A     -1.004437
      13A     -0.802079    14A     -0.780118    15A     -0.697259
      16A     -0.597209    17A     -0.568224    18A     -0.559580
      19A     -0.514387    20A     -0.435422    21A     -0.392270
      22A     -0.344669

  @DF-RHF Final Energy:  -567.38212442719259

   => Energetics <=

    Nuclear Repulsion Energy =            204.4060039139996263
    One-Electron Energy =               -1184.4947542987438283
    Two-Electron Energy =                 412.7066259575516369
    Total Energy =                       -567.3821244271925934
  Basis Set: (AUG-CC-PVTZ AUX)
    Blend: AUG-CC-PVTZ-RI
    Molecular point group: c1

    Geometry (in Angstrom), charge = 0, multiplicity = 1:

       Center              X                  Y                   Z               Mass
    ------------   -----------------  -----------------  -----------------  -----------------
         S            1.163633694539     0.051033659916    -0.000219906132    31.972071174400
         N           -1.285160305461    -0.768357340084     0.000254093868    14.003074004430
         C           -0.083821305461     1.225906659916    -0.000026906132    12.000000000000
         C           -1.320600805461     0.626211059916     0.000238393868    12.000000000000
         C           -0.037872305461    -1.189588340084     0.000051093868    12.000000000000
         H            0.134775694539     2.285178659916    -0.000107906132     1.007825032230
         H           -2.264446305461     1.118886659916     0.000401093868     1.007825032230
         H            0.244371694539    -2.235846340084     0.000026093868     1.007825032230

  Basis Set: AUG-CC-PVTZ
    Blend: AUG-CC-PVTZ
  Basis Set: (AUG-CC-PVTZ AUX)
    Blend: AUG-CC-PVTZ-JKFIT
	 Reference Energy          =    -567.3821244271925934 [Eh]
	 Singles Energy            =      -0.0000000000000000 [Eh]
	 Same-Spin Energy          =      -0.2454956899337066 [Eh]
	 Opposite-Spin Energy      =      -0.7303408031967067 [Eh]
	 Correlation Energy        =      -0.9758364931304133 [Eh]
	 Total Energy              =    -568.3579609203229666 [Eh]

	 ================> DF-SCS-MP2 Energies <==================
	-----------------------------------------------------------
	 SCS Same-Spin Scale       =       0.3333333333333333 [-]
	 SCS Opposite-Spin Scale   =       1.2000000000000000 [-]
	 SCS Same-Spin Energy      =      -0.0818318966445689 [Eh]
	 SCS Opposite-Spin Energy  =      -0.8764089638360480 [Eh]
	 SCS Correlation Energy    =      -0.9582408604806170 [Eh]
	 SCS Total Energy          =    -568.3403652876731940 [Eh]
	-----------------------------------------------------------

  Dipole Moment: [D]
     X:     1.3554      Y:     1.1824      Z:    -0.0003     Total:     1.7986

*** Psi4 exiting successfully. Buy a developer a beer!
