                               Psi4 1.3.2 release

  ==> Input File <==

--------------------------------------------------------------------------
#psi4
#
memory 32 gb

molecule  {
0 1
  S        1.1830230     0.0407500    -0.0002230
  N       -1.1700505    -0.7735673     0.0002311
  C       -0.0644320     1.2156230    -0.0000300
  C       -1.2905570     0.5944340     0.0002340
  C       -0.0184830    -1.1998720     0.0000480
  H        0.1541650     2.2748950    -0.0001110
  H       -2.2450570     1.1086030     0.0003980
  H        0.2637610    -2.2461300     0.0000230
units angstrom
no_reorient  #important for SAPT in psi4, default
symmetry c1  #important for SAPT in psi4, default
}

set PROPERTIES_ORIGIN ["COM"]
properties('MP2/aug-cc-pvtz', properties = ['dipole'])
--------------------------------------------------------------------------

    Molecular point group: c1
  Charge       = 0
  Multiplicity = 1
  Basis Set: AUG-CC-PVTZ
    Blend: AUG-CC-PVTZ
  Basis Set: (AUG-CC-PVTZ AUX)
    Blend: AUG-CC-PVTZ-JKFIT

    Orbital Energies [Eh]
    ---------------------

    Doubly Occupied:

       1A    -91.993003     2A    -15.565589     3A    -11.300999
       4A    -11.275756     5A    -11.272767     6A     -8.994742
       7A     -6.675627     8A     -6.675174     9A     -6.674342
      10A     -1.307283    11A     -1.071198    12A     -1.009116
      13A     -0.810045    14A     -0.777017    15A     -0.698647
      16A     -0.616098    17A     -0.574965    18A     -0.572461
      19A     -0.507048    20A     -0.418860    21A     -0.397915
      22A     -0.346456

  @DF-RHF Final Energy:  -567.38066388717243

   => Energetics <=

    Nuclear Repulsion Energy =            207.1405448944925354
    One-Electron Energy =               -1189.9722061091599699
    Two-Electron Energy =                 415.4509973274949175
    Total Energy =                       -567.3806638871724317
  Basis Set: (AUG-CC-PVTZ AUX)
    Blend: AUG-CC-PVTZ-RI
    Molecular point group: c1

    Geometry (in Angstrom), charge = 0, multiplicity = 1:

       Center              X                  Y                   Z               Mass
    ------------   -----------------  -----------------  -----------------  -----------------
         S            1.146360058326     0.053232206232    -0.000216444179    31.972071174400
         N           -1.206713441674    -0.761085093768     0.000237655821    14.003074004430
         C           -0.101094941674     1.228105206232    -0.000023444179    12.000000000000
         C           -1.327219941674     0.606916206232     0.000240555821    12.000000000000
         C           -0.055145941674    -1.187389793768     0.000054555821    12.000000000000
         H            0.117502058326     2.287377206232    -0.000104444179     1.007825032230
         H           -2.281719941674     1.121085206232     0.000404555821     1.007825032230
         H            0.227098058326    -2.233647793768     0.000029555821     1.007825032230

  Basis Set: AUG-CC-PVTZ
    Blend: AUG-CC-PVTZ
  Basis Set: (AUG-CC-PVTZ AUX)
    Blend: AUG-CC-PVTZ-JKFIT
	 Reference Energy          =    -567.3806638871724317 [Eh]
	 Singles Energy            =      -0.0000000000000000 [Eh]
	 Same-Spin Energy          =      -0.2439294236603707 [Eh]
	 Opposite-Spin Energy      =      -0.7262761635279751 [Eh]
	 Correlation Energy        =      -0.9702055871883457 [Eh]
	 Total Energy              =    -568.3508694743608203 [Eh]

	 ================> DF-SCS-MP2 Energies <==================
	-----------------------------------------------------------
	 SCS Same-Spin Scale       =       0.3333333333333333 [-]
	 SCS Opposite-Spin Scale   =       1.2000000000000000 [-]
	 SCS Same-Spin Energy      =      -0.0813098078867902 [Eh]
	 SCS Opposite-Spin Energy  =      -0.8715313962335701 [Eh]
	 SCS Correlation Energy    =      -0.9528412041203603 [Eh]
	 SCS Total Energy          =    -568.3335050912927500 [Eh]
	-----------------------------------------------------------

  Dipole Moment: [D]
     X:     0.9843      Y:     1.0533      Z:    -0.0002     Total:     1.4416

*** Psi4 exiting successfully. Buy a developer a beer!
