                               Psi4 1.3.2 release

  ==> Input File <==

--------------------------------------------------------------------------
#psi4
#
memory 32 gb

molecule  {
0 1
  S        1.1830230     0.0407500    -0.0002230
  N       -1.2657710    -0.7786410     0.0002510
  C       -0.0644320     1.2156230    -0.0000300
  C       -1.2905570     0.5944340     0.0002340
  C       -0.0184830    -1.1998720     0.0000480
  H        0.1541650     2.2748950    -0.0001110
  H       -2.1570179     1.0611782     0.0003829
  H        0.2637610    -2.2461300     0.0000230
units angstrom
no_reorient  #important for SAPT in psi4, default
symmetry c1  #important for SAPT in psi4, default
}

set PROPERTIES_ORIGIN ["COM"]
properties('MP2/aug-cc-pvtz', properties = ['dipole'])
--------------------------------------------------------------------------

    Molecular point group: c1
  Charge       = 0
  Multiplicity = 1
  Basis Set: AUG-CC-PVTZ
    Blend: AUG-CC-PVTZ
  Basis Set: (AUG-CC-PVTZ AUX)
    Blend: AUG-CC-PVTZ-JKFIT

    Orbital Energies [Eh]
    ---------------------

    Doubly Occupied:

       1A    -92.003067     2A    -15.578199     3A    -11.313867
       4A    -11.271034     5A    -11.263706     6A     -9.003859
       7A     -6.684743     8A     -6.684231     9A     -6.683536
      10A     -1.280304    11A     -1.070274    12A     -1.009229
      13A     -0.805211    14A     -0.790074    15A     -0.703186
      16A     -0.606313    17A     -0.569198    18A     -0.561909
      19A     -0.513649    20A     -0.437560    21A     -0.393622
      22A     -0.343147

  @DF-RHF Final Energy:  -567.37682904367171

   => Energetics <=

    Nuclear Repulsion Energy =            205.3469355113555821
    One-Electron Energy =               -1186.3076943798569118
    Two-Electron Energy =                 413.5839298248296245
    Total Energy =                       -567.3768290436717052
  Basis Set: (AUG-CC-PVTZ AUX)
    Blend: AUG-CC-PVTZ-RI
    Molecular point group: c1

    Geometry (in Angstrom), charge = 0, multiplicity = 1:

       Center              X                  Y                   Z               Mass
    ------------   -----------------  -----------------  -----------------  -----------------
         S            1.161085629545     0.054630385364    -0.000219543559    31.972071174400
         N           -1.287708370455    -0.764760614636     0.000254456441    14.003074004430
         C           -0.086369370455     1.229503385364    -0.000026543559    12.000000000000
         C           -1.312494370455     0.608314385364     0.000237456441    12.000000000000
         C           -0.040420370455    -1.185991614636     0.000051456441    12.000000000000
         H            0.132227629545     2.288775385364    -0.000107543559     1.007825032230
         H           -2.178955270455     1.075058585364     0.000386356441     1.007825032230
         H            0.241823629545    -2.232249614636     0.000026456441     1.007825032230

  Basis Set: AUG-CC-PVTZ
    Blend: AUG-CC-PVTZ
  Basis Set: (AUG-CC-PVTZ AUX)
    Blend: AUG-CC-PVTZ-JKFIT
	 Reference Energy          =    -567.3768290436717052 [Eh]
	 Singles Energy            =      -0.0000000000000000 [Eh]
	 Same-Spin Energy          =      -0.2456284199660388 [Eh]
	 Opposite-Spin Energy      =      -0.7298605901251455 [Eh]
	 Correlation Energy        =      -0.9754890100911843 [Eh]
	 Total Energy              =    -568.3523180537629287 [Eh]

	 ================> DF-SCS-MP2 Energies <==================
	-----------------------------------------------------------
	 SCS Same-Spin Scale       =       0.3333333333333333 [-]
	 SCS Opposite-Spin Scale   =       1.2000000000000000 [-]
	 SCS Same-Spin Energy      =      -0.0818761399886796 [Eh]
	 SCS Opposite-Spin Energy  =      -0.8758327081501746 [Eh]
	 SCS Correlation Energy    =      -0.9577088481388542 [Eh]
	 SCS Total Energy          =    -568.3345378918105553 [Eh]
	-----------------------------------------------------------

  Dipole Moment: [D]
     X:     1.3711      Y:     1.1915      Z:    -0.0003     Total:     1.8165

*** Psi4 exiting successfully. Buy a developer a beer!
