                               Psi4 1.3.2 release

  ==> Input File <==

--------------------------------------------------------------------------
#psi4
#
memory 32 gb

molecule  {
0 1
  S        1.1830230     0.0407500    -0.0002230
  N       -1.2178665    -0.7769395     0.0002423
  C       -0.0644320     1.2156230    -0.0000300
  C       -1.2905570     0.5944340     0.0002340
  C       -0.0184830    -1.1998720     0.0000480
  H        0.1541650     2.2748950    -0.0001110
  H       -2.2450570     1.1086030     0.0003980
  H        0.2637610    -2.2461300     0.0000230
units angstrom
no_reorient  #important for SAPT in psi4, default
symmetry c1  #important for SAPT in psi4, default
}

set PROPERTIES_ORIGIN ["COM"]
properties('MP2/aug-cc-pvtz', properties = ['dipole'])
--------------------------------------------------------------------------

    Molecular point group: c1
  Charge       = 0
  Multiplicity = 1
  Basis Set: AUG-CC-PVTZ
    Blend: AUG-CC-PVTZ
  Basis Set: (AUG-CC-PVTZ AUX)
    Blend: AUG-CC-PVTZ-JKFIT

    Orbital Energies [Eh]
    ---------------------

    Doubly Occupied:

       1A    -91.998324     2A    -15.572394     3A    -11.307839
       4A    -11.275442     5A    -11.271984     6A     -8.999572
       7A     -6.680460     8A     -6.679972     9A     -6.679208
      10A     -1.293358    11A     -1.070521    12A     -1.006748
      13A     -0.807069    14A     -0.777188    15A     -0.698315
      16A     -0.606291    17A     -0.570913    18A     -0.568144
      19A     -0.508655    20A     -0.428865    21A     -0.395668
      22A     -0.345177

  @DF-RHF Final Energy:  -567.38463346320941

   => Energetics <=

    Nuclear Repulsion Energy =            205.9513413275963956
    One-Electron Energy =               -1187.5877348008366425
    Two-Electron Energy =                 414.2517600100309210
    Total Energy =                       -567.3846334632092976
  Basis Set: (AUG-CC-PVTZ AUX)
    Blend: AUG-CC-PVTZ-RI
    Molecular point group: c1

    Geometry (in Angstrom), charge = 0, multiplicity = 1:

       Center              X                  Y                   Z               Mass
    ------------   -----------------  -----------------  -----------------  -----------------
         S            1.154237491917     0.053787758381    -0.000218289320    31.972071174400
         N           -1.246652008083    -0.763901741619     0.000247010680    14.003074004430
         C           -0.093217508083     1.228660758381    -0.000025289320    12.000000000000
         C           -1.319342508083     0.607471758381     0.000238710680    12.000000000000
         C           -0.047268508083    -1.186834241619     0.000052710680    12.000000000000
         H            0.125379491917     2.287932758381    -0.000106289320     1.007825032230
         H           -2.273842508083     1.121640758381     0.000402710680     1.007825032230
         H            0.234975491917    -2.233092241619     0.000027710680     1.007825032230

  Basis Set: AUG-CC-PVTZ
    Blend: AUG-CC-PVTZ
  Basis Set: (AUG-CC-PVTZ AUX)
    Blend: AUG-CC-PVTZ-JKFIT
	 Reference Energy          =    -567.3846334632094113 [Eh]
	 Singles Energy            =      -0.0000000000000000 [Eh]
	 Same-Spin Energy          =      -0.2447728566311764 [Eh]
	 Opposite-Spin Energy      =      -0.7280749565049487 [Eh]
	 Correlation Energy        =      -0.9728478131361251 [Eh]
	 Total Energy              =    -568.3574812763455384 [Eh]

	 ================> DF-SCS-MP2 Energies <==================
	-----------------------------------------------------------
	 SCS Same-Spin Scale       =       0.3333333333333333 [-]
	 SCS Opposite-Spin Scale   =       1.2000000000000000 [-]
	 SCS Same-Spin Energy      =      -0.0815909522103921 [Eh]
	 SCS Opposite-Spin Energy  =      -0.8736899478059384 [Eh]
	 SCS Correlation Energy    =      -0.9552809000163306 [Eh]
	 SCS Total Energy          =    -568.3399143632257164 [Eh]
	-----------------------------------------------------------

  Dipole Moment: [D]
     X:     1.1892      Y:     1.1180      Z:    -0.0002     Total:     1.6322

*** Psi4 exiting successfully. Buy a developer a beer!
