                               Psi4 1.4a3.dev225

  ==> Input File <==

--------------------------------------------------------------------------
#psi4
#
memory 32 gb

molecule  {
0 1
  S        1.1830230     0.0407500    -0.0002230
  N       -1.2657710    -0.7786410     0.0002510
  C       -0.0644320     1.2156230    -0.0000300
  C       -1.2905570     0.5944340     0.0002340
  C       -0.0184830    -1.1998720     0.0000480
  H        0.1642703     2.3238632    -0.0001147
  H       -2.2450570     1.1086030     0.0003980
  H        0.2637610    -2.2461300     0.0000230
units angstrom
no_reorient  #important for SAPT in psi4, default
symmetry c1  #important for SAPT in psi4, default
}

set PROPERTIES_ORIGIN ["COM"]
properties('MP2/aug-cc-pvtz', properties = ['dipole'])
--------------------------------------------------------------------------

    Molecular point group: c1
  Charge       = 0
  Multiplicity = 1
  Basis Set: AUG-CC-PVTZ
    Blend: AUG-CC-PVTZ
  Basis Set: (AUG-CC-PVTZ AUX)
    Blend: AUG-CC-PVTZ-JKFIT

    Orbital Energies [Eh]
    ---------------------

    Doubly Occupied:

       1A    -92.003768     2A    -15.579233     3A    -11.314590
       4A    -11.276805     5A    -11.275021     6A     -9.004522
       7A     -6.685398     8A     -6.684889     9A     -6.684183
      10A     -1.280759    11A     -1.069756    12A     -1.003020
      13A     -0.800901    14A     -0.775203    15A     -0.693586
      16A     -0.595911    17A     -0.563641    18A     -0.562563
      19A     -0.510359    20A     -0.437981    21A     -0.394142
      22A     -0.343361

  @DF-RHF Final Energy:  -567.38033264366686

   => Energetics <=

    Nuclear Repulsion Energy =            204.5719443933947730
    One-Electron Energy =               -1184.8253735096586752
    Two-Electron Energy =                 412.8730964725969557
    Total Energy =                       -567.3803326436668613
  Basis Set: (AUG-CC-PVTZ AUX)
    Blend: AUG-CC-PVTZ-RI
    Molecular point group: c1

    Geometry (in Angstrom), charge = 0, multiplicity = 1:

       Center              X                  Y                   Z               Mass
    ------------   -----------------  -----------------  -----------------  -----------------
         S            1.162009687303     0.053487457655    -0.000219678729    31.972071174400
         N           -1.286784312697    -0.765903542345     0.000254321271    14.003074004430
         C           -0.085445312697     1.228360457655    -0.000026678729    12.000000000000
         C           -1.311570312697     0.607171457655     0.000237321271    12.000000000000
         C           -0.039496312697    -1.187134542345     0.000051321271    12.000000000000
         H            0.143256987303     2.336600657655    -0.000111378729     1.007825032230
         H           -2.266070312697     1.121340457655     0.000401321271     1.007825032230
         H            0.242747687303    -2.233392542345     0.000026321271     1.007825032230

  Basis Set: AUG-CC-PVTZ
    Blend: AUG-CC-PVTZ
  Basis Set: (AUG-CC-PVTZ AUX)
    Blend: AUG-CC-PVTZ-JKFIT
	 Reference Energy          =    -567.3803326436668613 [Eh]
	 Singles Energy            =      -0.0000000000000000 [Eh]
	 Same-Spin Energy          =      -0.2459050520271141 [Eh]
	 Opposite-Spin Energy      =      -0.7304777534955050 [Eh]
	 Correlation Energy        =      -0.9763828055226191 [Eh]
	 Total Energy              =    -568.3567154491894371 [Eh]

	 ================> DF-SCS-MP2 Energies <==================
	-----------------------------------------------------------
	 SCS Same-Spin Scale       =       0.3333333333333333 [-]
	 SCS Opposite-Spin Scale   =       1.2000000000000000 [-]
	 SCS Same-Spin Energy      =      -0.0819683506757047 [Eh]
	 SCS Opposite-Spin Energy  =      -0.8765733041946060 [Eh]
	 SCS Correlation Energy    =      -0.9585416548703107 [Eh]
	 SCS Total Energy          =    -568.3388742985371209 [Eh]
	-----------------------------------------------------------

  Dipole Moment: [D]
     X:     1.3721      Y:     1.1848      Z:    -0.0003     Total:     1.8128

*** Psi4 exiting successfully. Buy a developer a beer!
