                               Psi4 1.3.2 release

  ==> Input File <==

--------------------------------------------------------------------------
#psi4
#
memory 32 gb

molecule  {
0 1
  S        1.1830230     0.0407500    -0.0002230
  N       -1.2657710    -0.7786410     0.0002510
  C       -0.0644320     1.2156230    -0.0000300
  C       -1.3797620     0.5492403     0.0002532
  C       -0.0184830    -1.1998720     0.0000480
  H        0.1541650     2.2748950    -0.0001110
  H       -2.2450570     1.1086030     0.0003980
  H        0.2637610    -2.2461300     0.0000230
units angstrom
no_reorient  #important for SAPT in psi4, default
symmetry c1  #important for SAPT in psi4, default
}

set PROPERTIES_ORIGIN ["COM"]
properties('MP2/aug-cc-pvtz', properties = ['dipole'])
--------------------------------------------------------------------------

    Molecular point group: c1
  Charge       = 0
  Multiplicity = 1
  Basis Set: AUG-CC-PVTZ
    Blend: AUG-CC-PVTZ
  Basis Set: (AUG-CC-PVTZ AUX)
    Blend: AUG-CC-PVTZ-JKFIT

    Orbital Energies [Eh]
    ---------------------

    Doubly Occupied:

       1A    -92.008973     2A    -15.578084     3A    -11.311732
       4A    -11.281349     5A    -11.280295     6A     -9.008967
       7A     -6.689791     8A     -6.689293     9A     -6.688754
      10A     -1.283440    11A     -1.069105    12A     -0.996026
      13A     -0.804460    14A     -0.784719    15A     -0.690438
      16A     -0.622276    17A     -0.564748    18A     -0.560783
      19A     -0.505789    20A     -0.431877    21A     -0.399449
      22A     -0.325750

  @DF-RHF Final Energy:  -567.36657047766630

   => Energetics <=

    Nuclear Repulsion Energy =            203.7992223844188970
    One-Electron Energy =               -1183.1793902594672545
    Two-Electron Energy =                 412.0135973973820569
    Total Energy =                       -567.3665704776663006
  Basis Set: (AUG-CC-PVTZ AUX)
    Blend: AUG-CC-PVTZ-RI
    Molecular point group: c1

    Geometry (in Angstrom), charge = 0, multiplicity = 1:

       Center              X                  Y                   Z               Mass
    ------------   -----------------  -----------------  -----------------  -----------------
         S            1.174723356899     0.060448462150    -0.000222433232    31.972071174400
         N           -1.274070643101    -0.758942537850     0.000251566768    14.003074004430
         C           -0.072731643101     1.235321462150    -0.000029433232    12.000000000000
         C           -1.388061643101     0.568938762150     0.000253766768    12.000000000000
         C           -0.026782643101    -1.180173537850     0.000048566768    12.000000000000
         H            0.145865356899     2.294593462150    -0.000110433232     1.007825032230
         H           -2.253356643101     1.128301462150     0.000398566768     1.007825032230
         H            0.255461356899    -2.226431537850     0.000023566768     1.007825032230

  Basis Set: AUG-CC-PVTZ
    Blend: AUG-CC-PVTZ
  Basis Set: (AUG-CC-PVTZ AUX)
    Blend: AUG-CC-PVTZ-JKFIT
	 Reference Energy          =    -567.3665704776663006 [Eh]
	 Singles Energy            =      -0.0000000000000000 [Eh]
	 Same-Spin Energy          =      -0.2484234669304257 [Eh]
	 Opposite-Spin Energy      =      -0.7335143657644454 [Eh]
	 Correlation Energy        =      -0.9819378326948711 [Eh]
	 Total Energy              =    -568.3485083103611260 [Eh]

	 ================> DF-SCS-MP2 Energies <==================
	-----------------------------------------------------------
	 SCS Same-Spin Scale       =       0.3333333333333333 [-]
	 SCS Opposite-Spin Scale   =       1.2000000000000000 [-]
	 SCS Same-Spin Energy      =      -0.0828078223101419 [Eh]
	 SCS Opposite-Spin Energy  =      -0.8802172389173345 [Eh]
	 SCS Correlation Energy    =      -0.9630250612274764 [Eh]
	 SCS Total Energy          =    -568.3295955388937273 [Eh]
	-----------------------------------------------------------

  Dipole Moment: [D]
     X:     1.3209      Y:     1.1622      Z:    -0.0003     Total:     1.7594

*** Psi4 exiting successfully. Buy a developer a beer!
