                               Psi4 1.3.2 release

  ==> Input File <==

--------------------------------------------------------------------------
#psi4
#
memory 32 gb

molecule  {
0 1
  S        1.2666376    -0.0460849    -0.0002339
  N       -1.2657710    -0.7786410     0.0002510
  C       -0.0644320     1.2156230    -0.0000300
  C       -1.2905570     0.5944340     0.0002340
  C       -0.0184830    -1.1998720     0.0000480
  H        0.1541650     2.2748950    -0.0001110
  H       -2.2450570     1.1086030     0.0003980
  H        0.2637610    -2.2461300     0.0000230
units angstrom
no_reorient  #important for SAPT in psi4, default
symmetry c1  #important for SAPT in psi4, default
}

set PROPERTIES_ORIGIN ["COM"]
properties('MP2/aug-cc-pvtz', properties = ['dipole'])
--------------------------------------------------------------------------

    Molecular point group: c1
  Charge       = 0
  Multiplicity = 1
  Basis Set: AUG-CC-PVTZ
    Blend: AUG-CC-PVTZ
  Basis Set: (AUG-CC-PVTZ AUX)
    Blend: AUG-CC-PVTZ-JKFIT

    Orbital Energies [Eh]
    ---------------------

    Doubly Occupied:

       1A    -92.006942     2A    -15.578882     3A    -11.319273
       4A    -11.280779     5A    -11.279341     6A     -9.005688
       7A     -6.686560     8A     -6.685735     9A     -6.685259
      10A     -1.276163    11A     -1.050497    12A     -1.008510
      13A     -0.809107    14A     -0.771394    15A     -0.692550
      16A     -0.599593    17A     -0.561062    18A     -0.556079
      19A     -0.502011    20A     -0.438873    21A     -0.389857
      22A     -0.347467

  @DF-RHF Final Energy:  -567.37489528870924

   => Energetics <=

    Nuclear Repulsion Energy =            201.4760067043269487
    One-Electron Energy =               -1178.6385657493290182
    Two-Electron Energy =                 409.7876637562928863
    Total Energy =                       -567.3748952887092400
  Basis Set: (AUG-CC-PVTZ AUX)
    Blend: AUG-CC-PVTZ-RI
    Molecular point group: c1

    Geometry (in Angstrom), charge = 0, multiplicity = 1:

       Center              X                  Y                   Z               Mass
    ------------   -----------------  -----------------  -----------------  -----------------
         S            1.214292630866    -0.000104044136    -0.000226522585    31.972071174400
         N           -1.318115969134    -0.732660144136     0.000258377415    14.003074004430
         C           -0.116776969134     1.261603855864    -0.000022622585    12.000000000000
         C           -1.342901969134     0.640414855864     0.000241377415    12.000000000000
         C           -0.070827969134    -1.153891144136     0.000055377415    12.000000000000
         H            0.101820030866     2.320875855864    -0.000103622585     1.007825032230
         H           -2.297401969134     1.154583855864     0.000405377415     1.007825032230
         H            0.211416030866    -2.200149144136     0.000030377415     1.007825032230

  Basis Set: AUG-CC-PVTZ
    Blend: AUG-CC-PVTZ
  Basis Set: (AUG-CC-PVTZ AUX)
    Blend: AUG-CC-PVTZ-JKFIT
	 Reference Energy          =    -567.3748952887092400 [Eh]
	 Singles Energy            =      -0.0000000000000000 [Eh]
	 Same-Spin Energy          =      -0.2445425666965992 [Eh]
	 Opposite-Spin Energy      =      -0.7311786697881555 [Eh]
	 Correlation Energy        =      -0.9757212364847547 [Eh]
	 Total Energy              =    -568.3506165251940274 [Eh]

	 ================> DF-SCS-MP2 Energies <==================
	-----------------------------------------------------------
	 SCS Same-Spin Scale       =       0.3333333333333333 [-]
	 SCS Opposite-Spin Scale   =       1.2000000000000000 [-]
	 SCS Same-Spin Energy      =      -0.0815141888988664 [Eh]
	 SCS Opposite-Spin Energy  =      -0.8774144037457866 [Eh]
	 SCS Correlation Energy    =      -0.9589285926446530 [Eh]
	 SCS Total Energy          =    -568.3338238813538510 [Eh]
	-----------------------------------------------------------

  Dipole Moment: [D]
     X:     1.3096      Y:     1.1429      Z:    -0.0003     Total:     1.7382

*** Psi4 exiting successfully. Buy a developer a beer!
