                               Psi4 1.3.2 release

  ==> Input File <==

--------------------------------------------------------------------------
#psi4
#
memory 32 gb

molecule  {
0 1
  S        1.1830230     0.0407500    -0.0002230
  N       -1.2657710    -0.7786410     0.0002510
  C       -0.0644320     1.2156230    -0.0000300
  C       -1.2905570     0.5944340     0.0002340
  C       -0.0184830    -1.1998720     0.0000480
  H        0.1541650     2.2748950    -0.0001110
  H       -2.3330961     1.1560278     0.0004131
  H        0.2637610    -2.2461300     0.0000230
units angstrom
no_reorient  #important for SAPT in psi4, default
symmetry c1  #important for SAPT in psi4, default
}

set PROPERTIES_ORIGIN ["COM"]
properties('MP2/aug-cc-pvtz', properties = ['dipole'])
--------------------------------------------------------------------------

    Molecular point group: c1
  Charge       = 0
  Multiplicity = 1
  Basis Set: AUG-CC-PVTZ
    Blend: AUG-CC-PVTZ
  Basis Set: (AUG-CC-PVTZ AUX)
    Blend: AUG-CC-PVTZ-JKFIT

    Orbital Energies [Eh]
    ---------------------

    Doubly Occupied:

       1A    -92.004052     2A    -15.580071     3A    -11.315328
       4A    -11.285968     5A    -11.271922     6A     -9.004818
       7A     -6.685698     8A     -6.685185     9A     -6.684479
      10A     -1.281219    11A     -1.071421    12A     -1.000176
      13A     -0.804806    14A     -0.767704    15A     -0.693039
      16A     -0.585349    17A     -0.570072    18A     -0.563083
      19A     -0.505209    20A     -0.438297    21A     -0.394616
      22A     -0.343693

  @DF-RHF Final Energy:  -567.37533365470244

   => Energetics <=

    Nuclear Repulsion Energy =            204.3504134714393103
    One-Electron Energy =               -1184.3790873463799471
    Two-Electron Energy =                 412.6533402202381353
    Total Energy =                       -567.3753336547024446
  Basis Set: (AUG-CC-PVTZ AUX)
    Blend: AUG-CC-PVTZ-RI
    Molecular point group: c1

    Geometry (in Angstrom), charge = 0, multiplicity = 1:

       Center              X                  Y                   Z               Mass
    ------------   -----------------  -----------------  -----------------  -----------------
         S            1.163173381288     0.053505757684    -0.000219901639    31.972071174400
         N           -1.285620618712    -0.765885242316     0.000254098361    14.003074004430
         C           -0.084281618712     1.228378757684    -0.000026901639    12.000000000000
         C           -1.310406618712     0.607189757684     0.000237098361    12.000000000000
         C           -0.038332618712    -1.187116242316     0.000051098361    12.000000000000
         H            0.134315381288     2.287650757684    -0.000107901639     1.007825032230
         H           -2.352945718712     1.168783557684     0.000416198361     1.007825032230
         H            0.243911381288    -2.233374242316     0.000026098361     1.007825032230

  Basis Set: AUG-CC-PVTZ
    Blend: AUG-CC-PVTZ
  Basis Set: (AUG-CC-PVTZ AUX)
    Blend: AUG-CC-PVTZ-JKFIT
	 Reference Energy          =    -567.3753336547024446 [Eh]
	 Singles Energy            =      -0.0000000000000000 [Eh]
	 Same-Spin Energy          =      -0.2460368181218845 [Eh]
	 Opposite-Spin Energy      =      -0.7309496503717947 [Eh]
	 Correlation Energy        =      -0.9769864684936792 [Eh]
	 Total Energy              =    -568.3523201231961366 [Eh]

	 ================> DF-SCS-MP2 Energies <==================
	-----------------------------------------------------------
	 SCS Same-Spin Scale       =       0.3333333333333333 [-]
	 SCS Opposite-Spin Scale   =       1.2000000000000000 [-]
	 SCS Same-Spin Energy      =      -0.0820122727072948 [Eh]
	 SCS Opposite-Spin Energy  =      -0.8771395804461536 [Eh]
	 SCS Correlation Energy    =      -0.9591518531534484 [Eh]
	 SCS Total Energy          =    -568.3344855078559021 [Eh]
	-----------------------------------------------------------

  Dipole Moment: [D]
     X:     1.3783      Y:     1.1569      Z:    -0.0003     Total:     1.7995

*** Psi4 exiting successfully. Buy a developer a beer!
