                               Psi4 1.3.2 release

  ==> Input File <==

--------------------------------------------------------------------------
#psi4
#
memory 32 gb

molecule  {
0 1
  S        1.1830230     0.0407500    -0.0002230
  N       -1.2418113    -0.7779993     0.0002460
  C       -0.0644320     1.2156230    -0.0000300
  C       -1.2905570     0.5944340     0.0002340
  C       -0.0184830    -1.1998720     0.0000480
  H        0.1541650     2.2748950    -0.0001110
  H       -2.2450570     1.1086030     0.0003980
  H        0.2637610    -2.2461300     0.0000230
units angstrom
no_reorient  #important for SAPT in psi4, default
symmetry c1  #important for SAPT in psi4, default
}

set PROPERTIES_ORIGIN ["COM"]
properties('MP2/aug-cc-pvtz', properties = ['dipole'])
--------------------------------------------------------------------------

    Molecular point group: c1
  Charge       = 0
  Multiplicity = 1
  Basis Set: AUG-CC-PVTZ
    Blend: AUG-CC-PVTZ
  Basis Set: (AUG-CC-PVTZ AUX)
    Blend: AUG-CC-PVTZ-JKFIT

    Orbital Energies [Eh]
    ---------------------

    Doubly Occupied:

       1A    -92.000912     2A    -15.575731     3A    -11.311205
       4A    -11.275362     5A    -11.271587     6A     -9.001924
       7A     -6.682811     8A     -6.682309     9A     -6.681577
      10A     -1.286828    11A     -1.070534    12A     -1.005288
      13A     -0.805724    14A     -0.777143    15A     -0.698168
      16A     -0.601292    17A     -0.570209    18A     -0.565143
      19A     -0.509426    20A     -0.433506    21A     -0.394767
      22A     -0.344311

  @DF-RHF Final Energy:  -567.38439939995556

   => Energetics <=

    Nuclear Repulsion Energy =            205.3773935797739512
    One-Electron Energy =               -1186.4320712895973884
    Two-Electron Energy =                 413.6702783098678537
    Total Energy =                       -567.3843993999555551
  Basis Set: (AUG-CC-PVTZ AUX)
    Blend: AUG-CC-PVTZ-RI
    Molecular point group: c1

    Geometry (in Angstrom), charge = 0, multiplicity = 1:

       Center              X                  Y                   Z               Mass
    ------------   -----------------  -----------------  -----------------  -----------------
         S            1.158182271319     0.053962354836    -0.000218898876    31.972071174400
         N           -1.266652028681    -0.764786945164     0.000250101124    14.003074004430
         C           -0.089272728681     1.228835354836    -0.000025898876    12.000000000000
         C           -1.315397728681     0.607646354836     0.000238101124    12.000000000000
         C           -0.043323728681    -1.186659645164     0.000052101124    12.000000000000
         H            0.129324271319     2.288107354836    -0.000106898876     1.007825032230
         H           -2.269897728681     1.121815354836     0.000402101124     1.007825032230
         H            0.238920271319    -2.232917645164     0.000027101124     1.007825032230

  Basis Set: AUG-CC-PVTZ
    Blend: AUG-CC-PVTZ
  Basis Set: (AUG-CC-PVTZ AUX)
    Blend: AUG-CC-PVTZ-JKFIT
	 Reference Energy          =    -567.3843993999555551 [Eh]
	 Singles Energy            =      -0.0000000000000000 [Eh]
	 Same-Spin Energy          =      -0.2452613040693380 [Eh]
	 Opposite-Spin Energy      =      -0.7290924099970534 [Eh]
	 Correlation Energy        =      -0.9743537140663914 [Eh]
	 Total Energy              =    -568.3587531140219653 [Eh]

	 ================> DF-SCS-MP2 Energies <==================
	-----------------------------------------------------------
	 SCS Same-Spin Scale       =       0.3333333333333333 [-]
	 SCS Opposite-Spin Scale   =       1.2000000000000000 [-]
	 SCS Same-Spin Energy      =      -0.0817537680231127 [Eh]
	 SCS Opposite-Spin Energy  =      -0.8749108919964640 [Eh]
	 SCS Correlation Energy    =      -0.9566646600195767 [Eh]
	 SCS Total Energy          =    -568.3410640599751105 [Eh]
	-----------------------------------------------------------

  Dipole Moment: [D]
     X:     1.2819      Y:     1.1485      Z:    -0.0003     Total:     1.7211

*** Psi4 exiting successfully. Buy a developer a beer!
