                               Psi4 1.3.2 release

  ==> Input File <==

--------------------------------------------------------------------------
#psi4
#
memory 32 gb

molecule  {
0 1
  S        1.1830230     0.0407500    -0.0002230
  N       -1.2657710    -0.7786410     0.0002510
  C       -0.1804060     1.0787924    -0.0000032
  C       -1.2905570     0.5944340     0.0002340
  C       -0.0184830    -1.1998720     0.0000480
  H        0.1541650     2.2748950    -0.0001110
  H       -2.2450570     1.1086030     0.0003980
  H        0.2637610    -2.2461300     0.0000230
units angstrom
no_reorient  #important for SAPT in psi4, default
symmetry c1  #important for SAPT in psi4, default
}

set PROPERTIES_ORIGIN ["COM"]
properties('MP2/aug-cc-pvtz', properties = ['dipole'])
--------------------------------------------------------------------------

    Molecular point group: c1
  Charge       = 0
  Multiplicity = 1
  Basis Set: AUG-CC-PVTZ
    Blend: AUG-CC-PVTZ
  Basis Set: (AUG-CC-PVTZ AUX)
    Blend: AUG-CC-PVTZ-JKFIT

    Orbital Energies [Eh]
    ---------------------

    Doubly Occupied:

       1A    -91.999427     2A    -15.573433     3A    -11.313349
       4A    -11.261473     5A    -11.247818     6A     -9.001073
       7A     -6.681991     8A     -6.681243     9A     -6.680462
      10A     -1.295024    11A     -1.070447    12A     -1.029740
      13A     -0.809003    14A     -0.764198    15A     -0.696753
      16A     -0.595423    17A     -0.576602    18A     -0.545799
      19A     -0.505308    20A     -0.432303    21A     -0.389681
      22A     -0.370843

  @DF-RHF Final Energy:  -567.33807224709426

   => Energetics <=

    Nuclear Repulsion Energy =            207.6620299839953532
    One-Electron Energy =               -1190.9574189841389398
    Two-Electron Energy =                 415.9573167530494402
    Total Energy =                       -567.3380722470941464
  Basis Set: (AUG-CC-PVTZ AUX)
    Blend: AUG-CC-PVTZ-RI
    Molecular point group: c1

    Geometry (in Angstrom), charge = 0, multiplicity = 1:

       Center              X                  Y                   Z               Mass
    ------------   -----------------  -----------------  -----------------  -----------------
         S            1.178502571185     0.073385646264    -0.000223506190    31.972071174400
         N           -1.270291428815    -0.746005353736     0.000250493810    14.003074004430
         C           -0.184926428815     1.111428046264    -0.000003706190    12.000000000000
         C           -1.295077428815     0.627069646264     0.000233493810    12.000000000000
         C           -0.023003428815    -1.167236353736     0.000047493810    12.000000000000
         H            0.149644571185     2.307530646264    -0.000111506190     1.007825032230
         H           -2.249577428815     1.141238646264     0.000397493810     1.007825032230
         H            0.259240571185    -2.213494353736     0.000022493810     1.007825032230

  Basis Set: AUG-CC-PVTZ
    Blend: AUG-CC-PVTZ
  Basis Set: (AUG-CC-PVTZ AUX)
    Blend: AUG-CC-PVTZ-JKFIT
	 Reference Energy          =    -567.3380722470942601 [Eh]
	 Singles Energy            =      -0.0000000000000000 [Eh]
	 Same-Spin Energy          =      -0.2444806090693815 [Eh]
	 Opposite-Spin Energy      =      -0.7290025580000994 [Eh]
	 Correlation Energy        =      -0.9734831670694809 [Eh]
	 Total Energy              =    -568.3115554141637631 [Eh]

	 ================> DF-SCS-MP2 Energies <==================
	-----------------------------------------------------------
	 SCS Same-Spin Scale       =       0.3333333333333333 [-]
	 SCS Opposite-Spin Scale   =       1.2000000000000000 [-]
	 SCS Same-Spin Energy      =      -0.0814935363564605 [Eh]
	 SCS Opposite-Spin Energy  =      -0.8748030696001192 [Eh]
	 SCS Correlation Energy    =      -0.9562966059565797 [Eh]
	 SCS Total Energy          =    -568.2943688530508553 [Eh]
	-----------------------------------------------------------

  Dipole Moment: [D]
     X:     1.3569      Y:     1.1062      Z:    -0.0003     Total:     1.7507

*** Psi4 exiting successfully. Buy a developer a beer!
