                               Psi4 1.4a3.dev225

  ==> Input File <==

--------------------------------------------------------------------------
#psi4
#
memory 32 gb

molecule  {
0 1
  S        1.1830230     0.0407500    -0.0002230
  N       -1.2657710    -0.7786410     0.0002510
  C       -0.0644320     1.2156230    -0.0000300
  C       -1.2901960     0.5744373     0.0002342
  C       -0.0184830    -1.1998720     0.0000480
  H        0.1541650     2.2748950    -0.0001110
  H       -2.2450570     1.1086030     0.0003980
  H        0.2637610    -2.2461300     0.0000230
units angstrom
no_reorient  #important for SAPT in psi4, default
symmetry c1  #important for SAPT in psi4, default
}

set PROPERTIES_ORIGIN ["COM"]
properties('MP2/aug-cc-pvtz', properties = ['dipole'])
--------------------------------------------------------------------------

    Molecular point group: c1
  Charge       = 0
  Multiplicity = 1
  Basis Set: AUG-CC-PVTZ
    Blend: AUG-CC-PVTZ
  Basis Set: (AUG-CC-PVTZ AUX)
    Blend: AUG-CC-PVTZ-JKFIT

    Orbital Energies [Eh]
    ---------------------

    Doubly Occupied:

       1A    -92.004243     2A    -15.578240     3A    -11.314555
       4A    -11.275745     5A    -11.271328     6A     -9.004911
       7A     -6.685772     8A     -6.685284     9A     -6.684605
      10A     -1.285678    11A     -1.071800    12A     -1.002413
      13A     -0.806381    14A     -0.775276    15A     -0.698285
      16A     -0.597780    17A     -0.569914    18A     -0.564453
      19A     -0.506671    20A     -0.439241    21A     -0.395886
      22A     -0.340610

  @DF-RHF Final Energy:  -567.38199912307391

   => Energetics <=

    Nuclear Repulsion Energy =            205.0391754354664897
    One-Electron Energy =               -1185.7242107250820027
    Two-Electron Energy =                 413.3030361665416308
    Total Energy =                       -567.3819991230739106
  Basis Set: (AUG-CC-PVTZ AUX)
    Blend: AUG-CC-PVTZ-RI
    Molecular point group: c1

    Geometry (in Angstrom), charge = 0, multiplicity = 1:

       Center              X                  Y                   Z               Mass
    ------------   -----------------  -----------------  -----------------  -----------------
         S            1.162078539883     0.056891180878    -0.000219750835    31.972071174400
         N           -1.286715460117    -0.762499819122     0.000254249165    14.003074004430
         C           -0.085376460117     1.231764180878    -0.000026750835    12.000000000000
         C           -1.311140460117     0.590578480878     0.000237449165    12.000000000000
         C           -0.039427460117    -1.183730819122     0.000051249165    12.000000000000
         H            0.133220539883     2.291036180878    -0.000107750835     1.007825032230
         H           -2.266001460117     1.124744180878     0.000401249165     1.007825032230
         H            0.242816539883    -2.229988819122     0.000026249165     1.007825032230

  Basis Set: AUG-CC-PVTZ
    Blend: AUG-CC-PVTZ
  Basis Set: (AUG-CC-PVTZ AUX)
    Blend: AUG-CC-PVTZ-JKFIT
	 Reference Energy          =    -567.3819991230739106 [Eh]
	 Singles Energy            =      -0.0000000000000000 [Eh]
	 Same-Spin Energy          =      -0.2462408821143978 [Eh]
	 Opposite-Spin Energy      =      -0.7303642751209374 [Eh]
	 Correlation Energy        =      -0.9766051572353351 [Eh]
	 Total Energy              =    -568.3586042803092369 [Eh]

	 ================> DF-SCS-MP2 Energies <==================
	-----------------------------------------------------------
	 SCS Same-Spin Scale       =       0.3333333333333333 [-]
	 SCS Opposite-Spin Scale   =       1.2000000000000000 [-]
	 SCS Same-Spin Energy      =      -0.0820802940381326 [Eh]
	 SCS Opposite-Spin Energy  =      -0.8764371301451248 [Eh]
	 SCS Correlation Energy    =      -0.9585174241832574 [Eh]
	 SCS Total Energy          =    -568.3405165472571525 [Eh]
	-----------------------------------------------------------

  Dipole Moment: [D]
     X:     1.3766      Y:     1.1732      Z:    -0.0003     Total:     1.8087

*** Psi4 exiting successfully. Buy a developer a beer!
