                               Psi4 1.3.2 release

  ==> Input File <==

--------------------------------------------------------------------------
#psi4
#
memory 32 gb

molecule  {
0 1
  S        1.1830230     0.0407500    -0.0002230
  N       -1.2657710    -0.7786410     0.0002510
  C       -0.0644320     1.2156230    -0.0000300
  C       -1.2905570     0.5944340     0.0002340
  C       -0.0184830    -1.1998720     0.0000480
  H        0.1541650     2.2748950    -0.0001110
  H       -2.2450570     1.1086030     0.0003980
  H        0.2377155    -2.1495814     0.0000253
units angstrom
no_reorient  #important for SAPT in psi4, default
symmetry c1  #important for SAPT in psi4, default
}

set PROPERTIES_ORIGIN ["COM"]
properties('MP2/aug-cc-pvtz', properties = ['dipole'])
--------------------------------------------------------------------------

    Molecular point group: c1
  Charge       = 0
  Multiplicity = 1
  Basis Set: AUG-CC-PVTZ
    Blend: AUG-CC-PVTZ
  Basis Set: (AUG-CC-PVTZ AUX)
    Blend: AUG-CC-PVTZ-JKFIT

    Orbital Energies [Eh]
    ---------------------

    Doubly Occupied:

       1A    -92.002985     2A    -15.578855     3A    -11.303761
       4A    -11.274946     5A    -11.271260     6A     -9.003812
       7A     -6.684705     8A     -6.684194     9A     -6.683504
      10A     -1.280781    11A     -1.070478    12A     -1.009458
      13A     -0.816829    14A     -0.784664    15A     -0.700461
      16A     -0.603854    17A     -0.572858    18A     -0.562209
      19A     -0.510086    20A     -0.438644    21A     -0.393744
      22A     -0.343412

  @DF-RHF Final Energy:  -567.37670280434406

   => Energetics <=

    Nuclear Repulsion Energy =            205.3642208047244822
    One-Electron Energy =               -1186.3308496553906934
    Two-Electron Energy =                 413.5899260463221481
    Total Energy =                       -567.3767028043440632
  Basis Set: (AUG-CC-PVTZ AUX)
    Blend: AUG-CC-PVTZ-RI
    Molecular point group: c1

    Geometry (in Angstrom), charge = 0, multiplicity = 1:

       Center              X                  Y                   Z               Mass
    ------------   -----------------  -----------------  -----------------  -----------------
         S            1.162438325804     0.052923298872    -0.000219749870    31.972071174400
         N           -1.286355674196    -0.766467701128     0.000254250130    14.003074004430
         C           -0.085016674196     1.227796298872    -0.000026749870    12.000000000000
         C           -1.311141674196     0.606607298872     0.000237250130    12.000000000000
         C           -0.039067674196    -1.187698701128     0.000051250130    12.000000000000
         H            0.133580325804     2.287068298872    -0.000107749870     1.007825032230
         H           -2.265641674196     1.120776298872     0.000401250130     1.007825032230
         H            0.217130825804    -2.137408101128     0.000028550130     1.007825032230

  Basis Set: AUG-CC-PVTZ
    Blend: AUG-CC-PVTZ
  Basis Set: (AUG-CC-PVTZ AUX)
    Blend: AUG-CC-PVTZ-JKFIT
	 Reference Energy          =    -567.3767028043440632 [Eh]
	 Singles Energy            =      -0.0000000000000000 [Eh]
	 Same-Spin Energy          =      -0.2456416564925620 [Eh]
	 Opposite-Spin Energy      =      -0.7300279410096122 [Eh]
	 Correlation Energy        =      -0.9756695975021743 [Eh]
	 Total Energy              =    -568.3523724018461962 [Eh]

	 ================> DF-SCS-MP2 Energies <==================
	-----------------------------------------------------------
	 SCS Same-Spin Scale       =       0.3333333333333333 [-]
	 SCS Opposite-Spin Scale   =       1.2000000000000000 [-]
	 SCS Same-Spin Energy      =      -0.0818805521641873 [Eh]
	 SCS Opposite-Spin Energy  =      -0.8760335292115347 [Eh]
	 SCS Correlation Energy    =      -0.9579140813757220 [Eh]
	 SCS Total Energy          =    -568.3346168857198109 [Eh]
	-----------------------------------------------------------

  Dipole Moment: [D]
     X:     1.3699      Y:     1.1955      Z:    -0.0003     Total:     1.8182

*** Psi4 exiting successfully. Buy a developer a beer!
