                               Psi4 1.3.2 release

  ==> Input File <==

--------------------------------------------------------------------------
#psi4
#
memory 32 gb

molecule  {
0 1
  S        1.1830230     0.0407500    -0.0002230
  N       -1.2657710    -0.7786410     0.0002510
  C       -0.0644320     1.2156230    -0.0000300
  C       -1.2923619     0.6944177     0.0002328
  C       -0.0184830    -1.1998720     0.0000480
  H        0.1541650     2.2748950    -0.0001110
  H       -2.2450570     1.1086030     0.0003980
  H        0.2637610    -2.2461300     0.0000230
units angstrom
no_reorient  #important for SAPT in psi4, default
symmetry c1  #important for SAPT in psi4, default
}

set PROPERTIES_ORIGIN ["COM"]
properties('MP2/aug-cc-pvtz', properties = ['dipole'])
--------------------------------------------------------------------------

    Molecular point group: c1
  Charge       = 0
  Multiplicity = 1
  Basis Set: AUG-CC-PVTZ
    Blend: AUG-CC-PVTZ
  Basis Set: (AUG-CC-PVTZ AUX)
    Blend: AUG-CC-PVTZ-JKFIT

    Orbital Energies [Eh]
    ---------------------

    Doubly Occupied:

       1A    -92.000421     2A    -15.581673     3A    -11.313906
       4A    -11.273833     5A    -11.270627     6A     -9.001653
       7A     -6.682629     8A     -6.681994     9A     -6.681204
      10A     -1.259581    11A     -1.067947    12A     -1.008963
      13A     -0.796751    14A     -0.784899    15A     -0.699370
      16A     -0.590499    17A     -0.562497    18A     -0.554203
      19A     -0.526382    20A     -0.428580    21A     -0.387076
      22A     -0.355605

  @DF-RHF Final Energy:  -567.37467649433370

   => Energetics <=

    Nuclear Repulsion Energy =            203.7753431476860726
    One-Electron Energy =               -1183.2794522609374326
    Two-Electron Energy =                 412.1294326189176331
    Total Energy =                       -567.3746764943336984
  Basis Set: (AUG-CC-PVTZ AUX)
    Blend: AUG-CC-PVTZ-RI
    Molecular point group: c1

    Geometry (in Angstrom), charge = 0, multiplicity = 1:

       Center              X                  Y                   Z               Mass
    ------------   -----------------  -----------------  -----------------  -----------------
         S            1.162384318964     0.039952496517    -0.000219553185    31.972071174400
         N           -1.286409681036    -0.779438503483     0.000254446815    14.003074004430
         C           -0.085070681036     1.214825496517    -0.000026553185    12.000000000000
         C           -1.313000581036     0.693620196517     0.000236246815    12.000000000000
         C           -0.039121681036    -1.200669503483     0.000051446815    12.000000000000
         H            0.133526318964     2.274097496517    -0.000107553185     1.007825032230
         H           -2.265695681036     1.107805496517     0.000401446815     1.007825032230
         H            0.243122318964    -2.246927503483     0.000026446815     1.007825032230

  Basis Set: AUG-CC-PVTZ
    Blend: AUG-CC-PVTZ
  Basis Set: (AUG-CC-PVTZ AUX)
    Blend: AUG-CC-PVTZ-JKFIT
	 Reference Energy          =    -567.3746764943336984 [Eh]
	 Singles Energy            =      -0.0000000000000000 [Eh]
	 Same-Spin Energy          =      -0.2439809430238673 [Eh]
	 Opposite-Spin Energy      =      -0.7301325793612292 [Eh]
	 Correlation Energy        =      -0.9741135223850965 [Eh]
	 Total Energy              =    -568.3487900167187945 [Eh]

	 ================> DF-SCS-MP2 Energies <==================
	-----------------------------------------------------------
	 SCS Same-Spin Scale       =       0.3333333333333333 [-]
	 SCS Opposite-Spin Scale   =       1.2000000000000000 [-]
	 SCS Same-Spin Energy      =      -0.0813269810079558 [Eh]
	 SCS Opposite-Spin Energy  =      -0.8761590952334750 [Eh]
	 SCS Correlation Energy    =      -0.9574860762414308 [Eh]
	 SCS Total Energy          =    -568.3321625705751785 [Eh]
	-----------------------------------------------------------

  Dipole Moment: [D]
     X:     1.3174      Y:     1.1903      Z:    -0.0003     Total:     1.7755

*** Psi4 exiting successfully. Buy a developer a beer!
