                               Psi4 1.3.2 release

  ==> Input File <==

--------------------------------------------------------------------------
#psi4
#
memory 32 gb

molecule  {
0 1
  S        1.1830230     0.0407500    -0.0002230
  N       -1.3137057    -0.7786696     0.0002609
  C       -0.0644320     1.2156230    -0.0000300
  C       -1.2905570     0.5944340     0.0002340
  C       -0.0184830    -1.1998720     0.0000480
  H        0.1541650     2.2748950    -0.0001110
  H       -2.2450570     1.1086030     0.0003980
  H        0.2637610    -2.2461300     0.0000230
units angstrom
no_reorient  #important for SAPT in psi4, default
symmetry c1  #important for SAPT in psi4, default
}

set PROPERTIES_ORIGIN ["COM"]
properties('MP2/aug-cc-pvtz', properties = ['dipole'])
--------------------------------------------------------------------------

    Molecular point group: c1
  Charge       = 0
  Multiplicity = 1
  Basis Set: AUG-CC-PVTZ
    Blend: AUG-CC-PVTZ
  Basis Set: (AUG-CC-PVTZ AUX)
    Blend: AUG-CC-PVTZ-JKFIT

    Orbital Energies [Eh]
    ---------------------

    Doubly Occupied:

       1A    -92.008409     2A    -15.585290     3A    -11.320895
       4A    -11.275415     5A    -11.270341     6A     -9.008747
       7A     -6.689614     8A     -6.689086     9A     -6.688446
      10A     -1.269047    11A     -1.071705    12A     -1.000168
      13A     -0.802732    14A     -0.776018    15A     -0.697774
      16A     -0.586078    17A     -0.568386    18A     -0.557572
      19A     -0.511512    20A     -0.445850    21A     -0.393089
      22A     -0.340847

  @DF-RHF Final Energy:  -567.37642367458398

   => Energetics <=

    Nuclear Repulsion Energy =            203.7367824060346777
    One-Electron Energy =               -1183.1123724754957038
    Two-Electron Energy =                 411.9991663948770793
    Total Energy =                       -567.3764236745839753
  Basis Set: (AUG-CC-PVTZ AUX)
    Blend: AUG-CC-PVTZ-RI
    Molecular point group: c1

    Geometry (in Angstrom), charge = 0, multiplicity = 1:

       Center              X                  Y                   Z               Mass
    ------------   -----------------  -----------------  -----------------  -----------------
         S            1.170026494207     0.054072783223    -0.000221353572    31.972071174400
         N           -1.326702205793    -0.765346816777     0.000262546428    14.003074004430
         C           -0.077428505793     1.228945783223    -0.000028353572    12.000000000000
         C           -1.303553505793     0.607756783223     0.000235646428    12.000000000000
         C           -0.031479505793    -1.186549216777     0.000049646428    12.000000000000
         H            0.141168494207     2.288217783223    -0.000109353572     1.007825032230
         H           -2.258053505793     1.121925783223     0.000399646428     1.007825032230
         H            0.250764494207    -2.232807216777     0.000024646428     1.007825032230

  Basis Set: AUG-CC-PVTZ
    Blend: AUG-CC-PVTZ
  Basis Set: (AUG-CC-PVTZ AUX)
    Blend: AUG-CC-PVTZ-JKFIT
	 Reference Energy          =    -567.3764236745839753 [Eh]
	 Singles Energy            =      -0.0000000000000000 [Eh]
	 Same-Spin Energy          =      -0.2469531860064610 [Eh]
	 Opposite-Spin Energy      =      -0.7325783984871309 [Eh]
	 Correlation Energy        =      -0.9795315844935919 [Eh]
	 Total Energy              =    -568.3559552590775183 [Eh]

	 ================> DF-SCS-MP2 Energies <==================
	-----------------------------------------------------------
	 SCS Same-Spin Scale       =       0.3333333333333333 [-]
	 SCS Opposite-Spin Scale   =       1.2000000000000000 [-]
	 SCS Same-Spin Energy      =      -0.0823177286688203 [Eh]
	 SCS Opposite-Spin Energy  =      -0.8790940781845571 [Eh]
	 SCS Correlation Energy    =      -0.9614118068533775 [Eh]
	 SCS Total Energy          =    -568.3378354814373097 [Eh]
	-----------------------------------------------------------

  Dipole Moment: [D]
     X:     1.5230      Y:     1.2337      Z:    -0.0003     Total:     1.9600

*** Psi4 exiting successfully. Buy a developer a beer!
