                               Psi4 1.3.2 release

  ==> Input File <==

--------------------------------------------------------------------------
#psi4
#
memory 32 gb

molecule  {
0 1
  S        1.1830230     0.0407500    -0.0002230
  N       -1.2657710    -0.7786410     0.0002510
  C       -0.0644320     1.2156230    -0.0000300
  C       -1.2681309     0.5520213     0.0002311
  C       -0.0184830    -1.1998720     0.0000480
  H        0.1541650     2.2748950    -0.0001110
  H       -2.2450570     1.1086030     0.0003980
  H        0.2637610    -2.2461300     0.0000230
units angstrom
no_reorient  #important for SAPT in psi4, default
symmetry c1  #important for SAPT in psi4, default
}

set PROPERTIES_ORIGIN ["COM"]
properties('MP2/aug-cc-pvtz', properties = ['dipole'])
--------------------------------------------------------------------------

    Molecular point group: c1
  Charge       = 0
  Multiplicity = 1
  Basis Set: AUG-CC-PVTZ
    Blend: AUG-CC-PVTZ
  Basis Set: (AUG-CC-PVTZ AUX)
    Blend: AUG-CC-PVTZ-JKFIT

    Orbital Energies [Eh]
    ---------------------

    Doubly Occupied:

       1A    -92.004361     2A    -15.577343     3A    -11.315286
       4A    -11.275133     5A    -11.269325     6A     -9.005027
       7A     -6.685861     8A     -6.685414     9A     -6.684732
      10A     -1.293910    11A     -1.074790    12A     -1.002180
      13A     -0.809860    14A     -0.771120    15A     -0.700500
      16A     -0.594588    17A     -0.571315    18A     -0.568702
      19A     -0.500748    20A     -0.442373    21A     -0.397922
      22A     -0.340593

  @DF-RHF Final Energy:  -567.37978711297387

   => Energetics <=

    Nuclear Repulsion Energy =            205.6728028382567857
    One-Electron Energy =               -1186.9630179638559184
    Two-Electron Energy =                 413.9104280126252320
    Total Energy =                       -567.3797871129738724
  Basis Set: (AUG-CC-PVTZ AUX)
    Blend: AUG-CC-PVTZ-RI
    Molecular point group: c1

    Geometry (in Angstrom), charge = 0, multiplicity = 1:

       Center              X                  Y                   Z               Mass
    ------------   -----------------  -----------------  -----------------  -----------------
         S            1.158963416377     0.060055844012    -0.000219313181    31.972071174400
         N           -1.289830583623    -0.759335155988     0.000254686819    14.003074004430
         C           -0.088491583623     1.234928844012    -0.000026313181    12.000000000000
         C           -1.292190483623     0.571327144012     0.000234786819    12.000000000000
         C           -0.042542583623    -1.180566155988     0.000051686819    12.000000000000
         H            0.130105416377     2.294200844012    -0.000107313181     1.007825032230
         H           -2.269116583623     1.127908844012     0.000401686819     1.007825032230
         H            0.239701416377    -2.226824155988     0.000026686819     1.007825032230

  Basis Set: AUG-CC-PVTZ
    Blend: AUG-CC-PVTZ
  Basis Set: (AUG-CC-PVTZ AUX)
    Blend: AUG-CC-PVTZ-JKFIT
	 Reference Energy          =    -567.3797871129738724 [Eh]
	 Singles Energy            =      -0.0000000000000000 [Eh]
	 Same-Spin Energy          =      -0.2464562450934479 [Eh]
	 Opposite-Spin Energy      =      -0.7301250584305712 [Eh]
	 Correlation Energy        =      -0.9765813035240191 [Eh]
	 Total Energy              =    -568.3563684164978440 [Eh]

	 ================> DF-SCS-MP2 Energies <==================
	-----------------------------------------------------------
	 SCS Same-Spin Scale       =       0.3333333333333333 [-]
	 SCS Opposite-Spin Scale   =       1.2000000000000000 [-]
	 SCS Same-Spin Energy      =      -0.0821520816978160 [Eh]
	 SCS Opposite-Spin Energy  =      -0.8761500701166854 [Eh]
	 SCS Correlation Energy    =      -0.9583021518145014 [Eh]
	 SCS Total Energy          =    -568.3380892647883229 [Eh]
	-----------------------------------------------------------

  Dipole Moment: [D]
     X:     1.4015      Y:     1.1622      Z:    -0.0003     Total:     1.8207

*** Psi4 exiting successfully. Buy a developer a beer!
