                               Psi4 1.3.2 release

  ==> Input File <==

--------------------------------------------------------------------------
#psi4
#
memory 32 gb

molecule  {
0 1
  S        1.1830230     0.0407500    -0.0002230
  N       -1.2921163    -0.8666735     0.0002574
  C       -0.0644320     1.2156230    -0.0000300
  C       -1.2905570     0.5944340     0.0002340
  C       -0.0184830    -1.1998720     0.0000480
  H        0.1541650     2.2748950    -0.0001110
  H       -2.2450570     1.1086030     0.0003980
  H        0.2637610    -2.2461300     0.0000230
units angstrom
no_reorient  #important for SAPT in psi4, default
symmetry c1  #important for SAPT in psi4, default
}

set PROPERTIES_ORIGIN ["COM"]
properties('MP2/aug-cc-pvtz', properties = ['dipole'])
--------------------------------------------------------------------------

    Molecular point group: c1
  Charge       = 0
  Multiplicity = 1
  Basis Set: AUG-CC-PVTZ
    Blend: AUG-CC-PVTZ
  Basis Set: (AUG-CC-PVTZ AUX)
    Blend: AUG-CC-PVTZ-JKFIT

    Orbital Energies [Eh]
    ---------------------

    Doubly Occupied:

       1A    -92.003454     2A    -15.589426     3A    -11.315678
       4A    -11.283473     5A    -11.274968     6A     -9.004479
       7A     -6.685432     8A     -6.684814     9A     -6.684051
      10A     -1.263925    11A     -1.075072    12A     -0.996903
      13A     -0.795475    14A     -0.779456    15A     -0.694065
      16A     -0.577558    17A     -0.572281    18A     -0.555068
      19A     -0.513688    20A     -0.446372    21A     -0.393673
      22A     -0.346750

  @DF-RHF Final Energy:  -567.37493213960488

   => Energetics <=

    Nuclear Repulsion Energy =            202.9742855627900724
    One-Electron Energy =               -1181.6263095552226332
    Two-Electron Energy =                 411.2770918528277093
    Total Energy =                       -567.3749321396048799
  Basis Set: (AUG-CC-PVTZ AUX)
    Blend: AUG-CC-PVTZ-RI
    Molecular point group: c1

    Geometry (in Angstrom), charge = 0, multiplicity = 1:

       Center              X                  Y                   Z               Mass
    ------------   -----------------  -----------------  -----------------  -----------------
         S            1.166469754521     0.068570961198    -0.000220776966    31.972071174400
         N           -1.308669545479    -0.838852538802     0.000259623034    14.003074004430
         C           -0.080985245479     1.243443961198    -0.000027776966    12.000000000000
         C           -1.307110245479     0.622254961198     0.000236223034    12.000000000000
         C           -0.035036245479    -1.172051038802     0.000050223034    12.000000000000
         H            0.137611754521     2.302715961198    -0.000108776966     1.007825032230
         H           -2.261610245479     1.136423961198     0.000400223034     1.007825032230
         H            0.247207754521    -2.218309038802     0.000025223034     1.007825032230

  Basis Set: AUG-CC-PVTZ
    Blend: AUG-CC-PVTZ
  Basis Set: (AUG-CC-PVTZ AUX)
    Blend: AUG-CC-PVTZ-JKFIT
	 Reference Energy          =    -567.3749321396048799 [Eh]
	 Singles Energy            =      -0.0000000000000000 [Eh]
	 Same-Spin Energy          =      -0.2447649969431742 [Eh]
	 Opposite-Spin Energy      =      -0.7314731610121563 [Eh]
	 Correlation Energy        =      -0.9762381579553305 [Eh]
	 Total Energy              =    -568.3511702975602020 [Eh]

	 ================> DF-SCS-MP2 Energies <==================
	-----------------------------------------------------------
	 SCS Same-Spin Scale       =       0.3333333333333333 [-]
	 SCS Opposite-Spin Scale   =       1.2000000000000000 [-]
	 SCS Same-Spin Energy      =      -0.0815883323143914 [Eh]
	 SCS Opposite-Spin Energy  =      -0.8777677932145875 [Eh]
	 SCS Correlation Energy    =      -0.9593561255289790 [Eh]
	 SCS Total Energy          =    -568.3342882651338641 [Eh]
	-----------------------------------------------------------

  Dipole Moment: [D]
     X:     1.4332      Y:     1.3119      Z:    -0.0003     Total:     1.9429

*** Psi4 exiting successfully. Buy a developer a beer!
