                               Psi4 1.3.2 release

  ==> Input File <==

--------------------------------------------------------------------------
#psi4
#
memory 32 gb

molecule  {
0 1
  S        1.1830230     0.0407500    -0.0002230
  N       -1.2657710    -0.7786410     0.0002510
  C       -0.0754600     1.2369272    -0.0000287
  C       -1.2905570     0.5944340     0.0002340
  C       -0.0184830    -1.1998720     0.0000480
  H        0.1541650     2.2748950    -0.0001110
  H       -2.2450570     1.1086030     0.0003980
  H        0.2637610    -2.2461300     0.0000230
units angstrom
no_reorient  #important for SAPT in psi4, default
symmetry c1  #important for SAPT in psi4, default
}

set PROPERTIES_ORIGIN ["COM"]
properties('MP2/aug-cc-pvtz', properties = ['dipole'])
--------------------------------------------------------------------------

    Molecular point group: c1
  Charge       = 0
  Multiplicity = 1
  Basis Set: AUG-CC-PVTZ
    Blend: AUG-CC-PVTZ
  Basis Set: (AUG-CC-PVTZ AUX)
    Blend: AUG-CC-PVTZ-JKFIT

    Orbital Energies [Eh]
    ---------------------

    Doubly Occupied:

       1A    -92.002977     2A    -15.579292     3A    -11.316052
       4A    -11.276515     5A    -11.271714     6A     -9.003370
       7A     -6.684243     8A     -6.683718     9A     -6.683056
      10A     -1.279876    11A     -1.067128    12A     -1.004842
      13A     -0.807320    14A     -0.777064    15A     -0.699222
      16A     -0.597273    17A     -0.573180    18A     -0.561241
      19A     -0.505373    20A     -0.437987    21A     -0.392451
      22A     -0.344876

  @DF-RHF Final Energy:  -567.38269927183865

   => Energetics <=

    Nuclear Repulsion Energy =            204.3610175014228787
    One-Electron Energy =               -1184.3898933146820127
    Two-Electron Energy =                 412.6461765414204592
    Total Energy =                       -567.3826992718386464
  Basis Set: (AUG-CC-PVTZ AUX)
    Blend: AUG-CC-PVTZ-RI
    Molecular point group: c1

    Geometry (in Angstrom), charge = 0, multiplicity = 1:

       Center              X                  Y                   Z               Mass
    ------------   -----------------  -----------------  -----------------  -----------------
         S            1.163686424806     0.051060370938    -0.000219906132    31.972071174400
         N           -1.285107575194    -0.768330629062     0.000254093868    14.003074004430
         C           -0.094796575194     1.247237570938    -0.000025606132    12.000000000000
         C           -1.309893575194     0.604744370938     0.000237093868    12.000000000000
         C           -0.037819575194    -1.189561629062     0.000051093868    12.000000000000
         H            0.134828424806     2.285205370938    -0.000107906132     1.007825032230
         H           -2.264393575194     1.118913370938     0.000401093868     1.007825032230
         H            0.244424424806    -2.235819629062     0.000026093868     1.007825032230

  Basis Set: AUG-CC-PVTZ
    Blend: AUG-CC-PVTZ
  Basis Set: (AUG-CC-PVTZ AUX)
    Blend: AUG-CC-PVTZ-JKFIT
	 Reference Energy          =    -567.3826992718386464 [Eh]
	 Singles Energy            =      -0.0000000000000000 [Eh]
	 Same-Spin Energy          =      -0.2454665353189838 [Eh]
	 Opposite-Spin Energy      =      -0.7300833243237158 [Eh]
	 Correlation Energy        =      -0.9755498596426996 [Eh]
	 Total Energy              =    -568.3582491314813296 [Eh]

	 ================> DF-SCS-MP2 Energies <==================
	-----------------------------------------------------------
	 SCS Same-Spin Scale       =       0.3333333333333333 [-]
	 SCS Opposite-Spin Scale   =       1.2000000000000000 [-]
	 SCS Same-Spin Energy      =      -0.0818221784396612 [Eh]
	 SCS Opposite-Spin Energy  =      -0.8760999891884590 [Eh]
	 SCS Correlation Energy    =      -0.9579221676281202 [Eh]
	 SCS Total Energy          =    -568.3406214394667586 [Eh]
	-----------------------------------------------------------

  Dipole Moment: [D]
     X:     1.3418      Y:     1.1780      Z:    -0.0003     Total:     1.7855

*** Psi4 exiting successfully. Buy a developer a beer!
