                               Psi4 1.3.2 release

  ==> Input File <==

--------------------------------------------------------------------------
#psi4
#
memory 32 gb

molecule  {
0 1
  S        1.1830230     0.0407500    -0.0002230
  N       -1.2657710    -0.7786410     0.0002510
  C       -0.1046746     1.1713717    -0.0000208
  C       -1.2905570     0.5944340     0.0002340
  C       -0.0184830    -1.1998720     0.0000480
  H        0.1541650     2.2748950    -0.0001110
  H       -2.2450570     1.1086030     0.0003980
  H        0.2637610    -2.2461300     0.0000230
units angstrom
no_reorient  #important for SAPT in psi4, default
symmetry c1  #important for SAPT in psi4, default
}

set PROPERTIES_ORIGIN ["COM"]
properties('MP2/aug-cc-pvtz', properties = ['dipole'])
--------------------------------------------------------------------------

    Molecular point group: c1
  Charge       = 0
  Multiplicity = 1
  Basis Set: AUG-CC-PVTZ
    Blend: AUG-CC-PVTZ
  Basis Set: (AUG-CC-PVTZ AUX)
    Blend: AUG-CC-PVTZ-JKFIT

    Orbital Energies [Eh]
    ---------------------

    Doubly Occupied:

       1A    -92.001527     2A    -15.576681     3A    -11.313916
       4A    -11.268427     5A    -11.265909     6A     -9.002672
       7A     -6.683573     8A     -6.682975     9A     -6.682250
      10A     -1.284057    11A     -1.070278    12A     -1.011551
      13A     -0.803296    14A     -0.773585    15A     -0.698737
      16A     -0.595452    17A     -0.565978    18A     -0.555499
      19A     -0.516105    20A     -0.436136    21A     -0.392190
      22A     -0.352017

  @DF-RHF Final Energy:  -567.37968393236042

   => Energetics <=

    Nuclear Repulsion Energy =            205.6974427424472651
    One-Electron Energy =               -1187.0886306637969483
    Two-Electron Energy =                 414.0115039889892046
    Total Energy =                       -567.3796839323604217
  Basis Set: (AUG-CC-PVTZ AUX)
    Blend: AUG-CC-PVTZ-RI
    Molecular point group: c1

    Geometry (in Angstrom), charge = 0, multiplicity = 1:

       Center              X                  Y                   Z               Mass
    ------------   -----------------  -----------------  -----------------  -----------------
         S            1.167810905873     0.060315415284    -0.000221021444    31.972071174400
         N           -1.280983094127    -0.759075584716     0.000252978556    14.003074004430
         C           -0.119886694127     1.190937115284    -0.000018821444    12.000000000000
         C           -1.305769094127     0.613999415284     0.000235978556    12.000000000000
         C           -0.033695094127    -1.180306584716     0.000049978556    12.000000000000
         H            0.138952905873     2.294460415284    -0.000109021444     1.007825032230
         H           -2.260269094127     1.128168415284     0.000399978556     1.007825032230
         H            0.248548905873    -2.226564584716     0.000024978556     1.007825032230

  Basis Set: AUG-CC-PVTZ
    Blend: AUG-CC-PVTZ
  Basis Set: (AUG-CC-PVTZ AUX)
    Blend: AUG-CC-PVTZ-JKFIT
	 Reference Energy          =    -567.3796839323604217 [Eh]
	 Singles Energy            =      -0.0000000000000000 [Eh]
	 Same-Spin Energy          =      -0.2451077990343436 [Eh]
	 Opposite-Spin Energy      =      -0.7292185815244876 [Eh]
	 Correlation Energy        =      -0.9743263805588313 [Eh]
	 Total Energy              =    -568.3540103129192858 [Eh]

	 ================> DF-SCS-MP2 Energies <==================
	-----------------------------------------------------------
	 SCS Same-Spin Scale       =       0.3333333333333333 [-]
	 SCS Opposite-Spin Scale   =       1.2000000000000000 [-]
	 SCS Same-Spin Energy      =      -0.0817025996781145 [Eh]
	 SCS Opposite-Spin Energy  =      -0.8750622978293850 [Eh]
	 SCS Correlation Energy    =      -0.9567648975074996 [Eh]
	 SCS Total Energy          =    -568.3364488298678907 [Eh]
	-----------------------------------------------------------

  Dipole Moment: [D]
     X:     1.3746      Y:     1.1781      Z:    -0.0003     Total:     1.8104

*** Psi4 exiting successfully. Buy a developer a beer!
