                               Psi4 1.4a3.dev225

  ==> Input File <==

--------------------------------------------------------------------------
#psi4
#
memory 32 gb

molecule  {
0 1
  S        1.1830230     0.0407500    -0.0002230
  N       -1.2657710    -0.7786410     0.0002510
  C       -0.0644320     1.2156230    -0.0000300
  C       -1.2896546     0.5444421     0.0002346
  C       -0.0184830    -1.1998720     0.0000480
  H        0.1541650     2.2748950    -0.0001110
  H       -2.2450570     1.1086030     0.0003980
  H        0.2637610    -2.2461300     0.0000230
units angstrom
no_reorient  #important for SAPT in psi4, default
symmetry c1  #important for SAPT in psi4, default
}

set PROPERTIES_ORIGIN ["COM"]
properties('MP2/aug-cc-pvtz', properties = ['dipole'])
--------------------------------------------------------------------------

    Molecular point group: c1
  Charge       = 0
  Multiplicity = 1
  Basis Set: AUG-CC-PVTZ
    Blend: AUG-CC-PVTZ
  Basis Set: (AUG-CC-PVTZ AUX)
    Blend: AUG-CC-PVTZ-JKFIT

    Orbital Energies [Eh]
    ---------------------

    Doubly Occupied:

       1A    -92.005547     2A    -15.576969     3A    -11.314574
       4A    -11.276386     5A    -11.271544     6A     -9.006029
       7A     -6.686856     8A     -6.686405     9A     -6.685762
      10A     -1.293928    11A     -1.073655    12A     -1.000401
      13A     -0.809272    14A     -0.772674    15A     -0.699037
      16A     -0.600214    17A     -0.569898    18A     -0.567872
      19A     -0.501452    20A     -0.440811    21A     -0.398920
      22A     -0.336518

  @DF-RHF Final Energy:  -567.37884390545753

   => Energetics <=

    Nuclear Repulsion Energy =            205.3830050806548115
    One-Electron Energy =               -1186.3742537900793650
    Two-Electron Energy =                 413.6124048039670242
    Total Energy =                       -567.3788439054575292
  Basis Set: (AUG-CC-PVTZ AUX)
    Blend: AUG-CC-PVTZ-RI
    Molecular point group: c1

    Geometry (in Angstrom), charge = 0, multiplicity = 1:

       Center              X                  Y                   Z               Mass
    ------------   -----------------  -----------------  -----------------  -----------------
         S            1.162002105702     0.061125866086    -0.000219807307    31.972071174400
         N           -1.286791894298    -0.758265133914     0.000254192693    14.003074004430
         C           -0.085452894298     1.235998866086    -0.000026807307    12.000000000000
         C           -1.310675494298     0.564817966086     0.000237792693    12.000000000000
         C           -0.039503894298    -1.179496133914     0.000051192693    12.000000000000
         H            0.133144105702     2.295270866086    -0.000107807307     1.007825032230
         H           -2.266077894298     1.128978866086     0.000401192693     1.007825032230
         H            0.242740105702    -2.225754133914     0.000026192693     1.007825032230

  Basis Set: AUG-CC-PVTZ
    Blend: AUG-CC-PVTZ
  Basis Set: (AUG-CC-PVTZ AUX)
    Blend: AUG-CC-PVTZ-JKFIT
	 Reference Energy          =    -567.3788439054575292 [Eh]
	 Singles Energy            =      -0.0000000000000000 [Eh]
	 Same-Spin Energy          =      -0.2469573604071662 [Eh]
	 Opposite-Spin Energy      =      -0.7307386977675496 [Eh]
	 Correlation Energy        =      -0.9776960581747158 [Eh]
	 Total Energy              =    -568.3565399636322582 [Eh]

	 ================> DF-SCS-MP2 Energies <==================
	-----------------------------------------------------------
	 SCS Same-Spin Scale       =       0.3333333333333333 [-]
	 SCS Opposite-Spin Scale   =       1.2000000000000000 [-]
	 SCS Same-Spin Energy      =      -0.0823191201357221 [Eh]
	 SCS Opposite-Spin Energy  =      -0.8768864373210595 [Eh]
	 SCS Correlation Energy    =      -0.9592055574567816 [Eh]
	 SCS Total Energy          =    -568.3380494629143413 [Eh]
	-----------------------------------------------------------

  Dipole Moment: [D]
     X:     1.3876      Y:     1.1641      Z:    -0.0003     Total:     1.8113

*** Psi4 exiting successfully. Buy a developer a beer!
