                               Psi4 1.3.2 release

  ==> Input File <==

--------------------------------------------------------------------------
#psi4
#
memory 32 gb

molecule  {
0 1
  S        1.3061213    -0.0916378    -0.0002389
  N       -1.2657710    -0.7786410     0.0002510
  C       -0.0644320     1.2156230    -0.0000300
  C       -1.2905570     0.5944340     0.0002340
  C       -0.0184830    -1.1998720     0.0000480
  H        0.1541650     2.2748950    -0.0001110
  H       -2.2450570     1.1086030     0.0003980
  H        0.2637610    -2.2461300     0.0000230
units angstrom
no_reorient  #important for SAPT in psi4, default
symmetry c1  #important for SAPT in psi4, default
}

set PROPERTIES_ORIGIN ["COM"]
properties('MP2/aug-cc-pvtz', properties = ['dipole'])
--------------------------------------------------------------------------

    Molecular point group: c1
  Charge       = 0
  Multiplicity = 1
  Basis Set: AUG-CC-PVTZ
    Blend: AUG-CC-PVTZ
  Basis Set: (AUG-CC-PVTZ AUX)
    Blend: AUG-CC-PVTZ-JKFIT

    Orbital Energies [Eh]
    ---------------------

    Doubly Occupied:

       1A    -92.008085     2A    -15.578819     3A    -11.321366
       4A    -11.284801     5A    -11.282110     6A     -9.006151
       7A     -6.687006     8A     -6.686052     9A     -6.685639
      10A     -1.274630    11A     -1.042830    12A     -1.010536
      13A     -0.811381    14A     -0.768906    15A     -0.690462
      16A     -0.601523    17A     -0.559183    18A     -0.553732
      19A     -0.494418    20A     -0.439133    21A     -0.389297
      22A     -0.348512

  @DF-RHF Final Energy:  -567.36673327859182

   => Energetics <=

    Nuclear Repulsion Energy =            199.9558521069285462
    One-Electron Energy =               -1175.5960223690574367
    Two-Electron Energy =                 408.2734369835370671
    Total Energy =                       -567.3667332785918234
  Basis Set: (AUG-CC-PVTZ AUX)
    Blend: AUG-CC-PVTZ-RI
    Molecular point group: c1

    Geometry (in Angstrom), charge = 0, multiplicity = 1:

       Center              X                  Y                   Z               Mass
    ------------   -----------------  -----------------  -----------------  -----------------
         S            1.238924611361    -0.028522306465    -0.000229641844    31.972071174400
         N           -1.332967688639    -0.715525506465     0.000260258156    14.003074004430
         C           -0.131628688639     1.278738493535    -0.000020741844    12.000000000000
         C           -1.357753688639     0.657549493535     0.000243258156    12.000000000000
         C           -0.085679688639    -1.136756506465     0.000057258156    12.000000000000
         H            0.086968311361     2.338010493535    -0.000101741844     1.007825032230
         H           -2.312253688639     1.171718493535     0.000407258156     1.007825032230
         H            0.196564311361    -2.183014506465     0.000032258156     1.007825032230

  Basis Set: AUG-CC-PVTZ
    Blend: AUG-CC-PVTZ
  Basis Set: (AUG-CC-PVTZ AUX)
    Blend: AUG-CC-PVTZ-JKFIT
	 Reference Energy          =    -567.3667332785918234 [Eh]
	 Singles Energy            =      -0.0000000000000000 [Eh]
	 Same-Spin Energy          =      -0.2441122000265057 [Eh]
	 Opposite-Spin Energy      =      -0.7319266375368905 [Eh]
	 Correlation Energy        =      -0.9760388375633962 [Eh]
	 Total Energy              =    -568.3427721161551744 [Eh]

	 ================> DF-SCS-MP2 Energies <==================
	-----------------------------------------------------------
	 SCS Same-Spin Scale       =       0.3333333333333333 [-]
	 SCS Opposite-Spin Scale   =       1.2000000000000000 [-]
	 SCS Same-Spin Energy      =      -0.0813707333421685 [Eh]
	 SCS Opposite-Spin Energy  =      -0.8783119650442686 [Eh]
	 SCS Correlation Energy    =      -0.9596826983864370 [Eh]
	 SCS Total Energy          =    -568.3264159769782964 [Eh]
	-----------------------------------------------------------

  Dipole Moment: [D]
     X:     1.2733      Y:     1.1380      Z:    -0.0003     Total:     1.7078

*** Psi4 exiting successfully. Buy a developer a beer!
