                               Psi4 1.3.2 release

  ==> Input File <==

--------------------------------------------------------------------------
#psi4
#
memory 32 gb

molecule  {
0 1
  S        1.1830230     0.0407500    -0.0002230
  N       -1.2657710    -0.7786410     0.0002510
  C       -0.0644320     1.2156230    -0.0000300
  C       -1.1947158     0.5928182     0.0002179
  C       -0.0184830    -1.1998720     0.0000480
  H        0.1541650     2.2748950    -0.0001110
  H       -2.2450570     1.1086030     0.0003980
  H        0.2637610    -2.2461300     0.0000230
units angstrom
no_reorient  #important for SAPT in psi4, default
symmetry c1  #important for SAPT in psi4, default
}

set PROPERTIES_ORIGIN ["COM"]
properties('MP2/aug-cc-pvtz', properties = ['dipole'])
--------------------------------------------------------------------------

    Molecular point group: c1
  Charge       = 0
  Multiplicity = 1
  Basis Set: AUG-CC-PVTZ
    Blend: AUG-CC-PVTZ
  Basis Set: (AUG-CC-PVTZ AUX)
    Blend: AUG-CC-PVTZ-JKFIT

    Orbital Energies [Eh]
    ---------------------

    Doubly Occupied:

       1A    -91.999923     2A    -15.579586     3A    -11.317281
       4A    -11.270073     5A    -11.260500     6A     -9.001282
       7A     -6.682150     8A     -6.681704     9A     -6.680867
      10A     -1.290059    11A     -1.081411    12A     -1.008475
      13A     -0.810762    14A     -0.767134    15A     -0.703545
      16A     -0.576404    17A     -0.576248    18A     -0.570801
      19A     -0.497642    20A     -0.445109    21A     -0.393959
      22A     -0.357384

  @DF-RHF Final Energy:  -567.37261119738582

   => Energetics <=

    Nuclear Repulsion Energy =            206.5518119771206784
    One-Electron Energy =               -1188.7442509531731503
    Two-Electron Energy =                 414.8198277786667063
    Total Energy =                       -567.3726111973858224
  Basis Set: (AUG-CC-PVTZ AUX)
    Blend: AUG-CC-PVTZ-RI
    Molecular point group: c1

    Geometry (in Angstrom), charge = 0, multiplicity = 1:

       Center              X                  Y                   Z               Mass
    ------------   -----------------  -----------------  -----------------  -----------------
         S            1.148598763432     0.054296188168    -0.000217449621    31.972071174400
         N           -1.300195236568    -0.765094811832     0.000256550379    14.003074004430
         C           -0.098856236568     1.229169188168    -0.000024449621    12.000000000000
         C           -1.229140036568     0.606364388168     0.000223450379    12.000000000000
         C           -0.052907236568    -1.186325811832     0.000053550379    12.000000000000
         H            0.119740763432     2.288441188168    -0.000105449621     1.007825032230
         H           -2.279481236568     1.122149188168     0.000403550379     1.007825032230
         H            0.229336763432    -2.232583811832     0.000028550379     1.007825032230

  Basis Set: AUG-CC-PVTZ
    Blend: AUG-CC-PVTZ
  Basis Set: (AUG-CC-PVTZ AUX)
    Blend: AUG-CC-PVTZ-JKFIT
	 Reference Energy          =    -567.3726111973858224 [Eh]
	 Singles Energy            =      -0.0000000000000000 [Eh]
	 Same-Spin Energy          =      -0.2446317768612850 [Eh]
	 Opposite-Spin Energy      =      -0.7283881230730165 [Eh]
	 Correlation Energy        =      -0.9730198999343014 [Eh]
	 Total Energy              =    -568.3456310973201653 [Eh]

	 ================> DF-SCS-MP2 Energies <==================
	-----------------------------------------------------------
	 SCS Same-Spin Scale       =       0.3333333333333333 [-]
	 SCS Opposite-Spin Scale   =       1.2000000000000000 [-]
	 SCS Same-Spin Energy      =      -0.0815439256204283 [Eh]
	 SCS Opposite-Spin Energy  =      -0.8740657476876198 [Eh]
	 SCS Correlation Energy    =      -0.9556096733080481 [Eh]
	 SCS Total Energy          =    -568.3282208706938263 [Eh]
	-----------------------------------------------------------

  Dipole Moment: [D]
     X:     1.4213      Y:     1.1523      Z:    -0.0003     Total:     1.8298

*** Psi4 exiting successfully. Buy a developer a beer!
