                               Psi4 1.3.2 release

  ==> Input File <==

--------------------------------------------------------------------------
#psi4
#
memory 32 gb

molecule  {
0 1
  S        1.1830230     0.0407500    -0.0002230
  N       -1.2657710    -0.7786410     0.0002510
  C       -0.0644320     1.2156230    -0.0000300
  C       -1.2426223     0.5944626     0.0002259
  C       -0.0184830    -1.1998720     0.0000480
  H        0.1541650     2.2748950    -0.0001110
  H       -2.2450570     1.1086030     0.0003980
  H        0.2637610    -2.2461300     0.0000230
units angstrom
no_reorient  #important for SAPT in psi4, default
symmetry c1  #important for SAPT in psi4, default
}

set PROPERTIES_ORIGIN ["COM"]
properties('MP2/aug-cc-pvtz', properties = ['dipole'])
--------------------------------------------------------------------------

    Molecular point group: c1
  Charge       = 0
  Multiplicity = 1
  Basis Set: AUG-CC-PVTZ
    Blend: AUG-CC-PVTZ
  Basis Set: (AUG-CC-PVTZ AUX)
    Blend: AUG-CC-PVTZ-JKFIT

    Orbital Energies [Eh]
    ---------------------

    Doubly Occupied:

       1A    -92.001576     2A    -15.579097     3A    -11.315838
       4A    -11.272579     5A    -11.265798     6A     -9.002645
       7A     -6.683524     8A     -6.683041     9A     -6.682275
      10A     -1.285106    11A     -1.075197    12A     -1.006264
      13A     -0.807468    14A     -0.771488    15A     -0.701158
      16A     -0.585172    17A     -0.572716    18A     -0.566278
      19A     -0.505684    20A     -0.441616    21A     -0.393762
      22A     -0.350293

  @DF-RHF Final Energy:  -567.38134477684298

   => Energetics <=

    Nuclear Repulsion Energy =            205.6629325070093159
    One-Electron Energy =               -1186.9914047181141541
    Two-Electron Energy =                 413.9471274342617448
    Total Energy =                       -567.3813447768429796
  Basis Set: (AUG-CC-PVTZ AUX)
    Blend: AUG-CC-PVTZ-RI
    Molecular point group: c1

    Geometry (in Angstrom), charge = 0, multiplicity = 1:

       Center              X                  Y                   Z               Mass
    ------------   -----------------  -----------------  -----------------  -----------------
         S            1.155362143804     0.054064033811    -0.000218579051    31.972071174400
         N           -1.293431856196    -0.765326966189     0.000255420949    14.003074004430
         C           -0.092092856196     1.228937033811    -0.000025579051    12.000000000000
         C           -1.270283156196     0.607776633811     0.000230320949    12.000000000000
         C           -0.046143856196    -1.186557966189     0.000052420949    12.000000000000
         H            0.126504143804     2.288209033811    -0.000106579051     1.007825032230
         H           -2.272717856196     1.121917033811     0.000402420949     1.007825032230
         H            0.236100143804    -2.232815966189     0.000027420949     1.007825032230

  Basis Set: AUG-CC-PVTZ
    Blend: AUG-CC-PVTZ
  Basis Set: (AUG-CC-PVTZ AUX)
    Blend: AUG-CC-PVTZ-JKFIT
	 Reference Energy          =    -567.3813447768429796 [Eh]
	 Singles Energy            =      -0.0000000000000000 [Eh]
	 Same-Spin Energy          =      -0.2451196141650439 [Eh]
	 Opposite-Spin Energy      =      -0.7290985666448364 [Eh]
	 Correlation Energy        =      -0.9742181808098803 [Eh]
	 Total Energy              =    -568.3555629576528645 [Eh]

	 ================> DF-SCS-MP2 Energies <==================
	-----------------------------------------------------------
	 SCS Same-Spin Scale       =       0.3333333333333333 [-]
	 SCS Opposite-Spin Scale   =       1.2000000000000000 [-]
	 SCS Same-Spin Energy      =      -0.0817065380550146 [Eh]
	 SCS Opposite-Spin Energy  =      -0.8749182799738037 [Eh]
	 SCS Correlation Energy    =      -0.9566248180288183 [Eh]
	 SCS Total Energy          =    -568.3379695948717654 [Eh]
	-----------------------------------------------------------

  Dipole Moment: [D]
     X:     1.3916      Y:     1.1691      Z:    -0.0003     Total:     1.8175

*** Psi4 exiting successfully. Buy a developer a beer!
