                               Psi4 1.4a3.dev225

  ==> Input File <==

--------------------------------------------------------------------------
#psi4
#
memory 32 gb

molecule  {
0 1
  S        1.1830230     0.0407500    -0.0002230
  N       -1.2657710    -0.7786410     0.0002510
  C       -0.0644320     1.2156230    -0.0000300
  C       -1.2905570     0.5944340     0.0002340
  C       -0.0374316    -1.1934727     0.0000511
  H        0.1541650     2.2748950    -0.0001110
  H       -2.2450570     1.1086030     0.0003980
  H        0.2637610    -2.2461300     0.0000230
units angstrom
no_reorient  #important for SAPT in psi4, default
symmetry c1  #important for SAPT in psi4, default
}

set PROPERTIES_ORIGIN ["COM"]
properties('MP2/aug-cc-pvtz', properties = ['dipole'])
--------------------------------------------------------------------------

    Molecular point group: c1
  Charge       = 0
  Multiplicity = 1
  Basis Set: AUG-CC-PVTZ
    Blend: AUG-CC-PVTZ
  Basis Set: (AUG-CC-PVTZ AUX)
    Blend: AUG-CC-PVTZ-JKFIT

    Orbital Energies [Eh]
    ---------------------

    Doubly Occupied:

       1A    -92.001660     2A    -15.577922     3A    -11.313998
       4A    -11.275298     5A    -11.271482     6A     -9.002489
       7A     -6.683370     8A     -6.682837     9A     -6.682125
      10A     -1.286730    11A     -1.071930    12A     -1.002618
      13A     -0.804904    14A     -0.775776    15A     -0.698632
      16A     -0.597876    17A     -0.567348    18A     -0.564670
      19A     -0.509811    20A     -0.437279    21A     -0.396243
      22A     -0.343226

  @DF-RHF Final Energy:  -567.38368188686070

   => Energetics <=

    Nuclear Repulsion Energy =            204.9932117946750623
    One-Electron Energy =               -1185.6573397004578965
    Two-Electron Energy =                 413.2804460189221345
    Total Energy =                       -567.3836818868606997
  Basis Set: (AUG-CC-PVTZ AUX)
    Blend: AUG-CC-PVTZ-RI
    Molecular point group: c1

    Geometry (in Angstrom), charge = 0, multiplicity = 1:

       Center              X                  Y                   Z               Mass
    ------------   -----------------  -----------------  -----------------  -----------------
         S            1.164804645310     0.053164626271    -0.000220160253    31.972071174400
         N           -1.283989354690    -0.766226373729     0.000253839747    14.003074004430
         C           -0.082650354690     1.228037626271    -0.000027160253    12.000000000000
         C           -1.308775354690     0.606848626271     0.000236839747    12.000000000000
         C           -0.055649954690    -1.181058073729     0.000053939747    12.000000000000
         H            0.135946645310     2.287309626271    -0.000108160253     1.007825032230
         H           -2.263275354690     1.121017626271     0.000400839747     1.007825032230
         H            0.245542645310    -2.233715373729     0.000025839747     1.007825032230

  Basis Set: AUG-CC-PVTZ
    Blend: AUG-CC-PVTZ
  Basis Set: (AUG-CC-PVTZ AUX)
    Blend: AUG-CC-PVTZ-JKFIT
	 Reference Energy          =    -567.3836818868606997 [Eh]
	 Singles Energy            =      -0.0000000000000000 [Eh]
	 Same-Spin Energy          =      -0.2453017471017819 [Eh]
	 Opposite-Spin Energy      =      -0.7294411968355532 [Eh]
	 Correlation Energy        =      -0.9747429439373351 [Eh]
	 Total Energy              =    -568.3584248307980715 [Eh]

	 ================> DF-SCS-MP2 Energies <==================
	-----------------------------------------------------------
	 SCS Same-Spin Scale       =       0.3333333333333333 [-]
	 SCS Opposite-Spin Scale   =       1.2000000000000000 [-]
	 SCS Same-Spin Energy      =      -0.0817672490339273 [Eh]
	 SCS Opposite-Spin Energy  =      -0.8753294362026638 [Eh]
	 SCS Correlation Energy    =      -0.9570966852365911 [Eh]
	 SCS Total Energy          =    -568.3407785720972925 [Eh]
	-----------------------------------------------------------

  Dipole Moment: [D]
     X:     1.3226      Y:     1.1473      Z:    -0.0003     Total:     1.7509

*** Psi4 exiting successfully. Buy a developer a beer!
