                               Psi4 1.3.2 release

  ==> Input File <==

--------------------------------------------------------------------------
#psi4
#
memory 32 gb

molecule  {
0 1
  S        1.1830230     0.0407500    -0.0002230
  N       -1.2503104    -0.7353679     0.0002474
  C       -0.0644320     1.2156230    -0.0000300
  C       -1.2905570     0.5944340     0.0002340
  C       -0.0184830    -1.1998720     0.0000480
  H        0.1541650     2.2748950    -0.0001110
  H       -2.2450570     1.1086030     0.0003980
  H        0.2637610    -2.2461300     0.0000230
units angstrom
no_reorient  #important for SAPT in psi4, default
symmetry c1  #important for SAPT in psi4, default
}

set PROPERTIES_ORIGIN ["COM"]
properties('MP2/aug-cc-pvtz', properties = ['dipole'])
--------------------------------------------------------------------------

    Molecular point group: c1
  Charge       = 0
  Multiplicity = 1
  Basis Set: AUG-CC-PVTZ
    Blend: AUG-CC-PVTZ
  Basis Set: (AUG-CC-PVTZ AUX)
    Blend: AUG-CC-PVTZ-JKFIT

    Orbital Energies [Eh]
    ---------------------

    Doubly Occupied:

       1A    -92.003557     2A    -15.573416     3A    -11.313810
       4A    -11.270970     5A    -11.269170     6A     -9.004201
       7A     -6.685041     8A     -6.684586     9A     -6.683918
      10A     -1.290341    11A     -1.069231    12A     -1.007067
      13A     -0.808975    14A     -0.775958    15A     -0.700070
      16A     -0.605703    17A     -0.567922    18A     -0.566911
      19A     -0.508712    20A     -0.431691    21A     -0.395085
      22A     -0.340943

  @DF-RHF Final Energy:  -567.38178509493946

   => Energetics <=

    Nuclear Repulsion Energy =            205.8051653396776715
    One-Electron Energy =               -1187.2593449196326674
    Two-Electron Energy =                 414.0723944850155931
    Total Energy =                       -567.3817850949394597
  Basis Set: (AUG-CC-PVTZ AUX)
    Blend: AUG-CC-PVTZ-RI
    Molecular point group: c1

    Geometry (in Angstrom), charge = 0, multiplicity = 1:

       Center              X                  Y                   Z               Mass
    ------------   -----------------  -----------------  -----------------  -----------------
         S            1.159582453179     0.046939056727    -0.000219129518    31.972071174400
         N           -1.273750946821    -0.729178843273     0.000251270482    14.003074004430
         C           -0.087872546821     1.221812056727    -0.000026129518    12.000000000000
         C           -1.313997546821     0.600623056727     0.000237870482    12.000000000000
         C           -0.041923546821    -1.193682943273     0.000051870482    12.000000000000
         H            0.130724453179     2.281084056727    -0.000107129518     1.007825032230
         H           -2.268497546821     1.114792056727     0.000401870482     1.007825032230
         H            0.240320453179    -2.239940943273     0.000026870482     1.007825032230

  Basis Set: AUG-CC-PVTZ
    Blend: AUG-CC-PVTZ
  Basis Set: (AUG-CC-PVTZ AUX)
    Blend: AUG-CC-PVTZ-JKFIT
	 Reference Energy          =    -567.3817850949394597 [Eh]
	 Singles Energy            =      -0.0000000000000000 [Eh]
	 Same-Spin Energy          =      -0.2464909529218555 [Eh]
	 Opposite-Spin Energy      =      -0.7299382449123316 [Eh]
	 Correlation Energy        =      -0.9764291978341871 [Eh]
	 Total Energy              =    -568.3582142927735958 [Eh]

	 ================> DF-SCS-MP2 Energies <==================
	-----------------------------------------------------------
	 SCS Same-Spin Scale       =       0.3333333333333333 [-]
	 SCS Opposite-Spin Scale   =       1.2000000000000000 [-]
	 SCS Same-Spin Energy      =      -0.0821636509739518 [Eh]
	 SCS Opposite-Spin Energy  =      -0.8759258938947979 [Eh]
	 SCS Correlation Energy    =      -0.9580895448687498 [Eh]
	 SCS Total Energy          =    -568.3398746398081585 [Eh]
	-----------------------------------------------------------

  Dipole Moment: [D]
     X:     1.3180      Y:     1.1019      Z:    -0.0003     Total:     1.7179

*** Psi4 exiting successfully. Buy a developer a beer!
