                               Psi4 1.3.2 release

  ==> Input File <==

--------------------------------------------------------------------------
#psi4
#
memory 32 gb

molecule  {
0 1
  S        1.1830230     0.0407500    -0.0002230
  N       -1.2657710    -0.7786410     0.0002510
  C       -0.1433483     1.1257430    -0.0000119
  C       -1.2905570     0.5944340     0.0002340
  C       -0.0184830    -1.1998720     0.0000480
  H        0.1541650     2.2748950    -0.0001110
  H       -2.2450570     1.1086030     0.0003980
  H        0.2637610    -2.2461300     0.0000230
units angstrom
no_reorient  #important for SAPT in psi4, default
symmetry c1  #important for SAPT in psi4, default
}

set PROPERTIES_ORIGIN ["COM"]
properties('MP2/aug-cc-pvtz', properties = ['dipole'])
--------------------------------------------------------------------------

    Molecular point group: c1
  Charge       = 0
  Multiplicity = 1
  Basis Set: AUG-CC-PVTZ
    Blend: AUG-CC-PVTZ
  Basis Set: (AUG-CC-PVTZ AUX)
    Blend: AUG-CC-PVTZ-JKFIT

    Orbital Energies [Eh]
    ---------------------

    Doubly Occupied:

       1A    -92.000170     2A    -15.574769     3A    -11.313494
       4A    -11.264815     5A    -11.256946     6A     -9.001603
       7A     -6.682516     8A     -6.681839     9A     -6.681088
      10A     -1.288790    11A     -1.070123    12A     -1.020397
      13A     -0.805486    14A     -0.768657    15A     -0.698223
      16A     -0.595274    17A     -0.570637    18A     -0.545571
      19A     -0.516257    20A     -0.434308    21A     -0.390680
      22A     -0.361263

  @DF-RHF Final Energy:  -567.36516442545974

   => Energetics <=

    Nuclear Repulsion Energy =            206.6452477905644969
    One-Electron Energy =               -1188.9750140704059049
    Two-Electron Energy =                 414.9646018543815558
    Total Energy =                       -567.3651644254598523
  Basis Set: (AUG-CC-PVTZ AUX)
    Blend: AUG-CC-PVTZ-RI
    Molecular point group: c1

    Geometry (in Angstrom), charge = 0, multiplicity = 1:

       Center              X                  Y                   Z               Mass
    ------------   -----------------  -----------------  -----------------  -----------------
         S            1.173270810969     0.066757218671    -0.000222277935    31.972071174400
         N           -1.275523189031    -0.752633781329     0.000251722065    14.003074004430
         C           -0.153100489031     1.151750218671    -0.000011177935    12.000000000000
         C           -1.300309189031     0.620441218671     0.000234722065    12.000000000000
         C           -0.028235189031    -1.173864781329     0.000048722065    12.000000000000
         H            0.144412810969     2.300902218671    -0.000110277935     1.007825032230
         H           -2.254809189031     1.134610218671     0.000398722065     1.007825032230
         H            0.254008810969    -2.220122781329     0.000023722065     1.007825032230

  Basis Set: AUG-CC-PVTZ
    Blend: AUG-CC-PVTZ
  Basis Set: (AUG-CC-PVTZ AUX)
    Blend: AUG-CC-PVTZ-JKFIT
	 Reference Energy          =    -567.3651644254597386 [Eh]
	 Singles Energy            =      -0.0000000000000000 [Eh]
	 Same-Spin Energy          =      -0.2446635516787222 [Eh]
	 Opposite-Spin Energy      =      -0.7288344035680997 [Eh]
	 Correlation Energy        =      -0.9734979552468219 [Eh]
	 Total Energy              =    -568.3386623807065234 [Eh]

	 ================> DF-SCS-MP2 Energies <==================
	-----------------------------------------------------------
	 SCS Same-Spin Scale       =       0.3333333333333333 [-]
	 SCS Opposite-Spin Scale   =       1.2000000000000000 [-]
	 SCS Same-Spin Energy      =      -0.0815545172262407 [Eh]
	 SCS Opposite-Spin Energy  =      -0.8746012842817196 [Eh]
	 SCS Correlation Energy    =      -0.9561558015079603 [Eh]
	 SCS Total Energy          =    -568.3213202269677140 [Eh]
	-----------------------------------------------------------

  Dipole Moment: [D]
     X:     1.3714      Y:     1.1565      Z:    -0.0003     Total:     1.7939

*** Psi4 exiting successfully. Buy a developer a beer!
