                               Psi4 1.3.2 release

  ==> Input File <==

--------------------------------------------------------------------------
#psi4
#
memory 32 gb

molecule  {
0 1
  S        1.2255882    -0.0019377    -0.0002286
  N       -1.2657710    -0.7786410     0.0002510
  C       -0.0644320     1.2156230    -0.0000300
  C       -1.2905570     0.5944340     0.0002340
  C       -0.0184830    -1.1998720     0.0000480
  H        0.1541650     2.2748950    -0.0001110
  H       -2.2450570     1.1086030     0.0003980
  H        0.2637610    -2.2461300     0.0000230
units angstrom
no_reorient  #important for SAPT in psi4, default
symmetry c1  #important for SAPT in psi4, default
}

set PROPERTIES_ORIGIN ["COM"]
properties('MP2/aug-cc-pvtz', properties = ['dipole'])
--------------------------------------------------------------------------

    Molecular point group: c1
  Charge       = 0
  Multiplicity = 1
  Basis Set: AUG-CC-PVTZ
    Blend: AUG-CC-PVTZ
  Basis Set: (AUG-CC-PVTZ AUX)
    Blend: AUG-CC-PVTZ-JKFIT

    Orbital Energies [Eh]
    ---------------------

    Doubly Occupied:

       1A    -92.005405     2A    -15.578945     3A    -11.317000
       4A    -11.277747     5A    -11.275579     6A     -9.005041
       7A     -6.685917     8A     -6.685250     9A     -6.684676
      10A     -1.278119    11A     -1.059809    12A     -1.006198
      13A     -0.806814    14A     -0.774081    15A     -0.695088
      16A     -0.597794    17A     -0.564469    18A     -0.558934
      19A     -0.507397    20A     -0.438471    21A     -0.391409
      22A     -0.345743

  @DF-RHF Final Energy:  -567.38054657508735

   => Energetics <=

    Nuclear Repulsion Energy =            203.0939272214376103
    One-Electron Energy =               -1181.8691741518255185
    Two-Electron Energy =                 411.3947003553005857
    Total Energy =                       -567.3805465750872372
  Basis Set: (AUG-CC-PVTZ AUX)
    Blend: AUG-CC-PVTZ-RI
    Molecular point group: c1

    Geometry (in Angstrom), charge = 0, multiplicity = 1:

       Center              X                  Y                   Z               Mass
    ------------   -----------------  -----------------  -----------------  -----------------
         S            1.188683885482     0.027437269604    -0.000223216170    31.972071174400
         N           -1.302675314518    -0.749266030396     0.000256383830    14.003074004430
         C           -0.101336314518     1.244997969604    -0.000024616170    12.000000000000
         C           -1.327461314518     0.623808969604     0.000239383830    12.000000000000
         C           -0.055387314518    -1.170497030396     0.000053383830    12.000000000000
         H            0.117260685482     2.304269969604    -0.000105616170     1.007825032230
         H           -2.281961314518     1.137977969604     0.000403383830     1.007825032230
         H            0.226856685482    -2.216755030396     0.000028383830     1.007825032230

  Basis Set: AUG-CC-PVTZ
    Blend: AUG-CC-PVTZ
  Basis Set: (AUG-CC-PVTZ AUX)
    Blend: AUG-CC-PVTZ-JKFIT
	 Reference Energy          =    -567.3805465750873509 [Eh]
	 Singles Energy            =      -0.0000000000000000 [Eh]
	 Same-Spin Energy          =      -0.2451002663138043 [Eh]
	 Opposite-Spin Energy      =      -0.7305919276788684 [Eh]
	 Correlation Energy        =      -0.9756921939926726 [Eh]
	 Total Energy              =    -568.3562387690800506 [Eh]

	 ================> DF-SCS-MP2 Energies <==================
	-----------------------------------------------------------
	 SCS Same-Spin Scale       =       0.3333333333333333 [-]
	 SCS Opposite-Spin Scale   =       1.2000000000000000 [-]
	 SCS Same-Spin Energy      =      -0.0817000887712681 [Eh]
	 SCS Opposite-Spin Energy  =      -0.8767103132146420 [Eh]
	 SCS Correlation Energy    =      -0.9584104019859101 [Eh]
	 SCS Total Energy          =    -568.3389569770732805 [Eh]
	-----------------------------------------------------------

  Dipole Moment: [D]
     X:     1.3417      Y:     1.1556      Z:    -0.0003     Total:     1.7708

*** Psi4 exiting successfully. Buy a developer a beer!
