                               Psi4 1.3.2 release

  ==> Input File <==

--------------------------------------------------------------------------
#psi4
#
memory 32 gb

molecule  {
0 1
  S        1.1830230     0.0407500    -0.0002230
  N       -1.2657710    -0.7786410     0.0002510
  C       -0.0644320     1.2156230    -0.0000300
  C       -1.1121471     0.6848214     0.0001956
  C       -0.0184830    -1.1998720     0.0000480
  H        0.1541650     2.2748950    -0.0001110
  H       -2.2450570     1.1086030     0.0003980
  H        0.2637610    -2.2461300     0.0000230
units angstrom
no_reorient  #important for SAPT in psi4, default
symmetry c1  #important for SAPT in psi4, default
}

set PROPERTIES_ORIGIN ["COM"]
properties('MP2/aug-cc-pvtz', properties = ['dipole'])
--------------------------------------------------------------------------

    Molecular point group: c1
  Charge       = 0
  Multiplicity = 1
  Basis Set: AUG-CC-PVTZ
    Blend: AUG-CC-PVTZ
  Basis Set: (AUG-CC-PVTZ AUX)
    Blend: AUG-CC-PVTZ-JKFIT

    Orbital Energies [Eh]
    ---------------------

    Doubly Occupied:

       1A    -91.994596     2A    -15.583061     3A    -11.317830
       4A    -11.261211     5A    -11.245991     6A     -8.996766
       7A     -6.677694     8A     -6.677185     9A     -6.676160
      10A     -1.278211    11A     -1.098162    12A     -1.012983
      13A     -0.808737    14A     -0.761726    15A     -0.702740
      16A     -0.581804    17A     -0.572909    18A     -0.558917
      19A     -0.496339    20A     -0.436677    21A     -0.397966
      22A     -0.374599

  @DF-RHF Final Energy:  -567.32394028550232

   => Energetics <=

    Nuclear Repulsion Energy =            207.2733074713474650
    One-Electron Energy =               -1190.1699705415396693
    Two-Electron Energy =                 415.5727227846898586
    Total Energy =                       -567.3239402855023172
  Basis Set: (AUG-CC-PVTZ AUX)
    Blend: AUG-CC-PVTZ-RI
    Molecular point group: c1

    Geometry (in Angstrom), charge = 0, multiplicity = 1:

       Center              X                  Y                   Z               Mass
    ------------   -----------------  -----------------  -----------------  -----------------
         S            1.136941816569     0.041307290273    -0.000214301335    31.972071174400
         N           -1.311852183431    -0.778083709727     0.000259698665    14.003074004430
         C           -0.110513183431     1.216180290273    -0.000021301335    12.000000000000
         C           -1.158228283431     0.685378690273     0.000204298665    12.000000000000
         C           -0.064564183431    -1.199314709727     0.000056698665    12.000000000000
         H            0.108083816569     2.275452290273    -0.000102301335     1.007825032230
         H           -2.291138183431     1.109160290273     0.000406698665     1.007825032230
         H            0.217679816569    -2.245572709727     0.000031698665     1.007825032230

  Basis Set: AUG-CC-PVTZ
    Blend: AUG-CC-PVTZ
  Basis Set: (AUG-CC-PVTZ AUX)
    Blend: AUG-CC-PVTZ-JKFIT
	 Reference Energy          =    -567.3239402855023172 [Eh]
	 Singles Energy            =      -0.0000000000000000 [Eh]
	 Same-Spin Energy          =      -0.2426321863633403 [Eh]
	 Opposite-Spin Energy      =      -0.7275931301679924 [Eh]
	 Correlation Energy        =      -0.9702253165313327 [Eh]
	 Total Energy              =    -568.2941656020336723 [Eh]

	 ================> DF-SCS-MP2 Energies <==================
	-----------------------------------------------------------
	 SCS Same-Spin Scale       =       0.3333333333333333 [-]
	 SCS Opposite-Spin Scale   =       1.2000000000000000 [-]
	 SCS Same-Spin Energy      =      -0.0808773954544468 [Eh]
	 SCS Opposite-Spin Energy  =      -0.8731117562015909 [Eh]
	 SCS Correlation Energy    =      -0.9539891516560376 [Eh]
	 SCS Total Energy          =    -568.2779294371583774 [Eh]
	-----------------------------------------------------------

  Dipole Moment: [D]
     X:     1.3566      Y:     1.1566      Z:    -0.0003     Total:     1.7827

*** Psi4 exiting successfully. Buy a developer a beer!
