                               Psi4 1.4a3.dev225

  ==> Input File <==

--------------------------------------------------------------------------
#psi4
#
memory 32 gb

molecule  {
0 1
  S        1.1830230     0.0407500    -0.0002230
  N       -1.2657710    -0.7786410     0.0002510
  C       -0.0644320     1.2156230    -0.0000300
  C       -1.2905570     0.5944340     0.0002340
  C       -0.0184830    -1.1998720     0.0000480
  H        0.1541650     2.2748950    -0.0001110
  H       -2.2626648     1.1180880     0.0004010
  H        0.2637610    -2.2461300     0.0000230
units angstrom
no_reorient  #important for SAPT in psi4, default
symmetry c1  #important for SAPT in psi4, default
}

set PROPERTIES_ORIGIN ["COM"]
properties('MP2/aug-cc-pvtz', properties = ['dipole'])
--------------------------------------------------------------------------

    Molecular point group: c1
  Charge       = 0
  Multiplicity = 1
  Basis Set: AUG-CC-PVTZ
    Blend: AUG-CC-PVTZ
  Basis Set: (AUG-CC-PVTZ AUX)
    Blend: AUG-CC-PVTZ-JKFIT

    Orbital Energies [Eh]
    ---------------------

    Doubly Occupied:

       1A    -92.003557     2A    -15.579195     3A    -11.314661
       4A    -11.277506     5A    -11.271328     6A     -9.004337
       7A     -6.685218     8A     -6.684706     9A     -6.684004
      10A     -1.280698    11A     -1.070870    12A     -1.002841
      13A     -0.804542    14A     -0.774786    15A     -0.696993
      16A     -0.594089    17A     -0.569645    18A     -0.562514
      19A     -0.509312    20A     -0.437968    21A     -0.394136
      22A     -0.343355

  @DF-RHF Final Energy:  -567.38221315812871

   => Energetics <=

    Nuclear Repulsion Energy =            204.7191565764801453
    One-Electron Energy =               -1185.1102120772115995
    Two-Electron Energy =                 413.0088423426027475
    Total Energy =                       -567.3822131581287067
  Basis Set: (AUG-CC-PVTZ AUX)
    Blend: AUG-CC-PVTZ-RI
    Molecular point group: c1

    Geometry (in Angstrom), charge = 0, multiplicity = 1:

       Center              X                  Y                   Z               Mass
    ------------   -----------------  -----------------  -----------------  -----------------
         S            1.162338280354     0.053955608282    -0.000219758170    31.972071174400
         N           -1.286455719646    -0.765435391718     0.000254241830    14.003074004430
         C           -0.085116719646     1.228828608282    -0.000026758170    12.000000000000
         C           -1.311241719646     0.607639608282     0.000237241830    12.000000000000
         C           -0.039167719646    -1.186666391718     0.000051241830    12.000000000000
         H            0.133480280354     2.288100608282    -0.000107758170     1.007825032230
         H           -2.283349519646     1.131293608282     0.000404241830     1.007825032230
         H            0.243076280354    -2.232924391718     0.000026241830     1.007825032230

  Basis Set: AUG-CC-PVTZ
    Blend: AUG-CC-PVTZ
  Basis Set: (AUG-CC-PVTZ AUX)
    Blend: AUG-CC-PVTZ-JKFIT
	 Reference Energy          =    -567.3822131581287067 [Eh]
	 Singles Energy            =      -0.0000000000000000 [Eh]
	 Same-Spin Energy          =      -0.2458336594753528 [Eh]
	 Opposite-Spin Energy      =      -0.7303034244356451 [Eh]
	 Correlation Energy        =      -0.9761370839109978 [Eh]
	 Total Energy              =    -568.3583502420397053 [Eh]

	 ================> DF-SCS-MP2 Energies <==================
	-----------------------------------------------------------
	 SCS Same-Spin Scale       =       0.3333333333333333 [-]
	 SCS Opposite-Spin Scale   =       1.2000000000000000 [-]
	 SCS Same-Spin Energy      =      -0.0819445531584509 [Eh]
	 SCS Opposite-Spin Energy  =      -0.8763641093227741 [Eh]
	 SCS Correlation Energy    =      -0.9583086624812250 [Eh]
	 SCS Total Energy          =    -568.3405218206099789 [Eh]
	-----------------------------------------------------------

  Dipole Moment: [D]
     X:     1.3693      Y:     1.1743      Z:    -0.0003     Total:     1.8038

*** Psi4 exiting successfully. Buy a developer a beer!
