                               Psi4 1.3.2 release

  ==> Input File <==

--------------------------------------------------------------------------
#psi4
#
memory 32 gb

molecule  {
0 1
  S        1.2232656     0.0850013    -0.0002323
  N       -1.2657710    -0.7786410     0.0002510
  C       -0.0644320     1.2156230    -0.0000300
  C       -1.2905570     0.5944340     0.0002340
  C       -0.0184830    -1.1998720     0.0000480
  H        0.1541650     2.2748950    -0.0001110
  H       -2.2450570     1.1086030     0.0003980
  H        0.2637610    -2.2461300     0.0000230
units angstrom
no_reorient  #important for SAPT in psi4, default
symmetry c1  #important for SAPT in psi4, default
}

set PROPERTIES_ORIGIN ["COM"]
properties('MP2/aug-cc-pvtz', properties = ['dipole'])
--------------------------------------------------------------------------

    Molecular point group: c1
  Charge       = 0
  Multiplicity = 1
  Basis Set: AUG-CC-PVTZ
    Blend: AUG-CC-PVTZ
  Basis Set: (AUG-CC-PVTZ AUX)
    Blend: AUG-CC-PVTZ-JKFIT

    Orbital Energies [Eh]
    ---------------------

    Doubly Occupied:

       1A    -92.004432     2A    -15.583184     3A    -11.320500
       4A    -11.275444     5A    -11.272332     6A     -9.004066
       7A     -6.684920     8A     -6.684322     9A     -6.683693
      10A     -1.278075    11A     -1.068947    12A     -0.997131
      13A     -0.806490    14A     -0.773364    15A     -0.698169
      16A     -0.598104    17A     -0.560078    18A     -0.558371
      19A     -0.512614    20A     -0.438445    21A     -0.397499
      22A     -0.339364

  @DF-RHF Final Energy:  -567.37960365225263

   => Energetics <=

    Nuclear Repulsion Energy =            203.0801426231596736
    One-Electron Energy =               -1181.8404043505397567
    Two-Electron Energy =                 411.3806580751275419
    Total Energy =                       -567.3796036522526265
  Basis Set: (AUG-CC-PVTZ AUX)
    Blend: AUG-CC-PVTZ-RI
    Molecular point group: c1

    Geometry (in Angstrom), charge = 0, multiplicity = 1:

       Center              X                  Y                   Z               Mass
    ------------   -----------------  -----------------  -----------------  -----------------
         S            1.187234927104     0.081674328245    -0.000225524422    31.972071174400
         N           -1.301801672896    -0.781967971755     0.000257775578    14.003074004430
         C           -0.100462672896     1.212296028245    -0.000023224422    12.000000000000
         C           -1.326587672896     0.591107028245     0.000240775578    12.000000000000
         C           -0.054513672896    -1.203198971755     0.000054775578    12.000000000000
         H            0.118134327104     2.271568028245    -0.000104224422     1.007825032230
         H           -2.281087672896     1.105276028245     0.000404775578     1.007825032230
         H            0.227730327104    -2.249456971755     0.000029775578     1.007825032230

  Basis Set: AUG-CC-PVTZ
    Blend: AUG-CC-PVTZ
  Basis Set: (AUG-CC-PVTZ AUX)
    Blend: AUG-CC-PVTZ-JKFIT
	 Reference Energy          =    -567.3796036522526265 [Eh]
	 Singles Energy            =      -0.0000000000000000 [Eh]
	 Same-Spin Energy          =      -0.2456043720333311 [Eh]
	 Opposite-Spin Energy      =      -0.7312333054869247 [Eh]
	 Correlation Energy        =      -0.9768376775202557 [Eh]
	 Total Energy              =    -568.3564413297729061 [Eh]

	 ================> DF-SCS-MP2 Energies <==================
	-----------------------------------------------------------
	 SCS Same-Spin Scale       =       0.3333333333333333 [-]
	 SCS Opposite-Spin Scale   =       1.2000000000000000 [-]
	 SCS Same-Spin Energy      =      -0.0818681240111104 [Eh]
	 SCS Opposite-Spin Energy  =      -0.8774799665843096 [Eh]
	 SCS Correlation Energy    =      -0.9593480905954199 [Eh]
	 SCS Total Energy          =    -568.3389517428480531 [Eh]
	-----------------------------------------------------------

  Dipole Moment: [D]
     X:     1.2958      Y:     1.1292      Z:    -0.0003     Total:     1.7188

*** Psi4 exiting successfully. Buy a developer a beer!
