                               Psi4 1.3.2 release

  ==> Input File <==

--------------------------------------------------------------------------
#psi4
#
memory 32 gb

molecule  {
0 1
  S        1.1830230     0.0407500    -0.0002230
  N       -1.2657710    -0.7786410     0.0002510
  C       -0.0644320     1.2156230    -0.0000300
  C       -1.2905570     0.5944340     0.0002340
  C       -0.0184830    -1.1998720     0.0000480
  H        0.1541650     2.2748950    -0.0001110
  H       -2.4211352     1.2034526     0.0004283
  H        0.2637610    -2.2461300     0.0000230
units angstrom
no_reorient  #important for SAPT in psi4, default
symmetry c1  #important for SAPT in psi4, default
}

set PROPERTIES_ORIGIN ["COM"]
properties('MP2/aug-cc-pvtz', properties = ['dipole'])
--------------------------------------------------------------------------

    Molecular point group: c1
  Charge       = 0
  Multiplicity = 1
  Basis Set: AUG-CC-PVTZ
    Blend: AUG-CC-PVTZ
  Basis Set: (AUG-CC-PVTZ AUX)
    Blend: AUG-CC-PVTZ-JKFIT

    Orbital Energies [Eh]
    ---------------------

    Doubly Occupied:

       1A    -92.004855     2A    -15.581381     3A    -11.316317
       4A    -11.295708     5A    -11.272890     6A     -9.005601
       7A     -6.686479     8A     -6.685965     9A     -6.685253
      10A     -1.282117    11A     -1.072279    12A     -0.998108
      13A     -0.805436    14A     -0.761911    15A     -0.688883
      16A     -0.575132    17A     -0.570698    18A     -0.563974
      19A     -0.498175    20A     -0.438718    21A     -0.395370
      22A     -0.344334

  @DF-RHF Final Energy:  -567.36014630218597

   => Energetics <=

    Nuclear Repulsion Energy =            203.9343844844292732
    One-Electron Energy =               -1183.5298906901541613
    Two-Electron Energy =                 412.2353599035387788
    Total Energy =                       -567.3601463021860809
  Basis Set: (AUG-CC-PVTZ AUX)
    Blend: AUG-CC-PVTZ-RI
    Molecular point group: c1

    Geometry (in Angstrom), charge = 0, multiplicity = 1:

       Center              X                  Y                   Z               Mass
    ------------   -----------------  -----------------  -----------------  -----------------
         S            1.164217257159     0.052943443843    -0.000220081865    31.972071174400
         N           -1.284576742841    -0.766447556157     0.000253918135    14.003074004430
         C           -0.083237742841     1.227816443843    -0.000027081865    12.000000000000
         C           -1.309362742841     0.606627443843     0.000236918135    12.000000000000
         C           -0.037288742841    -1.187678556157     0.000050918135    12.000000000000
         H            0.135359257159     2.287088443843    -0.000108081865     1.007825032230
         H           -2.439940942841     1.215646043843     0.000431218135     1.007825032230
         H            0.244955257159    -2.233936556157     0.000025918135     1.007825032230

  Basis Set: AUG-CC-PVTZ
    Blend: AUG-CC-PVTZ
  Basis Set: (AUG-CC-PVTZ AUX)
    Blend: AUG-CC-PVTZ-JKFIT
	 Reference Energy          =    -567.3601463021859672 [Eh]
	 Singles Energy            =      -0.0000000000000000 [Eh]
	 Same-Spin Energy          =      -0.2463387657911609 [Eh]
	 Opposite-Spin Energy      =      -0.7320980881764532 [Eh]
	 Correlation Energy        =      -0.9784368539676140 [Eh]
	 Total Energy              =    -568.3385831561536179 [Eh]

	 ================> DF-SCS-MP2 Energies <==================
	-----------------------------------------------------------
	 SCS Same-Spin Scale       =       0.3333333333333333 [-]
	 SCS Opposite-Spin Scale   =       1.2000000000000000 [-]
	 SCS Same-Spin Energy      =      -0.0821129219303870 [Eh]
	 SCS Opposite-Spin Energy  =      -0.8785177058117438 [Eh]
	 SCS Correlation Energy    =      -0.9606306277421308 [Eh]
	 SCS Total Energy          =    -568.3207769299281154 [Eh]
	-----------------------------------------------------------

  Dipole Moment: [D]
     X:     1.4009      Y:     1.1286      Z:    -0.0003     Total:     1.7990

*** Psi4 exiting successfully. Buy a developer a beer!
