                               Psi4 1.3.2 release

  ==> Input File <==

--------------------------------------------------------------------------
#psi4
#
memory 32 gb

molecule  {
0 1
  S        1.1830230     0.0407500    -0.0002230
  N       -1.2657710    -0.7786410     0.0002510
  C       -0.0644320     1.2156230    -0.0000300
  C       -1.2795290     0.5731298     0.0002326
  C       -0.0184830    -1.1998720     0.0000480
  H        0.1541650     2.2748950    -0.0001110
  H       -2.2450570     1.1086030     0.0003980
  H        0.2637610    -2.2461300     0.0000230
units angstrom
no_reorient  #important for SAPT in psi4, default
symmetry c1  #important for SAPT in psi4, default
}

set PROPERTIES_ORIGIN ["COM"]
properties('MP2/aug-cc-pvtz', properties = ['dipole'])
--------------------------------------------------------------------------

    Molecular point group: c1
  Charge       = 0
  Multiplicity = 1
  Basis Set: AUG-CC-PVTZ
    Blend: AUG-CC-PVTZ
  Basis Set: (AUG-CC-PVTZ AUX)
    Blend: AUG-CC-PVTZ-JKFIT

    Orbital Energies [Eh]
    ---------------------

    Doubly Occupied:

       1A    -92.003874     2A    -15.578182     3A    -11.314874
       4A    -11.275189     5A    -11.270208     6A     -9.004598
       7A     -6.685457     8A     -6.684977     9A     -6.684286
      10A     -1.287048    11A     -1.072680    12A     -1.002931
      13A     -0.807139    14A     -0.773949    15A     -0.699116
      16A     -0.595314    17A     -0.570617    18A     -0.565427
      19A     -0.505603    20A     -0.440225    21A     -0.395919
      22A     -0.341932

  @DF-RHF Final Energy:  -567.38210526215425

   => Energetics <=

    Nuclear Repulsion Energy =            205.2393305791398177
    One-Electron Energy =               -1186.1237860278783955
    Two-Electron Energy =                 413.5023501865844082
    Total Energy =                       -567.3821052621541412
  Basis Set: (AUG-CC-PVTZ AUX)
    Blend: AUG-CC-PVTZ-RI
    Molecular point group: c1

    Geometry (in Angstrom), charge = 0, multiplicity = 1:

       Center              X                  Y                   Z               Mass
    ------------   -----------------  -----------------  -----------------  -----------------
         S            1.160572586027     0.057075772110    -0.000219524949    31.972071174400
         N           -1.288221413973    -0.762315227890     0.000254475051    14.003074004430
         C           -0.086882413973     1.231948772110    -0.000026524949    12.000000000000
         C           -1.301979413973     0.589455572110     0.000236075051    12.000000000000
         C           -0.040933413973    -1.183546227890     0.000051475051    12.000000000000
         H            0.131714586027     2.291220772110    -0.000107524949     1.007825032230
         H           -2.267507413973     1.124928772110     0.000401475051     1.007825032230
         H            0.241310586027    -2.229804227890     0.000026475051     1.007825032230

  Basis Set: AUG-CC-PVTZ
    Blend: AUG-CC-PVTZ
  Basis Set: (AUG-CC-PVTZ AUX)
    Blend: AUG-CC-PVTZ-JKFIT
	 Reference Energy          =    -567.3821052621542549 [Eh]
	 Singles Energy            =      -0.0000000000000000 [Eh]
	 Same-Spin Energy          =      -0.2461110290224461 [Eh]
	 Opposite-Spin Energy      =      -0.7301126644836553 [Eh]
	 Correlation Energy        =      -0.9762236935061015 [Eh]
	 Total Energy              =    -568.3583289556603404 [Eh]

	 ================> DF-SCS-MP2 Energies <==================
	-----------------------------------------------------------
	 SCS Same-Spin Scale       =       0.3333333333333333 [-]
	 SCS Opposite-Spin Scale   =       1.2000000000000000 [-]
	 SCS Same-Spin Energy      =      -0.0820370096741487 [Eh]
	 SCS Opposite-Spin Energy  =      -0.8761351973803864 [Eh]
	 SCS Correlation Energy    =      -0.9581722070545351 [Eh]
	 SCS Total Energy          =    -568.3402774692087860 [Eh]
	-----------------------------------------------------------

  Dipole Moment: [D]
     X:     1.3835      Y:     1.1713      Z:    -0.0003     Total:     1.8127

*** Psi4 exiting successfully. Buy a developer a beer!
