                               Psi4 1.3.2 release

  ==> Input File <==

--------------------------------------------------------------------------
#psi4
#
memory 32 gb

molecule  {
0 1
  S        1.1830230     0.0407500    -0.0002230
  N       -1.2657710    -0.7786410     0.0002510
  C       -0.0644320     1.2156230    -0.0000300
  C       -1.2905570     0.5944340     0.0002340
  C       -0.0184830    -1.1998720     0.0000480
  H        0.1339543     2.1769586    -0.0001035
  H       -2.2450570     1.1086030     0.0003980
  H        0.2637610    -2.2461300     0.0000230
units angstrom
no_reorient  #important for SAPT in psi4, default
symmetry c1  #important for SAPT in psi4, default
}

set PROPERTIES_ORIGIN ["COM"]
properties('MP2/aug-cc-pvtz', properties = ['dipole'])
--------------------------------------------------------------------------

    Molecular point group: c1
  Charge       = 0
  Multiplicity = 1
  Basis Set: AUG-CC-PVTZ
    Blend: AUG-CC-PVTZ
  Basis Set: (AUG-CC-PVTZ AUX)
    Blend: AUG-CC-PVTZ-JKFIT

    Orbital Energies [Eh]
    ---------------------

    Doubly Occupied:

       1A    -92.002983     2A    -15.578641     3A    -11.314493
       4A    -11.275152     5A    -11.260339     6A     -9.003804
       7A     -6.684697     8A     -6.684181     9A     -6.683489
      10A     -1.280413    11A     -1.073711    12A     -1.005556
      13A     -0.816091    14A     -0.779954    15A     -0.706734
      16A     -0.597517    17A     -0.579078    18A     -0.562168
      19A     -0.509886    20A     -0.437779    21A     -0.393918
      22A     -0.343319

  @DF-RHF Final Energy:  -567.37670338106500

   => Energetics <=

    Nuclear Repulsion Energy =            205.3564776243401866
    One-Electron Energy =               -1186.3185536211265116
    Two-Electron Energy =                 413.5853726157213828
    Total Energy =                       -567.3767033810649991
  Basis Set: (AUG-CC-PVTZ AUX)
    Blend: AUG-CC-PVTZ-RI
    Molecular point group: c1

    Geometry (in Angstrom), charge = 0, multiplicity = 1:

       Center              X                  Y                   Z               Mass
    ------------   -----------------  -----------------  -----------------  -----------------
         S            1.162369142828     0.055229299261    -0.000219811526    31.972071174400
         N           -1.286424857172    -0.764161700739     0.000254188474    14.003074004430
         C           -0.085085857172     1.230102299261    -0.000026811526    12.000000000000
         C           -1.311210857172     0.608913299261     0.000237188474    12.000000000000
         C           -0.039136857172    -1.185392700739     0.000051188474    12.000000000000
         H            0.113300442828     2.191437899261    -0.000100311526     1.007825032230
         H           -2.265710857172     1.123082299261     0.000401188474     1.007825032230
         H            0.243107142828    -2.231650700739     0.000026188474     1.007825032230

  Basis Set: AUG-CC-PVTZ
    Blend: AUG-CC-PVTZ
  Basis Set: (AUG-CC-PVTZ AUX)
    Blend: AUG-CC-PVTZ-JKFIT
	 Reference Energy          =    -567.3767033810649991 [Eh]
	 Singles Energy            =      -0.0000000000000000 [Eh]
	 Same-Spin Energy          =      -0.2456192475372794 [Eh]
	 Opposite-Spin Energy      =      -0.7299572561034695 [Eh]
	 Correlation Energy        =      -0.9755765036407489 [Eh]
	 Total Energy              =    -568.3522798847056947 [Eh]

	 ================> DF-SCS-MP2 Energies <==================
	-----------------------------------------------------------
	 SCS Same-Spin Scale       =       0.3333333333333333 [-]
	 SCS Opposite-Spin Scale   =       1.2000000000000000 [-]
	 SCS Same-Spin Energy      =      -0.0818730825124265 [Eh]
	 SCS Opposite-Spin Energy  =      -0.8759487073241634 [Eh]
	 SCS Correlation Energy    =      -0.9578217898365898 [Eh]
	 SCS Total Energy          =    -568.3345251709015429 [Eh]
	-----------------------------------------------------------

  Dipole Moment: [D]
     X:     1.3603      Y:     1.1577      Z:    -0.0003     Total:     1.7863

*** Psi4 exiting successfully. Buy a developer a beer!
