                               Psi4 1.3.2 release

  ==> Input File <==

--------------------------------------------------------------------------
#psi4
#
memory 32 gb

molecule  {
0 1
  S        1.1611882     0.0615302    -0.0002193
  N       -1.2657710    -0.7786410     0.0002510
  C       -0.0644320     1.2156230    -0.0000300
  C       -1.2905570     0.5944340     0.0002340
  C       -0.0184830    -1.1998720     0.0000480
  H        0.1541650     2.2748950    -0.0001110
  H       -2.2450570     1.1086030     0.0003980
  H        0.2637610    -2.2461300     0.0000230
units angstrom
no_reorient  #important for SAPT in psi4, default
symmetry c1  #important for SAPT in psi4, default
}

set PROPERTIES_ORIGIN ["COM"]
properties('MP2/aug-cc-pvtz', properties = ['dipole'])
--------------------------------------------------------------------------

    Molecular point group: c1
  Charge       = 0
  Multiplicity = 1
  Basis Set: AUG-CC-PVTZ
    Blend: AUG-CC-PVTZ
  Basis Set: (AUG-CC-PVTZ AUX)
    Blend: AUG-CC-PVTZ-JKFIT

    Orbital Energies [Eh]
    ---------------------

    Doubly Occupied:

       1A    -92.002318     2A    -15.579025     3A    -11.313177
       4A    -11.274190     5A    -11.268910     6A     -9.003785
       7A     -6.684689     8A     -6.684215     9A     -6.683456
      10A     -1.282075    11A     -1.076820    12A     -1.002365
      13A     -0.803397    14A     -0.778466    15A     -0.699630
      16A     -0.595643    17A     -0.572592    18A     -0.564382
      19A     -0.510580    20A     -0.437517    21A     -0.395747
      22A     -0.341812

  @DF-RHF Final Energy:  -567.38246249510848

   => Energetics <=

    Nuclear Repulsion Energy =            205.7206495945308973
    One-Electron Energy =               -1187.0966435003679180
    Two-Electron Energy =                 413.9935314107285649
    Total Energy =                       -567.3824624951084843
  Basis Set: (AUG-CC-PVTZ AUX)
    Blend: AUG-CC-PVTZ-RI
    Molecular point group: c1

    Geometry (in Angstrom), charge = 0, multiplicity = 1:

       Center              X                  Y                   Z               Mass
    ------------   -----------------  -----------------  -----------------  -----------------
         S            1.148507824376     0.067031838372    -0.000217414347    31.972071174400
         N           -1.278451375624    -0.773139361628     0.000252885653    14.003074004430
         C           -0.077112375624     1.221124638372    -0.000028114347    12.000000000000
         C           -1.303237375624     0.599935638372     0.000235885653    12.000000000000
         C           -0.031163375624    -1.194370361628     0.000049885653    12.000000000000
         H            0.141484624376     2.280396638372    -0.000109114347     1.007825032230
         H           -2.257737375624     1.114104638372     0.000399885653     1.007825032230
         H            0.251080624376    -2.240628361628     0.000024885653     1.007825032230

  Basis Set: AUG-CC-PVTZ
    Blend: AUG-CC-PVTZ
  Basis Set: (AUG-CC-PVTZ AUX)
    Blend: AUG-CC-PVTZ-JKFIT
	 Reference Energy          =    -567.3824624951084843 [Eh]
	 Singles Energy            =      -0.0000000000000000 [Eh]
	 Same-Spin Energy          =      -0.2461845113409160 [Eh]
	 Opposite-Spin Energy      =      -0.7300539387401256 [Eh]
	 Correlation Energy        =      -0.9762384500810415 [Eh]
	 Total Energy              =    -568.3587009451895256 [Eh]

	 ================> DF-SCS-MP2 Energies <==================
	-----------------------------------------------------------
	 SCS Same-Spin Scale       =       0.3333333333333333 [-]
	 SCS Opposite-Spin Scale   =       1.2000000000000000 [-]
	 SCS Same-Spin Energy      =      -0.0820615037803053 [Eh]
	 SCS Opposite-Spin Energy  =      -0.8760647264881507 [Eh]
	 SCS Correlation Energy    =      -0.9581262302684560 [Eh]
	 SCS Total Energy          =    -568.3405887253769606 [Eh]
	-----------------------------------------------------------

  Dipole Moment: [D]
     X:     1.3790      Y:     1.1930      Z:    -0.0003     Total:     1.8234

*** Psi4 exiting successfully. Buy a developer a beer!
