                               Psi4 1.3.2 release

  ==> Input File <==

--------------------------------------------------------------------------
#psi4
#
memory 32 gb

molecule  {
0 1
  S        1.1830230     0.0407500    -0.0002230
  N       -1.2729325    -0.8004733     0.0002527
  C       -0.0644320     1.2156230    -0.0000300
  C       -1.2905570     0.5944340     0.0002340
  C       -0.0184830    -1.1998720     0.0000480
  H        0.1541650     2.2748950    -0.0001110
  H       -2.2450570     1.1086030     0.0003980
  H        0.2637610    -2.2461300     0.0000230
units angstrom
no_reorient  #important for SAPT in psi4, default
symmetry c1  #important for SAPT in psi4, default
}

set PROPERTIES_ORIGIN ["COM"]
properties('MP2/aug-cc-pvtz', properties = ['dipole'])
--------------------------------------------------------------------------

    Molecular point group: c1
  Charge       = 0
  Multiplicity = 1
  Basis Set: AUG-CC-PVTZ
    Blend: AUG-CC-PVTZ
  Basis Set: (AUG-CC-PVTZ AUX)
    Blend: AUG-CC-PVTZ-JKFIT

    Orbital Energies [Eh]
    ---------------------

    Doubly Occupied:

       1A    -92.003428     2A    -15.581704     3A    -11.314827
       4A    -11.277479     5A    -11.272134     6A     -9.004275
       7A     -6.685176     8A     -6.684636     9A     -6.683920
      10A     -1.276083    11A     -1.071699    12A     -1.001958
      13A     -0.802269    14A     -0.777527    15A     -0.697017
      16A     -0.591495    17A     -0.570314    18A     -0.560359
      19A     -0.510972    20A     -0.440521    21A     -0.393722
      22A     -0.344323

  @DF-RHF Final Energy:  -567.38202801257455

   => Energetics <=

    Nuclear Repulsion Energy =            204.3398726290965897
    One-Electron Energy =               -1184.3521234570198430
    Two-Electron Energy =                 412.6302228153486453
    Total Energy =                       -567.3820280125746649
  Basis Set: (AUG-CC-PVTZ AUX)
    Blend: AUG-CC-PVTZ-RI
    Molecular point group: c1

    Geometry (in Angstrom), charge = 0, multiplicity = 1:

       Center              X                  Y                   Z               Mass
    ------------   -----------------  -----------------  -----------------  -----------------
         S            1.163309324738     0.057664827702    -0.000220002665    31.972071174400
         N           -1.292646175262    -0.783558472298     0.000255697335    14.003074004430
         C           -0.084145675262     1.232537827702    -0.000027002665    12.000000000000
         C           -1.310270675262     0.611348827702     0.000236997335    12.000000000000
         C           -0.038196675262    -1.182957172298     0.000050997335    12.000000000000
         H            0.134451324738     2.291809827702    -0.000108002665     1.007825032230
         H           -2.264770675262     1.125517827702     0.000400997335     1.007825032230
         H            0.244047324738    -2.229215172298     0.000025997335     1.007825032230

  Basis Set: AUG-CC-PVTZ
    Blend: AUG-CC-PVTZ
  Basis Set: (AUG-CC-PVTZ AUX)
    Blend: AUG-CC-PVTZ-JKFIT
	 Reference Energy          =    -567.3820280125745512 [Eh]
	 Singles Energy            =      -0.0000000000000000 [Eh]
	 Same-Spin Energy          =      -0.2454843474974175 [Eh]
	 Opposite-Spin Energy      =      -0.7304083610538733 [Eh]
	 Correlation Energy        =      -0.9758927085512907 [Eh]
	 Total Energy              =    -568.3579207211258790 [Eh]

	 ================> DF-SCS-MP2 Energies <==================
	-----------------------------------------------------------
	 SCS Same-Spin Scale       =       0.3333333333333333 [-]
	 SCS Opposite-Spin Scale   =       1.2000000000000000 [-]
	 SCS Same-Spin Energy      =      -0.0818281158324725 [Eh]
	 SCS Opposite-Spin Energy  =      -0.8764900332646479 [Eh]
	 SCS Correlation Energy    =      -0.9583181490971204 [Eh]
	 SCS Total Energy          =    -568.3403461616716186 [Eh]
	-----------------------------------------------------------

  Dipole Moment: [D]
     X:     1.3887      Y:     1.2133      Z:    -0.0003     Total:     1.8441

*** Psi4 exiting successfully. Buy a developer a beer!
