                               Psi4 1.3.2 release

  ==> Input File <==

--------------------------------------------------------------------------
#psi4
#
memory 32 gb

molecule  {
0 1
  S        1.1830230     0.0407500    -0.0002230
  N       -1.2657710    -0.7786410     0.0002510
  C       -0.0644320     1.2156230    -0.0000300
  C       -1.2941667     0.7944014     0.0002315
  C       -0.0184830    -1.1998720     0.0000480
  H        0.1541650     2.2748950    -0.0001110
  H       -2.2450570     1.1086030     0.0003980
  H        0.2637610    -2.2461300     0.0000230
units angstrom
no_reorient  #important for SAPT in psi4, default
symmetry c1  #important for SAPT in psi4, default
}

set PROPERTIES_ORIGIN ["COM"]
properties('MP2/aug-cc-pvtz', properties = ['dipole'])
--------------------------------------------------------------------------

    Molecular point group: c1
  Charge       = 0
  Multiplicity = 1
  Basis Set: AUG-CC-PVTZ
    Blend: AUG-CC-PVTZ
  Basis Set: (AUG-CC-PVTZ AUX)
    Blend: AUG-CC-PVTZ-JKFIT

    Orbital Energies [Eh]
    ---------------------

    Doubly Occupied:

       1A    -91.998644     2A    -15.582250     3A    -11.312576
       4A    -11.274073     5A    -11.270965     6A     -9.000166
       7A     -6.681213     8A     -6.680459     9A     -6.679608
      10A     -1.244239    11A     -1.069023    12A     -1.012322
      13A     -0.795840    14A     -0.789213    15A     -0.702991
      16A     -0.587316    17A     -0.551152    18A     -0.548629
      19A     -0.537306    20A     -0.415669    21A     -0.385588
      22A     -0.363615

  @DF-RHF Final Energy:  -567.35038114011525

   => Energetics <=

    Nuclear Repulsion Energy =            202.8102851003775413
    One-Electron Energy =               -1181.3556200152761448
    Two-Electron Energy =                 411.1949537747833006
    Total Energy =                       -567.3503811401153598
  Basis Set: (AUG-CC-PVTZ AUX)
    Blend: AUG-CC-PVTZ-RI
    Molecular point group: c1

    Geometry (in Angstrom), charge = 0, multiplicity = 1:

       Center              X                  Y                   Z               Mass
    ------------   -----------------  -----------------  -----------------  -----------------
         S            1.162639118394     0.025836921510    -0.000219369652    31.972071174400
         N           -1.286154881606    -0.793554078490     0.000254630348    14.003074004430
         C           -0.084815881606     1.200709921510    -0.000026369652    12.000000000000
         C           -1.314550581606     0.779488321510     0.000235130348    12.000000000000
         C           -0.038866881606    -1.214785078490     0.000051630348    12.000000000000
         H            0.133781118394     2.259981921510    -0.000107369652     1.007825032230
         H           -2.265440881606     1.093689921510     0.000401630348     1.007825032230
         H            0.243377118394    -2.261043078490     0.000026630348     1.007825032230

  Basis Set: AUG-CC-PVTZ
    Blend: AUG-CC-PVTZ
  Basis Set: (AUG-CC-PVTZ AUX)
    Blend: AUG-CC-PVTZ-JKFIT
	 Reference Energy          =    -567.3503811401152461 [Eh]
	 Singles Energy            =      -0.0000000000000000 [Eh]
	 Same-Spin Energy          =      -0.2430886581404367 [Eh]
	 Opposite-Spin Energy      =      -0.7314407626648267 [Eh]
	 Correlation Energy        =      -0.9745294208052634 [Eh]
	 Total Energy              =    -568.3249105609205571 [Eh]

	 ================> DF-SCS-MP2 Energies <==================
	-----------------------------------------------------------
	 SCS Same-Spin Scale       =       0.3333333333333333 [-]
	 SCS Opposite-Spin Scale   =       1.2000000000000000 [-]
	 SCS Same-Spin Energy      =      -0.0810295527134789 [Eh]
	 SCS Opposite-Spin Energy  =      -0.8777289151977921 [Eh]
	 SCS Correlation Energy    =      -0.9587584679112710 [Eh]
	 SCS Total Energy          =    -568.3091396080264985 [Eh]
	-----------------------------------------------------------

  Dipole Moment: [D]
     X:     1.2578      Y:     1.1934      Z:    -0.0003     Total:     1.7339

*** Psi4 exiting successfully. Buy a developer a beer!
