                               Psi4 1.3.2 release

  ==> Input File <==

--------------------------------------------------------------------------
#psi4
#
memory 32 gb

molecule  {
0 1
  S        1.1830230     0.0407500    -0.0002230
  N       -1.3616122    -0.7770252     0.0002682
  C       -0.0644320     1.2156230    -0.0000300
  C       -1.2905570     0.5944340     0.0002340
  C       -0.0184830    -1.1998720     0.0000480
  H        0.1541650     2.2748950    -0.0001110
  H       -2.2450570     1.1086030     0.0003980
  H        0.2637610    -2.2461300     0.0000230
units angstrom
no_reorient  #important for SAPT in psi4, default
symmetry c1  #important for SAPT in psi4, default
}

set PROPERTIES_ORIGIN ["COM"]
properties('MP2/aug-cc-pvtz', properties = ['dipole'])
--------------------------------------------------------------------------

    Molecular point group: c1
  Charge       = 0
  Multiplicity = 1
  Basis Set: AUG-CC-PVTZ
    Blend: AUG-CC-PVTZ
  Basis Set: (AUG-CC-PVTZ AUX)
    Blend: AUG-CC-PVTZ-JKFIT

    Orbital Energies [Eh]
    ---------------------

    Doubly Occupied:

       1A    -92.013188     2A    -15.591183     3A    -11.326894
       4A    -11.275681     5A    -11.269441     6A     -9.013103
       7A     -6.693949     8A     -6.693412     9A     -6.692830
      10A     -1.258697    11A     -1.073198    12A     -0.996440
      13A     -0.801904    14A     -0.774162    15A     -0.697537
      16A     -0.576052    17A     -0.567375    18A     -0.553552
      19A     -0.512592    20A     -0.452635    21A     -0.392837
      22A     -0.337936

  @DF-RHF Final Energy:  -567.36625033881535

   => Energetics <=

    Nuclear Repulsion Energy =            202.7090268697338900
    One-Electron Energy =               -1181.0213634221242955
    Two-Electron Energy =                 410.9460862135751427
    Total Energy =                       -567.3662503388152345
  Basis Set: (AUG-CC-PVTZ AUX)
    Blend: AUG-CC-PVTZ-RI
    Molecular point group: c1

    Geometry (in Angstrom), charge = 0, multiplicity = 1:

       Center              X                  Y                   Z               Mass
    ------------   -----------------  -----------------  -----------------  -----------------
         S            1.177918837195     0.053801877003    -0.000222556209    31.972071174400
         N           -1.366716362805    -0.763973322997     0.000268643791    14.003074004430
         C           -0.069536162805     1.228674877003    -0.000029556209    12.000000000000
         C           -1.295661162805     0.607485877003     0.000234443791    12.000000000000
         C           -0.023587162805    -1.186820122997     0.000048443791    12.000000000000
         H            0.149060837195     2.287946877003    -0.000110556209     1.007825032230
         H           -2.250161162805     1.121654877003     0.000398443791     1.007825032230
         H            0.258656837195    -2.233078122997     0.000023443791     1.007825032230

  Basis Set: AUG-CC-PVTZ
    Blend: AUG-CC-PVTZ
  Basis Set: (AUG-CC-PVTZ AUX)
    Blend: AUG-CC-PVTZ-JKFIT
	 Reference Energy          =    -567.3662503388153482 [Eh]
	 Singles Energy            =      -0.0000000000000000 [Eh]
	 Same-Spin Energy          =      -0.2482290436809803 [Eh]
	 Opposite-Spin Energy      =      -0.7352181709683741 [Eh]
	 Correlation Energy        =      -0.9834472146493543 [Eh]
	 Total Energy              =    -568.3496975534646936 [Eh]

	 ================> DF-SCS-MP2 Energies <==================
	-----------------------------------------------------------
	 SCS Same-Spin Scale       =       0.3333333333333333 [-]
	 SCS Opposite-Spin Scale   =       1.2000000000000000 [-]
	 SCS Same-Spin Energy      =      -0.0827430145603267 [Eh]
	 SCS Opposite-Spin Energy  =      -0.8822618051620489 [Eh]
	 SCS Correlation Energy    =      -0.9650048197223756 [Eh]
	 SCS Total Energy          =    -568.3312551585377150 [Eh]
	-----------------------------------------------------------

  Dipole Moment: [D]
     X:     1.6549      Y:     1.2864      Z:    -0.0003     Total:     2.0961

*** Psi4 exiting successfully. Buy a developer a beer!
