                               Psi4 1.3.2 release

  ==> Input File <==

--------------------------------------------------------------------------
#psi4
#
memory 32 gb

molecule  {
0 1
  S        1.1830230     0.0407500    -0.0002230
  N       -1.2657710    -0.7786410     0.0002510
  C       -0.0644320     1.2156230    -0.0000300
  C       -1.4689669     0.5040466     0.0002724
  C       -0.0184830    -1.1998720     0.0000480
  H        0.1541650     2.2748950    -0.0001110
  H       -2.2450570     1.1086030     0.0003980
  H        0.2637610    -2.2461300     0.0000230
units angstrom
no_reorient  #important for SAPT in psi4, default
symmetry c1  #important for SAPT in psi4, default
}

set PROPERTIES_ORIGIN ["COM"]
properties('MP2/aug-cc-pvtz', properties = ['dipole'])
--------------------------------------------------------------------------

    Molecular point group: c1
  Charge       = 0
  Multiplicity = 1
  Basis Set: AUG-CC-PVTZ
    Blend: AUG-CC-PVTZ
  Basis Set: (AUG-CC-PVTZ AUX)
    Blend: AUG-CC-PVTZ-JKFIT

    Orbital Energies [Eh]
    ---------------------

    Doubly Occupied:

       1A    -92.014408     2A    -15.578493     3A    -11.307709
       4A    -11.287555     5A    -11.286686     6A     -9.013625
       7A     -6.694376     8A     -6.693903     9A     -6.693518
      10A     -1.286183    11A     -1.071037    12A     -0.990022
      13A     -0.806412    14A     -0.793681    15A     -0.681420
      16A     -0.645084    17A     -0.560374    18A     -0.560152
      19A     -0.498613    20A     -0.421657    21A     -0.405528
      22A     -0.311041

  @DF-RHF Final Energy:  -567.33200289848071

   => Energetics <=

    Nuclear Repulsion Energy =            202.8511899235713543
    One-Electron Energy =               -1181.1634366115088142
    Two-Electron Energy =                 410.9802437894567220
    Total Energy =                       -567.3320028984807095
  Basis Set: (AUG-CC-PVTZ AUX)
    Blend: AUG-CC-PVTZ-RI
    Molecular point group: c1

    Geometry (in Angstrom), charge = 0, multiplicity = 1:

       Center              X                  Y                   Z               Mass
    ------------   -----------------  -----------------  -----------------  -----------------
         S            1.187317194264     0.066828852775    -0.000225143864    31.972071174400
         N           -1.261476805736    -0.752562147225     0.000248856136    14.003074004430
         C           -0.060137805736     1.241701852775    -0.000032143864    12.000000000000
         C           -1.464672705736     0.530125452775     0.000270256136    12.000000000000
         C           -0.014188805736    -1.173793147225     0.000045856136    12.000000000000
         H            0.158459194264     2.300973852775    -0.000113143864     1.007825032230
         H           -2.240762805736     1.134681852775     0.000395856136     1.007825032230
         H            0.268055194264    -2.220051147225     0.000020856136     1.007825032230

  Basis Set: AUG-CC-PVTZ
    Blend: AUG-CC-PVTZ
  Basis Set: (AUG-CC-PVTZ AUX)
    Blend: AUG-CC-PVTZ-JKFIT
	 Reference Energy          =    -567.3320028984807095 [Eh]
	 Singles Energy            =      -0.0000000000000000 [Eh]
	 Same-Spin Energy          =      -0.2513985030516463 [Eh]
	 Opposite-Spin Energy      =      -0.7378493848858271 [Eh]
	 Correlation Energy        =      -0.9892478879374734 [Eh]
	 Total Energy              =    -568.3212507864182044 [Eh]

	 ================> DF-SCS-MP2 Energies <==================
	-----------------------------------------------------------
	 SCS Same-Spin Scale       =       0.3333333333333333 [-]
	 SCS Opposite-Spin Scale   =       1.2000000000000000 [-]
	 SCS Same-Spin Energy      =      -0.0837995010172154 [Eh]
	 SCS Opposite-Spin Energy  =      -0.8854192618629925 [Eh]
	 SCS Correlation Energy    =      -0.9692187628802079 [Eh]
	 SCS Total Energy          =    -568.3012216613609553 [Eh]
	-----------------------------------------------------------

  Dipole Moment: [D]
     X:     1.2066      Y:     1.0948      Z:    -0.0003     Total:     1.6293

*** Psi4 exiting successfully. Buy a developer a beer!
