                               Psi4 1.3.2 release

  ==> Input File <==

--------------------------------------------------------------------------
#psi4
#
memory 32 gb

molecule  {
0 1
  S        1.1830230     0.0407500    -0.0002230
  N       -1.2657710    -0.7786410     0.0002510
  C       -0.0644320     1.2156230    -0.0000300
  C       -1.2189082     0.4696720     0.0002243
  C       -0.0184830    -1.1998720     0.0000480
  H        0.1541650     2.2748950    -0.0001110
  H       -2.2450570     1.1086030     0.0003980
  H        0.2637610    -2.2461300     0.0000230
units angstrom
no_reorient  #important for SAPT in psi4, default
symmetry c1  #important for SAPT in psi4, default
}

set PROPERTIES_ORIGIN ["COM"]
properties('MP2/aug-cc-pvtz', properties = ['dipole'])
--------------------------------------------------------------------------

    Molecular point group: c1
  Charge       = 0
  Multiplicity = 1
  Basis Set: AUG-CC-PVTZ
    Blend: AUG-CC-PVTZ
  Basis Set: (AUG-CC-PVTZ AUX)
    Blend: AUG-CC-PVTZ-JKFIT

    Orbital Energies [Eh]
    ---------------------

    Doubly Occupied:

       1A    -92.007096     2A    -15.574178     3A    -11.317662
       4A    -11.275914     5A    -11.266887     6A     -9.007502
       7A     -6.688226     8A     -6.687917     9A     -6.687266
      10A     -1.325589    11A     -1.085048    12A     -0.999295
      13A     -0.821277    14A     -0.761827    15A     -0.708454
      16A     -0.596353    17A     -0.584506    18A     -0.569408
      19A     -0.481434    20A     -0.446126    21A     -0.407036
      22A     -0.335730

  @DF-RHF Final Energy:  -567.35403870896130

   => Energetics <=

    Nuclear Repulsion Energy =            207.5180264950706714
    One-Electron Energy =               -1190.4746672980861604
    Two-Electron Energy =                 415.6026020940541912
    Total Energy =                       -567.3540387089612977
  Basis Set: (AUG-CC-PVTZ AUX)
    Blend: AUG-CC-PVTZ-RI
    Molecular point group: c1

    Geometry (in Angstrom), charge = 0, multiplicity = 1:

       Center              X                  Y                   Z               Mass
    ------------   -----------------  -----------------  -----------------  -----------------
         S            1.152014216519     0.071681816255    -0.000218353165    31.972071174400
         N           -1.296779783481    -0.747709183745     0.000255646835    14.003074004430
         C           -0.095440783481     1.246554816255    -0.000025353165    12.000000000000
         C           -1.249916983481     0.500603816255     0.000228946835    12.000000000000
         C           -0.049491783481    -1.168940183745     0.000052646835    12.000000000000
         H            0.123156216519     2.305826816255    -0.000106353165     1.007825032230
         H           -2.276065783481     1.139534816255     0.000402646835     1.007825032230
         H            0.232752216519    -2.215198183745     0.000027646835     1.007825032230

  Basis Set: AUG-CC-PVTZ
    Blend: AUG-CC-PVTZ
  Basis Set: (AUG-CC-PVTZ AUX)
    Blend: AUG-CC-PVTZ-JKFIT
	 Reference Energy          =    -567.3540387089612977 [Eh]
	 Singles Energy            =      -0.0000000000000000 [Eh]
	 Same-Spin Energy          =      -0.2480280021070098 [Eh]
	 Opposite-Spin Energy      =      -0.7310118313942388 [Eh]
	 Correlation Energy        =      -0.9790398335012485 [Eh]
	 Total Energy              =    -568.3330785424625446 [Eh]

	 ================> DF-SCS-MP2 Energies <==================
	-----------------------------------------------------------
	 SCS Same-Spin Scale       =       0.3333333333333333 [-]
	 SCS Opposite-Spin Scale   =       1.2000000000000000 [-]
	 SCS Same-Spin Energy      =      -0.0826760007023366 [Eh]
	 SCS Opposite-Spin Energy  =      -0.8772141976730865 [Eh]
	 SCS Correlation Energy    =      -0.9598901983754231 [Eh]
	 SCS Total Energy          =    -568.3139289073367308 [Eh]
	-----------------------------------------------------------

  Dipole Moment: [D]
     X:     1.5078      Y:     1.0950      Z:    -0.0003     Total:     1.8635

*** Psi4 exiting successfully. Buy a developer a beer!
