                               Psi4 1.3.2 release

  ==> Input File <==

--------------------------------------------------------------------------
#psi4
#
memory 32 gb

molecule  {
0 1
  S        1.0533816    -0.0832085    -0.0001926
  N       -1.2657710    -0.7786410     0.0002510
  C       -0.0644320     1.2156230    -0.0000300
  C       -1.2905570     0.5944340     0.0002340
  C       -0.0184830    -1.1998720     0.0000480
  H        0.1541650     2.2748950    -0.0001110
  H       -2.2450570     1.1086030     0.0003980
  H        0.2637610    -2.2461300     0.0000230
units angstrom
no_reorient  #important for SAPT in psi4, default
symmetry c1  #important for SAPT in psi4, default
}

set PROPERTIES_ORIGIN ["COM"]
properties('MP2/aug-cc-pvtz', properties = ['dipole'])
--------------------------------------------------------------------------

    Molecular point group: c1
  Charge       = 0
  Multiplicity = 1
  Basis Set: AUG-CC-PVTZ
    Blend: AUG-CC-PVTZ
  Basis Set: (AUG-CC-PVTZ AUX)
    Blend: AUG-CC-PVTZ-JKFIT

    Orbital Energies [Eh]
    ---------------------

    Doubly Occupied:

       1A    -91.997556     2A    -15.566204     3A    -11.294272
       4A    -11.275323     5A    -11.267072     6A     -9.003879
       7A     -6.685372     8A     -6.683993     9A     -6.683349
      10A     -1.295576    11A     -1.080785    12A     -1.024230
      13A     -0.801239    14A     -0.785561    15A     -0.697643
      16A     -0.597769    17A     -0.592256    18A     -0.579867
      19A     -0.498898    20A     -0.432040    21A     -0.384741
      22A     -0.355779

  @DF-RHF Final Energy:  -567.36387317643073

   => Energetics <=

    Nuclear Repulsion Energy =            210.7396217926743134
    One-Electron Energy =               -1197.0401818601510513
    Two-Electron Energy =                 418.9366868910458948
    Total Energy =                       -567.3638731764308432
  Basis Set: (AUG-CC-PVTZ AUX)
    Blend: AUG-CC-PVTZ-RI
    Molecular point group: c1

    Geometry (in Angstrom), charge = 0, multiplicity = 1:

       Center              X                  Y                   Z               Mass
    ------------   -----------------  -----------------  -----------------  -----------------
         S            1.081252474232    -0.023263671808    -0.000200757502    31.972071174400
         N           -1.237900125768    -0.718696171808     0.000242842498    14.003074004430
         C           -0.036561125768     1.275567828192    -0.000038157502    12.000000000000
         C           -1.262686125768     0.654378828192     0.000225842498    12.000000000000
         C            0.009387874232    -1.139927171808     0.000039842498    12.000000000000
         H            0.182035874232     2.334839828192    -0.000119157502     1.007825032230
         H           -2.217186125768     1.168547828192     0.000389842498     1.007825032230
         H            0.291631874232    -2.186185171808     0.000014842498     1.007825032230

  Basis Set: AUG-CC-PVTZ
    Blend: AUG-CC-PVTZ
  Basis Set: (AUG-CC-PVTZ AUX)
    Blend: AUG-CC-PVTZ-JKFIT
	 Reference Energy          =    -567.3638731764307295 [Eh]
	 Singles Energy            =      -0.0000000000000000 [Eh]
	 Same-Spin Energy          =      -0.2471700831122506 [Eh]
	 Opposite-Spin Energy      =      -0.7284849382267613 [Eh]
	 Correlation Energy        =      -0.9756550213390119 [Eh]
	 Total Energy              =    -568.3395281977697095 [Eh]

	 ================> DF-SCS-MP2 Energies <==================
	-----------------------------------------------------------
	 SCS Same-Spin Scale       =       0.3333333333333333 [-]
	 SCS Opposite-Spin Scale   =       1.2000000000000000 [-]
	 SCS Same-Spin Energy      =      -0.0823900277040835 [Eh]
	 SCS Opposite-Spin Energy  =      -0.8741819258721135 [Eh]
	 SCS Correlation Energy    =      -0.9565719535761971 [Eh]
	 SCS Total Energy          =    -568.3204451300068740 [Eh]
	-----------------------------------------------------------

  Dipole Moment: [D]
     X:     1.4937      Y:     1.2378      Z:    -0.0003     Total:     1.9399

*** Psi4 exiting successfully. Buy a developer a beer!
