                               Psi4 1.3.2 release

  ==> Input File <==

--------------------------------------------------------------------------
#psi4
#
memory 32 gb

molecule  {
0 1
  S        1.1830230     0.0407500    -0.0002230
  N       -1.2657710    -0.7786410     0.0002510
  C       -0.0868581     1.2580357    -0.0000274
  C       -1.2905570     0.5944340     0.0002340
  C       -0.0184830    -1.1998720     0.0000480
  H        0.1541650     2.2748950    -0.0001110
  H       -2.2450570     1.1086030     0.0003980
  H        0.2637610    -2.2461300     0.0000230
units angstrom
no_reorient  #important for SAPT in psi4, default
symmetry c1  #important for SAPT in psi4, default
}

set PROPERTIES_ORIGIN ["COM"]
properties('MP2/aug-cc-pvtz', properties = ['dipole'])
--------------------------------------------------------------------------

    Molecular point group: c1
  Charge       = 0
  Multiplicity = 1
  Basis Set: AUG-CC-PVTZ
    Blend: AUG-CC-PVTZ
  Basis Set: (AUG-CC-PVTZ AUX)
    Blend: AUG-CC-PVTZ-JKFIT

    Orbital Energies [Eh]
    ---------------------

    Doubly Occupied:

       1A    -92.002402     2A    -15.579595     3A    -11.317570
       4A    -11.277800     5A    -11.272346     6A     -9.002453
       7A     -6.683323     8A     -6.682769     9A     -6.682149
      10A     -1.279262    11A     -1.063759    12A     -1.005972
      13A     -0.810292    14A     -0.777286    15A     -0.700629
      16A     -0.598453    17A     -0.576253    18A     -0.560204
      19A     -0.500363    20A     -0.438059    21A     -0.390914
      22A     -0.346475

  @DF-RHF Final Energy:  -567.38130367173153

   => Energetics <=

    Nuclear Repulsion Energy =            203.9157454382026060
    One-Electron Energy =               -1183.4974380959361042
    Two-Electron Energy =                 412.2003889860019399
    Total Energy =                       -567.3813036717315299
  Basis Set: (AUG-CC-PVTZ AUX)
    Blend: AUG-CC-PVTZ-RI
    Molecular point group: c1

    Geometry (in Angstrom), charge = 0, multiplicity = 1:

       Center              X                  Y                   Z               Mass
    ------------   -----------------  -----------------  -----------------  -----------------
         S            1.165295594456     0.048080299036    -0.000220089664    31.972071174400
         N           -1.283498405544    -0.771310700964     0.000253910336    14.003074004430
         C           -0.104585505544     1.265365999036    -0.000024489664    12.000000000000
         C           -1.308284405544     0.601764299036     0.000236910336    12.000000000000
         C           -0.036210405544    -1.192541700964     0.000050910336    12.000000000000
         H            0.136437594456     2.282225299036    -0.000108089664     1.007825032230
         H           -2.262784405544     1.115933299036     0.000400910336     1.007825032230
         H            0.246033594456    -2.238799700964     0.000025910336     1.007825032230

  Basis Set: AUG-CC-PVTZ
    Blend: AUG-CC-PVTZ
  Basis Set: (AUG-CC-PVTZ AUX)
    Blend: AUG-CC-PVTZ-JKFIT
	 Reference Energy          =    -567.3813036717315299 [Eh]
	 Singles Energy            =      -0.0000000000000000 [Eh]
	 Same-Spin Energy          =      -0.2451755309158673 [Eh]
	 Opposite-Spin Energy      =      -0.7300447888501129 [Eh]
	 Correlation Energy        =      -0.9752203197659802 [Eh]
	 Total Energy              =    -568.3565239914975109 [Eh]

	 ================> DF-SCS-MP2 Energies <==================
	-----------------------------------------------------------
	 SCS Same-Spin Scale       =       0.3333333333333333 [-]
	 SCS Opposite-Spin Scale   =       1.2000000000000000 [-]
	 SCS Same-Spin Energy      =      -0.0817251769719557 [Eh]
	 SCS Opposite-Spin Energy  =      -0.8760537466201355 [Eh]
	 SCS Correlation Energy    =      -0.9577789235920913 [Eh]
	 SCS Total Energy          =    -568.3390825953235890 [Eh]
	-----------------------------------------------------------

  Dipole Moment: [D]
     X:     1.3147      Y:     1.1784      Z:    -0.0003     Total:     1.7655

*** Psi4 exiting successfully. Buy a developer a beer!
