                               Psi4 1.4a3.dev225

  ==> Input File <==

--------------------------------------------------------------------------
#psi4
#
memory 32 gb

molecule  {
0 1
  S        1.1830230     0.0407500    -0.0002230
  N       -1.2657710    -0.7786410     0.0002510
  C       -0.0644320     1.2156230    -0.0000300
  C       -1.2905570     0.5944340     0.0002340
  C       -0.0658545    -1.1838738     0.0000557
  H        0.1541650     2.2748950    -0.0001110
  H       -2.2450570     1.1086030     0.0003980
  H        0.2637610    -2.2461300     0.0000230
units angstrom
no_reorient  #important for SAPT in psi4, default
symmetry c1  #important for SAPT in psi4, default
}

set PROPERTIES_ORIGIN ["COM"]
properties('MP2/aug-cc-pvtz', properties = ['dipole'])
--------------------------------------------------------------------------

    Molecular point group: c1
  Charge       = 0
  Multiplicity = 1
  Basis Set: AUG-CC-PVTZ
    Blend: AUG-CC-PVTZ
  Basis Set: (AUG-CC-PVTZ AUX)
    Blend: AUG-CC-PVTZ-JKFIT

    Orbital Energies [Eh]
    ---------------------

    Doubly Occupied:

       1A    -91.998955     2A    -15.576176     3A    -11.313117
       4A    -11.275353     5A    -11.271985     6A     -8.999852
       7A     -6.680733     8A     -6.680166     9A     -6.679439
      10A     -1.296720    11A     -1.073946    12A     -1.000832
      13A     -0.806258    14A     -0.773200    15A     -0.699659
      16A     -0.600418    17A     -0.568603    18A     -0.564306
      19A     -0.509251    20A     -0.435642    21A     -0.399921
      22A     -0.342894

  @DF-RHF Final Energy:  -567.38287053199269

   => Energetics <=

    Nuclear Repulsion Energy =            205.2704069684672561
    One-Electron Energy =               -1186.2117010048730208
    Two-Electron Energy =                 413.5584235044130992
    Total Energy =                       -567.3828705319926939
  Basis Set: (AUG-CC-PVTZ AUX)
    Blend: AUG-CC-PVTZ-RI
    Molecular point group: c1

    Geometry (in Angstrom), charge = 0, multiplicity = 1:

       Center              X                  Y                   Z               Mass
    ------------   -----------------  -----------------  -----------------  -----------------
         S            1.168817355151     0.051809465450    -0.000220809676    31.972071174400
         N           -1.279976644849    -0.767581534550     0.000253190324    14.003074004430
         C           -0.078637644849     1.226682465450    -0.000027809676    12.000000000000
         C           -1.304762644849     0.605493465450     0.000236190324    12.000000000000
         C           -0.080060144849    -1.172814334550     0.000057890324    12.000000000000
         H            0.139959355151     2.285954465450    -0.000108809676     1.007825032230
         H           -2.259262644849     1.119662465450     0.000400190324     1.007825032230
         H            0.249555355151    -2.235070534550     0.000025190324     1.007825032230

  Basis Set: AUG-CC-PVTZ
    Blend: AUG-CC-PVTZ
  Basis Set: (AUG-CC-PVTZ AUX)
    Blend: AUG-CC-PVTZ-JKFIT
	 Reference Energy          =    -567.3828705319926939 [Eh]
	 Singles Energy            =      -0.0000000000000000 [Eh]
	 Same-Spin Energy          =      -0.2446049234753518 [Eh]
	 Opposite-Spin Energy      =      -0.7284130791223925 [Eh]
	 Correlation Energy        =      -0.9730180025977443 [Eh]
	 Total Energy              =    -568.3558885345904628 [Eh]

	 ================> DF-SCS-MP2 Energies <==================
	-----------------------------------------------------------
	 SCS Same-Spin Scale       =       0.3333333333333333 [-]
	 SCS Opposite-Spin Scale   =       1.2000000000000000 [-]
	 SCS Same-Spin Energy      =      -0.0815349744917839 [Eh]
	 SCS Opposite-Spin Energy  =      -0.8740956949468710 [Eh]
	 SCS Correlation Energy    =      -0.9556306694386549 [Eh]
	 SCS Total Energy          =    -568.3385012014313133 [Eh]
	-----------------------------------------------------------

  Dipole Moment: [D]
     X:     1.2441      Y:     1.1024      Z:    -0.0003     Total:     1.6622

*** Psi4 exiting successfully. Buy a developer a beer!
