                               Psi4 1.3.2 release

  ==> Input File <==

--------------------------------------------------------------------------
#psi4
#
memory 32 gb

molecule  {
0 1
  S        1.1830230     0.0407500    -0.0002230
  N       -1.2657710    -0.7786410     0.0002510
  C       -0.0644320     1.2156230    -0.0000300
  C       -1.2905570     0.5944340     0.0002340
  C       -0.0184830    -1.1998720     0.0000480
  H        0.1541650     2.2748950    -0.0001110
  H       -2.2450570     1.1086030     0.0003980
  H        0.2637610    -2.2461300     0.0000230
units angstrom
no_reorient  #important for SAPT in psi4, default
symmetry c1  #important for SAPT in psi4, default
}

set PROPERTIES_ORIGIN ["COM"]
properties('MP2/aug-cc-pvtz', properties = ['dipole'])
--------------------------------------------------------------------------

    Molecular point group: c1
  Charge       = 0
  Multiplicity = 1
  Basis Set: AUG-CC-PVTZ
    Blend: AUG-CC-PVTZ
  Basis Set: (AUG-CC-PVTZ AUX)
    Blend: AUG-CC-PVTZ-JKFIT

    Orbital Energies [Eh]
    ---------------------

    Doubly Occupied:

       1A    -92.003455     2A    -15.579002     3A    -11.314512
       4A    -11.275332     5A    -11.271182     6A     -9.004237
       7A     -6.685119     8A     -6.684607     9A     -6.683906
      10A     -1.280598    11A     -1.070751    12A     -1.003683
      13A     -0.804527    14A     -0.776959    15A     -0.698030
      16A     -0.596243    17A     -0.569554    18A     -0.562392
      19A     -0.510165    20A     -0.437891    21A     -0.394033
      22A     -0.343295

  @DF-RHF Final Energy:  -567.38286810563261

   => Energetics <=

    Nuclear Repulsion Energy =            204.8170822482534277
    One-Electron Energy =               -1185.3009538666817662
    Two-Electron Energy =                 413.1010035127956712
    Total Energy =                       -567.3828681056327241
  Basis Set: (AUG-CC-PVTZ AUX)
    Blend: AUG-CC-PVTZ-RI
    Molecular point group: c1

    Geometry (in Angstrom), charge = 0, multiplicity = 1:

       Center              X                  Y                   Z               Mass
    ------------   -----------------  -----------------  -----------------  -----------------
         S            1.162129505417     0.054068071524    -0.000219722599    31.972071174400
         N           -1.286664494583    -0.765322928476     0.000254277401    14.003074004430
         C           -0.085325494583     1.228941071524    -0.000026722599    12.000000000000
         C           -1.311450494583     0.607752071524     0.000237277401    12.000000000000
         C           -0.039376494583    -1.186553928476     0.000051277401    12.000000000000
         H            0.133271505417     2.288213071524    -0.000107722599     1.007825032230
         H           -2.265950494583     1.121921071524     0.000401277401     1.007825032230
         H            0.242867505417    -2.232811928476     0.000026277401     1.007825032230

  Basis Set: AUG-CC-PVTZ
    Blend: AUG-CC-PVTZ
  Basis Set: (AUG-CC-PVTZ AUX)
    Blend: AUG-CC-PVTZ-JKFIT
	 Reference Energy          =    -567.3828681056326104 [Eh]
	 Singles Energy            =      -0.0000000000000000 [Eh]
	 Same-Spin Energy          =      -0.2457900138030252 [Eh]
	 Opposite-Spin Energy      =      -0.7301847167700604 [Eh]
	 Correlation Energy        =      -0.9759747305730856 [Eh]
	 Total Energy              =    -568.3588428362056675 [Eh]

	 ================> DF-SCS-MP2 Energies <==================
	-----------------------------------------------------------
	 SCS Same-Spin Scale       =       0.3333333333333333 [-]
	 SCS Opposite-Spin Scale   =       1.2000000000000000 [-]
	 SCS Same-Spin Energy      =      -0.0819300046010084 [Eh]
	 SCS Opposite-Spin Energy  =      -0.8762216601240724 [Eh]
	 SCS Correlation Energy    =      -0.9581516647250808 [Eh]
	 SCS Total Energy          =    -568.3410197703576614 [Eh]
	-----------------------------------------------------------

  Dipole Moment: [D]
     X:     1.3683      Y:     1.1779      Z:    -0.0003     Total:     1.8054

*** Psi4 exiting successfully. Buy a developer a beer!
