                               Psi4 1.3.2 release

  ==> Input File <==

--------------------------------------------------------------------------
#psi4
#
memory 32 gb

molecule  {
0 1
  S        1.1830230     0.0407500    -0.0002230
  N       -1.2797119    -0.8224273     0.0002543
  C       -0.0644320     1.2156230    -0.0000300
  C       -1.2905570     0.5944340     0.0002340
  C       -0.0184830    -1.1998720     0.0000480
  H        0.1541650     2.2748950    -0.0001110
  H       -2.2450570     1.1086030     0.0003980
  H        0.2637610    -2.2461300     0.0000230
units angstrom
no_reorient  #important for SAPT in psi4, default
symmetry c1  #important for SAPT in psi4, default
}

set PROPERTIES_ORIGIN ["COM"]
properties('MP2/aug-cc-pvtz', properties = ['dipole'])
--------------------------------------------------------------------------

    Molecular point group: c1
  Charge       = 0
  Multiplicity = 1
  Basis Set: AUG-CC-PVTZ
    Blend: AUG-CC-PVTZ
  Basis Set: (AUG-CC-PVTZ AUX)
    Blend: AUG-CC-PVTZ-JKFIT

    Orbital Energies [Eh]
    ---------------------

    Doubly Occupied:

       1A    -92.003418     2A    -15.584342     3A    -11.315124
       4A    -11.279558     5A    -11.273083     6A     -9.004327
       7A     -6.685247     8A     -6.684680     9A     -6.683948
      10A     -1.271803    11A     -1.072746    12A     -1.000242
      13A     -0.800002    14A     -0.778135    15A     -0.696016
      16A     -0.586767    17A     -0.571033    18A     -0.558467
      19A     -0.511831    20A     -0.442820    21A     -0.393558
      22A     -0.345243

  @DF-RHF Final Energy:  -567.38037565948582

   => Energetics <=

    Nuclear Repulsion Energy =            203.8737528732642375
    One-Electron Energy =               -1183.4234811118469679
    Two-Electron Energy =                 412.1693525790968238
    Total Energy =                       -567.3803756594859351
  Basis Set: (AUG-CC-PVTZ AUX)
    Blend: AUG-CC-PVTZ-RI
    Molecular point group: c1

    Geometry (in Angstrom), charge = 0, multiplicity = 1:

       Center              X                  Y                   Z               Mass
    ------------   -----------------  -----------------  -----------------  -----------------
         S            1.164426195101     0.061281633312    -0.000220266257    31.972071174400
         N           -1.298308704899    -0.801895666688     0.000257033743    14.003074004430
         C           -0.083028804899     1.236154633312    -0.000027266257    12.000000000000
         C           -1.309153804899     0.614965633312     0.000236733743    12.000000000000
         C           -0.037079804899    -1.179340366688     0.000050733743    12.000000000000
         H            0.135568195101     2.295426633312    -0.000108266257     1.007825032230
         H           -2.263653804899     1.129134633312     0.000400733743     1.007825032230
         H            0.245164195101    -2.225598366688     0.000025733743     1.007825032230

  Basis Set: AUG-CC-PVTZ
    Blend: AUG-CC-PVTZ
  Basis Set: (AUG-CC-PVTZ AUX)
    Blend: AUG-CC-PVTZ-JKFIT
	 Reference Energy          =    -567.3803756594858214 [Eh]
	 Singles Energy            =      -0.0000000000000000 [Eh]
	 Same-Spin Energy          =      -0.2452107999982964 [Eh]
	 Opposite-Spin Energy      =      -0.7306983032281533 [Eh]
	 Correlation Energy        =      -0.9759091032264497 [Eh]
	 Total Energy              =    -568.3562847627122210 [Eh]

	 ================> DF-SCS-MP2 Energies <==================
	-----------------------------------------------------------
	 SCS Same-Spin Scale       =       0.3333333333333333 [-]
	 SCS Opposite-Spin Scale   =       1.2000000000000000 [-]
	 SCS Same-Spin Energy      =      -0.0817369333327655 [Eh]
	 SCS Opposite-Spin Energy  =      -0.8768379638737840 [Eh]
	 SCS Correlation Energy    =      -0.9585748972065494 [Eh]
	 SCS Total Energy          =    -568.3389505566923390 [Eh]
	-----------------------------------------------------------

  Dipole Moment: [D]
     X:     1.4062      Y:     1.2474      Z:    -0.0003     Total:     1.8797

*** Psi4 exiting successfully. Buy a developer a beer!
