                               Psi4 1.3.2 release

  ==> Input File <==

--------------------------------------------------------------------------
#psi4
#
memory 32 gb

molecule  {
0 1
  S        1.1830230     0.0407500    -0.0002230
  N       -1.2897382    -0.7788644     0.0002553
  C       -0.0644320     1.2156230    -0.0000300
  C       -1.2905570     0.5944340     0.0002340
  C       -0.0184830    -1.1998720     0.0000480
  H        0.1541650     2.2748950    -0.0001110
  H       -2.2450570     1.1086030     0.0003980
  H        0.2637610    -2.2461300     0.0000230
units angstrom
no_reorient  #important for SAPT in psi4, default
symmetry c1  #important for SAPT in psi4, default
}

set PROPERTIES_ORIGIN ["COM"]
properties('MP2/aug-cc-pvtz', properties = ['dipole'])
--------------------------------------------------------------------------

    Molecular point group: c1
  Charge       = 0
  Multiplicity = 1
  Basis Set: AUG-CC-PVTZ
    Blend: AUG-CC-PVTZ
  Basis Set: (AUG-CC-PVTZ AUX)
    Blend: AUG-CC-PVTZ-JKFIT

    Orbital Energies [Eh]
    ---------------------

    Doubly Occupied:

       1A    -92.005954     2A    -15.582192     3A    -11.317746
       4A    -11.275350     5A    -11.270768     6A     -9.006511
       7A     -6.687387     8A     -6.686866     9A     -6.686195
      10A     -1.274671    11A     -1.071150    12A     -1.001967
      13A     -0.803518    14A     -0.776595    15A     -0.697899
      16A     -0.591163    17A     -0.568946    18A     -0.559874
      19A     -0.510864    20A     -0.442010    21A     -0.393473
      22A     -0.342137

  @DF-RHF Final Energy:  -567.38016872491573

   => Energetics <=

    Nuclear Repulsion Energy =            204.2702691666564192
    One-Electron Energy =               -1184.1944075928981874
    Two-Electron Energy =                 412.5439697013260911
    Total Energy =                       -567.3801687249157339
  Basis Set: (AUG-CC-PVTZ AUX)
    Blend: AUG-CC-PVTZ-RI
    Molecular point group: c1

    Geometry (in Angstrom), charge = 0, multiplicity = 1:

       Center              X                  Y                   Z               Mass
    ------------   -----------------  -----------------  -----------------  -----------------
         S            1.166077975100     0.054104875495    -0.000220431002    31.972071174400
         N           -1.306683224900    -0.765509524505     0.000257868998    14.003074004430
         C           -0.081377024900     1.228977875495    -0.000027431002    12.000000000000
         C           -1.307502024900     0.607788875495     0.000236568998    12.000000000000
         C           -0.035428024900    -1.186517124505     0.000050568998    12.000000000000
         H            0.137219975100     2.288249875495    -0.000108431002     1.007825032230
         H           -2.262002024900     1.121957875495     0.000400568998     1.007825032230
         H            0.246815975100    -2.232775124505     0.000025568998     1.007825032230

  Basis Set: AUG-CC-PVTZ
    Blend: AUG-CC-PVTZ
  Basis Set: (AUG-CC-PVTZ AUX)
    Blend: AUG-CC-PVTZ-JKFIT
	 Reference Energy          =    -567.3801687249157339 [Eh]
	 Singles Energy            =      -0.0000000000000000 [Eh]
	 Same-Spin Energy          =      -0.2463553133364350 [Eh]
	 Opposite-Spin Energy      =      -0.7313481693659942 [Eh]
	 Correlation Energy        =      -0.9777034827024292 [Eh]
	 Total Energy              =    -568.3578722076181293 [Eh]

	 ================> DF-SCS-MP2 Energies <==================
	-----------------------------------------------------------
	 SCS Same-Spin Scale       =       0.3333333333333333 [-]
	 SCS Opposite-Spin Scale   =       1.2000000000000000 [-]
	 SCS Same-Spin Energy      =      -0.0821184377788117 [Eh]
	 SCS Opposite-Spin Energy  =      -0.8776178032391930 [Eh]
	 SCS Correlation Energy    =      -0.9597362410180047 [Eh]
	 SCS Total Energy          =    -568.3399049659337834 [Eh]
	-----------------------------------------------------------

  Dipole Moment: [D]
     X:     1.4486      Y:     1.2062      Z:    -0.0003     Total:     1.8851

*** Psi4 exiting successfully. Buy a developer a beer!
