                               Psi4 1.3.2 release

  ==> Input File <==

--------------------------------------------------------------------------
#psi4
#
memory 32 gb

molecule  {
0 1
  S        1.1830230     0.0407500    -0.0002230
  N       -1.2657710    -0.7786410     0.0002510
  C       -0.0644320     1.2156230    -0.0000300
  C       -1.2905570     0.5944340     0.0002340
  C        0.1710030    -1.2638647     0.0000172
  H        0.1541650     2.2748950    -0.0001110
  H       -2.2450570     1.1086030     0.0003980
  H        0.2637610    -2.2461300     0.0000230
units angstrom
no_reorient  #important for SAPT in psi4, default
symmetry c1  #important for SAPT in psi4, default
}

set PROPERTIES_ORIGIN ["COM"]
properties('MP2/aug-cc-pvtz', properties = ['dipole'])
--------------------------------------------------------------------------

    Molecular point group: c1
  Charge       = 0
  Multiplicity = 1
  Basis Set: AUG-CC-PVTZ
    Blend: AUG-CC-PVTZ
  Basis Set: (AUG-CC-PVTZ AUX)
    Blend: AUG-CC-PVTZ-JKFIT

    Orbital Energies [Eh]
    ---------------------

    Doubly Occupied:

       1A    -92.021350     2A    -15.585865     3A    -11.317138
       4A    -11.277780     5A    -11.268995     6A     -9.021443
       7A     -6.702451     8A     -6.701868     9A     -6.701434
      10A     -1.238951    11A     -1.068057    12A     -1.007539
      13A     -0.820568    14A     -0.771469    15A     -0.693682
      16A     -0.607188    17A     -0.566599    18A     -0.549876
      19A     -0.512275    20A     -0.428373    21A     -0.386833
      22A     -0.335125

  @DF-RHF Final Energy:  -567.33291665382512

   => Energetics <=

    Nuclear Repulsion Energy =            203.3239992027542087
    One-Electron Energy =               -1182.1441108329356666
    Two-Electron Energy =                 411.4871949763563634
    Total Energy =                       -567.3329166538251229
  Basis Set: (AUG-CC-PVTZ AUX)
    Blend: AUG-CC-PVTZ-RI
    Molecular point group: c1

    Geometry (in Angstrom), charge = 0, multiplicity = 1:

       Center              X                  Y                   Z               Mass
    ------------   -----------------  -----------------  -----------------  -----------------
         S            1.135378106481     0.063102481700    -0.000215374293    31.972071174400
         N           -1.313415893519    -0.756288518300     0.000258625707    14.003074004430
         C           -0.112076893519     1.237975481700    -0.000022374293    12.000000000000
         C           -1.338201893519     0.616786481700     0.000241625707    12.000000000000
         C            0.123358106481    -1.241512218300     0.000024825707    12.000000000000
         H            0.106520106481     2.297247481700    -0.000103374293     1.007825032230
         H           -2.292701893519     1.130955481700     0.000405625707     1.007825032230
         H            0.216116106481    -2.223777518300     0.000030625707     1.007825032230

  Basis Set: AUG-CC-PVTZ
    Blend: AUG-CC-PVTZ
  Basis Set: (AUG-CC-PVTZ AUX)
    Blend: AUG-CC-PVTZ-JKFIT
	 Reference Energy          =    -567.3329166538251229 [Eh]
	 Singles Energy            =      -0.0000000000000000 [Eh]
	 Same-Spin Energy          =      -0.2511757822721659 [Eh]
	 Opposite-Spin Energy      =      -0.7396388894020466 [Eh]
	 Correlation Energy        =      -0.9908146716742124 [Eh]
	 Total Energy              =    -568.3237313254993524 [Eh]

	 ================> DF-SCS-MP2 Energies <==================
	-----------------------------------------------------------
	 SCS Same-Spin Scale       =       0.3333333333333333 [-]
	 SCS Opposite-Spin Scale   =       1.2000000000000000 [-]
	 SCS Same-Spin Energy      =      -0.0837252607573886 [Eh]
	 SCS Opposite-Spin Energy  =      -0.8875666672824559 [Eh]
	 SCS Correlation Energy    =      -0.9712919280398445 [Eh]
	 SCS Total Energy          =    -568.3042085818649412 [Eh]
	-----------------------------------------------------------

  Dipole Moment: [D]
     X:     1.5633      Y:     1.4743      Z:    -0.0003     Total:     2.1488

*** Psi4 exiting successfully. Buy a developer a beer!
